<event>
 7    1  0.4195243E-015  0.9000773E+02  0.7816164E-02  0.1186339E+00
        -11   -1    0    0    0    0  0.00000000000E+00  0.00000000000E+00  0.45593999997E+02  0.45594000000E+02  0.51100000000E-03 0.  1.
         11   -1    0    0    0    0 -0.00000000000E+00 -0.00000000000E+00 -0.45593999997E+02  0.45594000000E+02  0.51100000000E-03 0. -1.
    9900012    2    1    2    0    0 -0.97701302759E+00  0.31164783479E+00 -0.58425275261E+00  0.90007733035E+02  0.89999994311E+02 0.  0.
        -12    1    1    2    0    0  0.97701302759E+00 -0.31164783479E+00  0.58425275261E+00  0.11802669647E+01  0.00000000000E+00 0.  1.
         11    1    3    3    0    0  0.88580026409E+01  0.18795406446E+01  0.24439771188E+01  0.93792274863E+01  0.51100000000E-03 0. -1.
        -11    1    3    3    0    0  0.20246298355E+02  0.24387196581E+02  0.17180890690E+02  0.36053168506E+02  0.51100000000E-03 0.  1.
         12    1    3    3    0    0 -0.30081314023E+02 -0.25955089391E+02 -0.20209120561E+02  0.44575337043E+02  0.00000000000E+00 0. -1.
</event>
<event>
 7    1  0.4195243E-015  0.9000774E+02  0.7816164E-02  0.1186339E+00
        -11   -1    0    0    0    0  0.00000000000E+00  0.00000000000E+00  0.45593999997E+02  0.45594000000E+02  0.51100000000E-03 0.  1.
         11   -1    0    0    0    0 -0.00000000000E+00 -0.00000000000E+00 -0.45593999997E+02  0.45594000000E+02  0.51100000000E-03 0. -1.
    9900012    2    1    2    0    0 -0.75081585790E+00 -0.87471277527E+00 -0.25333222969E+00  0.90007735576E+02  0.89999996886E+02 0.  0.
        -12    1    1    2    0    0  0.75081585790E+00  0.87471277527E+00  0.25333222969E+00  0.11802644239E+01  0.00000000000E+00 0.  1.
         11    1    3    3    0    0 -0.12470861396E+02 -0.93372335354E+01 -0.32610941979E+02  0.36141110263E+02  0.51100000000E-03 0. -1.
        -11    1    3    3    0    0 -0.91908162422E+01  0.39203968112E+01 -0.47250134402E+01  0.11052889515E+02  0.51100000000E-03 0.  1.
        -12    1    3    3    0    0  0.20910861780E+02  0.45421239489E+01  0.37082623190E+02  0.42813735798E+02  0.00000000000E+00 0.  1.
</event>
<event>
 7    1  0.4195243E-015  0.9000774E+02  0.7816164E-02  0.1186339E+00
        -11   -1    0    0    0    0  0.00000000000E+00  0.00000000000E+00  0.45593999997E+02  0.45594000000E+02  0.51100000000E-03 0. -1.
         11   -1    0    0    0    0 -0.00000000000E+00 -0.00000000000E+00 -0.45593999997E+02  0.45594000000E+02  0.51100000000E-03 0.  1.
    9900012    2    1    2    0    0 -0.95912199460E+00 -0.45839862143E+00  0.51279846469E+00  0.90007743010E+02  0.90000004418E+02 0.  0.
        -12    1    1    2    0    0  0.95912199460E+00  0.45839862143E+00 -0.51279846469E+00  0.11802569898E+01  0.00000000000E+00 0.  1.
         11    1    3    3    0    0 -0.14779085723E+02 -0.32044195285E+01 -0.54381681761E+01  0.16070574125E+02  0.51100000000E-03 0. -1.
        -11    1    3    3    0    0  0.34616500312E+01 -0.16933819927E+02 -0.28263837683E+02  0.33129772095E+02  0.51100000000E-03 0.  1.
         12    1    3    3    0    0  0.10358313698E+02  0.19679840834E+02  0.34214804324E+02  0.40807396790E+02  0.00000000000E+00 0. -1.
</event>
<event>
 7    1  0.4195243E-015  0.9000772E+02  0.7816164E-02  0.1186339E+00
        -11   -1    0    0    0    0  0.00000000000E+00  0.00000000000E+00  0.45593999997E+02  0.45594000000E+02  0.51100000000E-03 0.  1.
         11   -1    0    0    0    0 -0.00000000000E+00 -0.00000000000E+00 -0.45593999997E+02  0.45594000000E+02  0.51100000000E-03 0. -1.
    9900012    2    1    2    0    0 -0.67498254115E-02 -0.69674674479E+00  0.95265949657E+00  0.90007719651E+02  0.89999980750E+02 0.  0.
        -12    1    1    2    0    0  0.67498254115E-02  0.69674674479E+00 -0.95265949657E+00  0.11802803493E+01  0.00000000000E+00 0.  1.
         11    1    3    3    0    0  0.23054949649E+02 -0.35208902389E+02  0.18785473898E+01  0.42127502316E+02  0.51100000000E-03 0. -1.
        -11    1    3    3    0    0 -0.53730030235E+01  0.28822502509E+01 -0.88855566787E+01  0.10776346586E+02  0.51100000000E-03 0.  1.
        -12    1    3    3    0    0 -0.17688696451E+02  0.31629905394E+02  0.79596687854E+01  0.37103870749E+02  0.00000000000E+00 0.  1.
</event>
<event>
 7    1  0.4195243E-015  0.9000774E+02  0.7816164E-02  0.1186339E+00
        -11   -1    0    0    0    0  0.00000000000E+00  0.00000000000E+00  0.45593999997E+02  0.45594000000E+02  0.51100000000E-03 0.  1.
         11   -1    0    0    0    0 -0.00000000000E+00 -0.00000000000E+00 -0.45593999997E+02  0.45594000000E+02  0.51100000000E-03 0. -1.
    9900012    2    1    2    0    0  0.45545293846E+00  0.10348338627E+01 -0.33866609804E+00  0.90007740186E+02  0.90000001556E+02 0.  0.
        -12    1    1    2    0    0 -0.45545293846E+00 -0.10348338627E+01  0.33866609804E+00  0.11802598140E+01  0.00000000000E+00 0.  1.
         11    1    3    3    0    0  0.33774087783E+02 -0.13770871702E+02 -0.21848056763E+02  0.42516626131E+02  0.51100000000E-03 0. -1.
        -11    1    3    3    0    0  0.60114714925E+00  0.35514875286E+01  0.88874335573E+01  0.95896254909E+01  0.51100000000E-03 0.  1.
        -12    1    3    3    0    0 -0.33919781994E+02  0.11254218036E+02  0.12621957108E+02  0.37901488564E+02  0.00000000000E+00 0.  1.
</event>
<event>
 7    1  0.4195243E-015  0.9000776E+02  0.7816164E-02  0.1186339E+00
        -11   -1    0    0    0    0  0.00000000000E+00  0.00000000000E+00  0.45593999997E+02  0.45594000000E+02  0.51100000000E-03 0. -1.
         11   -1    0    0    0    0 -0.00000000000E+00 -0.00000000000E+00 -0.45593999997E+02  0.45594000000E+02  0.51100000000E-03 0.  1.
    9900012    2    1    2    0    0 -0.55082689442E+00 -0.98258433170E+00  0.35224143251E+00  0.90007764319E+02  0.90000026008E+02 0.  0.
        -12    1    1    2    0    0  0.55082689442E+00  0.98258433170E+00 -0.35224143251E+00  0.11802356813E+01  0.00000000000E+00 0.  1.
         11    1    3    3    0    0 -0.29502882067E+02 -0.18202563069E+02 -0.27786067916E+02  0.44427681945E+02  0.51100000000E-03 0. -1.
        -11    1    3    3    0    0  0.88223068220E+01  0.18711543037E+00  0.35043273047E+01  0.94946521771E+01  0.51100000000E-03 0.  1.
        -12    1    3    3    0    0  0.20129748350E+02  0.17032863307E+02  0.24633982044E+02  0.36085430196E+02  0.00000000000E+00 0.  1.
</event>
<event>
 7    1  0.4195243E-015  0.9000771E+02  0.7816164E-02  0.1186339E+00
        -11   -1    0    0    0    0  0.00000000000E+00  0.00000000000E+00  0.45593999997E+02  0.45594000000E+02  0.51100000000E-03 0. -1.
         11   -1    0    0    0    0 -0.00000000000E+00 -0.00000000000E+00 -0.45593999997E+02  0.45594000000E+02  0.51100000000E-03 0.  1.
    9900012    2    1    2    0    0 -0.81645356727E+00  0.65819235910E+00  0.54154409793E+00  0.90007710366E+02  0.89999971343E+02 0.  0.
        -12    1    1    2    0    0  0.81645356727E+00 -0.65819235910E+00 -0.54154409793E+00  0.11802896336E+01  0.00000000000E+00 0.  1.
         11    1    3    3    0    0  0.71945528210E+01  0.21504581205E+01 -0.41349058772E+01  0.85722521717E+01  0.51100000000E-03 0. -1.
        -11    1    3    3    0    0 -0.33893013812E+02 -0.22596011669E+02 -0.14121493506E+02  0.43113022484E+02  0.51100000000E-03 0.  1.
         12    1    3    3    0    0  0.25882007424E+02  0.21103745908E+02  0.18797943481E+02  0.38322435710E+02  0.00000000000E+00 0. -1.
</event>
<event>
 7    1  0.4195243E-015  0.9000775E+02  0.7816164E-02  0.1186339E+00
        -11   -1    0    0    0    0  0.00000000000E+00  0.00000000000E+00  0.45593999997E+02  0.45594000000E+02  0.51100000000E-03 0.  1.
         11   -1    0    0    0    0 -0.00000000000E+00 -0.00000000000E+00 -0.45593999997E+02  0.45594000000E+02  0.51100000000E-03 0. -1.
    9900012    2    1    2    0    0  0.32077138858E+00 -0.89202798124E+00 -0.70311803303E+00  0.90007752919E+02  0.90000014458E+02 0.  0.
        -12    1    1    2    0    0 -0.32077138858E+00  0.89202798124E+00  0.70311803303E+00  0.11802470807E+01  0.00000000000E+00 0.  1.
         11    1    3    3    0    0  0.23641062171E+02  0.17788892866E+02 -0.16118093160E+02  0.33691801040E+02  0.51100000000E-03 0. -1.
        -11    1    3    3    0    0  0.87683143907E+01  0.44156976389E+01 -0.58452174259E+01  0.11425773055E+02  0.51100000000E-03 0.  1.
        -12    1    3    3    0    0 -0.32088605173E+02 -0.23096618486E+02  0.21260192553E+02  0.44890178824E+02  0.00000000000E+00 0.  1.
</event>
<event>
 7    1  0.4195243E-015  0.9000772E+02  0.7816164E-02  0.1186339E+00
        -11   -1    0    0    0    0  0.00000000000E+00  0.00000000000E+00  0.45593999997E+02  0.45594000000E+02  0.51100000000E-03 0. -1.
         11   -1    0    0    0    0 -0.00000000000E+00 -0.00000000000E+00 -0.45593999997E+02  0.45594000000E+02  0.51100000000E-03 0.  1.
    9900012    2    1    2    0    0  0.68347729636E+00 -0.96179341049E+00 -0.29539817269E-01  0.90007720211E+02  0.89999981318E+02 0.  0.
        -12    1    1    2    0    0 -0.68347729636E+00  0.96179341049E+00  0.29539817269E-01  0.11802797888E+01  0.00000000000E+00 0.  1.
         11    1    3    3    0    0 -0.16127964011E+02 -0.33112735942E+02  0.12694581237E+02  0.38957886207E+02  0.51100000000E-03 0. -1.
        -11    1    3    3    0    0  0.14839876845E+00 -0.63919466313E+01  0.17597830577E+01  0.66314282476E+01  0.51100000000E-03 0.  1.
        -12    1    3    3    0    0  0.16663042539E+02  0.38542889162E+02 -0.14483904112E+02  0.44418405757E+02  0.00000000000E+00 0.  1.
</event>
<event>
 7    1  0.4195243E-015  0.9000775E+02  0.7816164E-02  0.1186339E+00
        -11   -1    0    0    0    0  0.00000000000E+00  0.00000000000E+00  0.45593999997E+02  0.45594000000E+02  0.51100000000E-03 0.  1.
         11   -1    0    0    0    0 -0.00000000000E+00 -0.00000000000E+00 -0.45593999997E+02  0.45594000000E+02  0.51100000000E-03 0. -1.
    9900012    2    1    2    0    0  0.87515359774E+00  0.18371105250E+00  0.77028252289E+00  0.90007754799E+02  0.90000016362E+02 0.  0.
        -12    1    1    2    0    0 -0.87515359774E+00 -0.18371105250E+00 -0.77028252289E+00  0.11802452014E+01  0.00000000000E+00 0.  1.
         11    1    3    3    0    0 -0.32274964647E+02 -0.17421307001E+02 -0.10853768362E+02  0.38248915913E+02  0.51100000000E-03 0. -1.
        -11    1    3    3    0    0  0.22139968778E+01 -0.92164986572E+01  0.26579237080E+01  0.98442972513E+01  0.51100000000E-03 0.  1.
        -12    1    3    3    0    0  0.30936121367E+02  0.26821516711E+02  0.89661271770E+01  0.41914541635E+02  0.00000000000E+00 0.  1.
</event>
<event>
 7    1  0.4195243E-015  0.9000768E+02  0.7816164E-02  0.1186339E+00
        -11   -1    0    0    0    0  0.00000000000E+00  0.00000000000E+00  0.45593999997E+02  0.45594000000E+02  0.51100000000E-03 0.  1.
         11   -1    0    0    0    0 -0.00000000000E+00 -0.00000000000E+00 -0.45593999997E+02  0.45594000000E+02  0.51100000000E-03 0. -1.
    9900012    2    1    2    0    0 -0.44730739198E+00 -0.93214273003E-01 -0.10882952131E+01  0.90007678317E+02  0.89999938871E+02 0.  0.
        -12    1    1    2    0    0  0.44730739198E+00  0.93214273003E-01  0.10882952131E+01  0.11803216826E+01  0.00000000000E+00 0.  1.
         11    1    3    3    0    0 -0.17284540509E+02  0.18203625191E+02 -0.21553657844E+02  0.33086061679E+02  0.51100000000E-03 0. -1.
        -11    1    3    3    0    0 -0.43536967227E+01 -0.10654239877E+02 -0.12501757533E+02  0.16992982204E+02  0.51100000000E-03 0.  1.
        -12    1    3    3    0    0  0.21190929840E+02 -0.76425995865E+01  0.32967120164E+02  0.39928634435E+02  0.00000000000E+00 0.  1.
</event>
<event>
 7    1  0.4195243E-015  0.9000774E+02  0.7816164E-02  0.1186339E+00
        -11   -1    0    0    0    0  0.00000000000E+00  0.00000000000E+00  0.45593999997E+02  0.45594000000E+02  0.51100000000E-03 0. -1.
         11   -1    0    0    0    0 -0.00000000000E+00 -0.00000000000E+00 -0.45593999997E+02  0.45594000000E+02  0.51100000000E-03 0.  1.
    9900012    2    1    2    0    0 -0.58077550963E+00 -0.99435066115E+00  0.25880330664E+00  0.90007740460E+02  0.90000001834E+02 0.  0.
        -12    1    1    2    0    0  0.58077550963E+00  0.99435066115E+00 -0.25880330664E+00  0.11802595399E+01  0.00000000000E+00 0.  1.
         11    1    3    3    0    0 -0.45836721097E+01 -0.87811768753E+01 -0.17605662615E+01  0.10060751023E+02  0.51100000000E-03 0. -1.
        -11    1    3    3    0    0  0.11303813124E+02  0.25932525619E+01 -0.37589230156E+02  0.39337658471E+02  0.51100000000E-03 0.  1.
         12    1    3    3    0    0 -0.73009165242E+01  0.51935736523E+01  0.39608599724E+02  0.40609330966E+02  0.00000000000E+00 0. -1.
</event>
<event>
 7    1  0.4195243E-015  0.9000768E+02  0.7816164E-02  0.1186339E+00
        -11   -1    0    0    0    0  0.00000000000E+00  0.00000000000E+00  0.45593999997E+02  0.45594000000E+02  0.51100000000E-03 0. -1.
         11   -1    0    0    0    0 -0.00000000000E+00 -0.00000000000E+00 -0.45593999997E+02  0.45594000000E+02  0.51100000000E-03 0.  1.
    9900012    2    1    2    0    0  0.12703050323E+00  0.87169641912E+00  0.78559488659E+00  0.90007681940E+02  0.89999942542E+02 0.  0.
        -12    1    1    2    0    0 -0.12703050323E+00 -0.87169641912E+00 -0.78559488659E+00  0.11803180595E+01  0.00000000000E+00 0.  1.
         11    1    3    3    0    0  0.20610705670E+02  0.92083989147E+01 -0.34390173215E+02  0.41137328703E+02  0.51100000000E-03 0. -1.
        -11    1    3    3    0    0 -0.18752121715E+01 -0.82349681648E+01 -0.68020781775E+00  0.84731224646E+01  0.51100000000E-03 0.  1.
        -12    1    3    3    0    0 -0.18608462996E+02 -0.10173433074E+00  0.35855975920E+02  0.40397230773E+02  0.00000000000E+00 0.  1.
</event>
<event>
 7    1  0.4195243E-015  0.9000720E+02  0.7816164E-02  0.1186340E+00
        -11   -1    0    0    0    0  0.00000000000E+00  0.00000000000E+00  0.45593999997E+02  0.45594000000E+02  0.51100000000E-03 0.  1.
         11   -1    0    0    0    0 -0.00000000000E+00 -0.00000000000E+00 -0.45593999997E+02  0.45594000000E+02  0.51100000000E-03 0. -1.
    9900012    2    1    2    0    0 -0.32822669619E+00 -0.51440635299E-01 -0.11330980684E+01  0.90007199367E+02  0.89999453597E+02 0.  0.
        -12    1    1    2    0    0  0.32822669619E+00  0.51440635299E-01  0.11330980684E+01  0.11808006333E+01  0.00000000000E+00 0.  1.
         11    1    3    3    0    0  0.32872916944E+02 -0.24152492330E+02  0.10626968440E+02  0.42153339282E+02  0.51100000000E-03 0. -1.
        -11    1    3    3    0    0 -0.83351461420E+01 -0.29061759979E+01  0.12293513804E+01  0.89124533781E+01  0.51100000000E-03 0.  1.
        -12    1    3    3    0    0 -0.24865997498E+02  0.27007227692E+02 -0.12989417888E+02  0.38941406707E+02  0.00000000000E+00 0.  1.
</event>
<event>
 7    1  0.4195243E-015  0.9000773E+02  0.7816164E-02  0.1186339E+00
        -11   -1    0    0    0    0  0.00000000000E+00  0.00000000000E+00  0.45593999997E+02  0.45594000000E+02  0.51100000000E-03 0. -1.
         11   -1    0    0    0    0 -0.00000000000E+00 -0.00000000000E+00 -0.45593999997E+02  0.45594000000E+02  0.51100000000E-03 0.  1.
    9900012    2    1    2    0    0  0.65383862780E+00 -0.61328558907E+00  0.76773837294E+00  0.90007726144E+02  0.89999987329E+02 0.  0.
        -12    1    1    2    0    0 -0.65383862780E+00  0.61328558907E+00 -0.76773837294E+00  0.11802738556E+01  0.00000000000E+00 0.  1.
         11    1    3    3    0    0 -0.19875121202E+02  0.34435248308E+02  0.60723810940E+01  0.40220400063E+02  0.51100000000E-03 0. -1.
        -11    1    3    3    0    0 -0.70151034429E+01 -0.70145799486E+01 -0.32238335554E+01  0.10431160589E+02  0.51100000000E-03 0.  1.
        -12    1    3    3    0    0  0.27544063273E+02 -0.28033953948E+02 -0.20808091657E+01  0.39356165493E+02  0.00000000000E+00 0.  1.
</event>
<event>
 7    1  0.4195243E-015  0.9000779E+02  0.7816164E-02  0.1186339E+00
        -11   -1    0    0    0    0  0.00000000000E+00  0.00000000000E+00  0.45593999997E+02  0.45594000000E+02  0.51100000000E-03 0.  1.
         11   -1    0    0    0    0 -0.00000000000E+00 -0.00000000000E+00 -0.45593999997E+02  0.45594000000E+02  0.51100000000E-03 0. -1.
    9900012    2    1    2    0    0 -0.39459565604E+00  0.51393068939E+00 -0.98643650127E+00  0.90007793469E+02  0.90000055543E+02 0.  0.
        -12    1    1    2    0    0  0.39459565604E+00 -0.51393068939E+00  0.98643650127E+00  0.11802065312E+01  0.00000000000E+00 0.  1.
         11    1    3    3    0    0 -0.58507546286E+01  0.79367242907E+01 -0.46373307632E+00  0.98710673596E+01  0.51100000000E-03 0. -1.
        -11    1    3    3    0    0 -0.17909086286E+02 -0.59190924076E+01 -0.34237525959E+02  0.39089374651E+02  0.51100000000E-03 0.  1.
         12    1    3    3    0    0  0.23365245258E+02 -0.15037011937E+01  0.33714822534E+02  0.41047351459E+02  0.00000000000E+00 0. -1.
</event>
<event>
 7    1  0.4195243E-015  0.9000771E+02  0.7816164E-02  0.1186339E+00
        -11   -1    0    0    0    0  0.00000000000E+00  0.00000000000E+00  0.45593999997E+02  0.45594000000E+02  0.51100000000E-03 0. -1.
         11   -1    0    0    0    0 -0.00000000000E+00 -0.00000000000E+00 -0.45593999997E+02  0.45594000000E+02  0.51100000000E-03 0.  1.
    9900012    2    1    2    0    0  0.35109752991E+00 -0.61598038581E+00 -0.94359761676E+00  0.90007712843E+02  0.89999973852E+02 0.  0.
        -12    1    1    2    0    0 -0.35109752991E+00  0.61598038581E+00  0.94359761676E+00  0.11802871572E+01  0.00000000000E+00 0.  1.
         11    1    3    3    0    0 -0.20024557223E+02  0.10999300351E+02 -0.28384026820E+02  0.36436526714E+02  0.51100000000E-03 0. -1.
        -11    1    3    3    0    0 -0.22095058519E+01  0.63345595811E+01 -0.62829679489E+01  0.91915313036E+01  0.51100000000E-03 0.  1.
        -12    1    3    3    0    0  0.22585160605E+02 -0.17949840317E+02  0.33723397152E+02  0.44379654826E+02  0.00000000000E+00 0.  1.
</event>
<event>
 7    1  0.4195243E-015  0.9000766E+02  0.7816164E-02  0.1186339E+00
        -11   -1    0    0    0    0  0.00000000000E+00  0.00000000000E+00  0.45593999997E+02  0.45594000000E+02  0.51100000000E-03 0. -1.
         11   -1    0    0    0    0 -0.00000000000E+00 -0.00000000000E+00 -0.45593999997E+02  0.45594000000E+02  0.51100000000E-03 0.  1.
    9900012    2    1    2    0    0  0.50942758763E-01 -0.11761022530E+01  0.86016032773E-01  0.90007656646E+02  0.89999916914E+02 0.  0.
        -12    1    1    2    0    0 -0.50942758763E-01  0.11761022530E+01 -0.86016032773E-01  0.11803433535E+01  0.00000000000E+00 0.  1.
         11    1    3    3    0    0  0.80591908422E+01 -0.24001719297E+01  0.36106676178E+01  0.91514099040E+01  0.51100000000E-03 0. -1.
        -11    1    3    3    0    0  0.22922216371E+02 -0.27732445230E+02 -0.11438767875E+02  0.37753965786E+02  0.51100000000E-03 0.  1.
         12    1    3    3    0    0 -0.30930464455E+02  0.28956514907E+02  0.79141162904E+01  0.43102280956E+02  0.00000000000E+00 0. -1.
</event>
<event>
 7    1  0.4195243E-015  0.9000774E+02  0.7816164E-02  0.1186339E+00
        -11   -1    0    0    0    0  0.00000000000E+00  0.00000000000E+00  0.45593999997E+02  0.45594000000E+02  0.51100000000E-03 0.  1.
         11   -1    0    0    0    0 -0.00000000000E+00 -0.00000000000E+00 -0.45593999997E+02  0.45594000000E+02  0.51100000000E-03 0. -1.
    9900012    2    1    2    0    0  0.61206967440E+00  0.46073582966E+00 -0.89783502917E+00  0.90007739634E+02  0.90000000998E+02 0.  0.
        -12    1    1    2    0    0 -0.61206967440E+00 -0.46073582966E+00  0.89783502917E+00  0.11802603656E+01  0.00000000000E+00 0.  1.
         11    1    3    3    0    0 -0.69332672041E+01 -0.60813632808E+01 -0.52749092529E+01  0.10624398400E+02  0.51100000000E-03 0. -1.
        -11    1    3    3    0    0  0.28722389621E+02 -0.21740035373E+02  0.19487705641E+02  0.40955774623E+02  0.51100000000E-03 0.  1.
         12    1    3    3    0    0 -0.21177052743E+02  0.28282134484E+02 -0.15110631417E+02  0.38427566611E+02  0.00000000000E+00 0. -1.
</event>
<event>
 7    1  0.4195243E-015  0.9000753E+02  0.7816164E-02  0.1186339E+00
        -11   -1    0    0    0    0  0.00000000000E+00  0.00000000000E+00  0.45593999997E+02  0.45594000000E+02  0.51100000000E-03 0.  1.
         11   -1    0    0    0    0 -0.00000000000E+00 -0.00000000000E+00 -0.45593999997E+02  0.45594000000E+02  0.51100000000E-03 0. -1.
    9900012    2    1    2    0    0  0.41749919255E+00 -0.89805856203E+00  0.64241346357E+00  0.90007529833E+02  0.89999788427E+02 0.  0.
        -12    1    1    2    0    0 -0.41749919255E+00  0.89805856203E+00 -0.64241346357E+00  0.11804701668E+01  0.00000000000E+00 0.  1.
         11    1    3    3    0    0  0.76634968069E+01 -0.24265075962E+02 -0.29372505603E+02  0.38862156147E+02  0.51100000000E-03 0. -1.
        -11    1    3    3    0    0  0.25319837090E+01 -0.80038513917E+01  0.43758642644E+01  0.94668245428E+01  0.51100000000E-03 0.  1.
        -12    1    3    3    0    0 -0.97779813233E+01  0.31370868792E+02  0.25639054802E+02  0.41678549143E+02  0.00000000000E+00 0.  1.
</event>
<event>
 7    1  0.4195243E-015  0.9000772E+02  0.7816164E-02  0.1186339E+00
        -11   -1    0    0    0    0  0.00000000000E+00  0.00000000000E+00  0.45593999997E+02  0.45594000000E+02  0.51100000000E-03 0.  1.
         11   -1    0    0    0    0 -0.00000000000E+00 -0.00000000000E+00 -0.45593999997E+02  0.45594000000E+02  0.51100000000E-03 0. -1.
    9900012    2    1    2    0    0  0.49353268004E+00 -0.10273573842E+01 -0.30664560598E+00  0.90007716463E+02  0.89999977520E+02 0.  0.
        -12    1    1    2    0    0 -0.49353268004E+00  0.10273573842E+01  0.30664560598E+00  0.11802835374E+01  0.00000000000E+00 0.  1.
         11    1    3    3    0    0 -0.34098492220E+01 -0.63039212491E+01 -0.53698728592E+01  0.89555585877E+01  0.51100000000E-03 0. -1.
        -11    1    3    3    0    0 -0.19334415154E+02 -0.20810103398E+02 -0.22753275347E+02  0.36394938550E+02  0.51100000000E-03 0.  1.
         12    1    3    3    0    0  0.23237797056E+02  0.26086667263E+02  0.27816502600E+02  0.44657219325E+02  0.00000000000E+00 0. -1.
</event>
<event>
 7    1  0.4195243E-015  0.9000779E+02  0.7816164E-02  0.1186339E+00
        -11   -1    0    0    0    0  0.00000000000E+00  0.00000000000E+00  0.45593999997E+02  0.45594000000E+02  0.51100000000E-03 0.  1.
         11   -1    0    0    0    0 -0.00000000000E+00 -0.00000000000E+00 -0.45593999997E+02  0.45594000000E+02  0.51100000000E-03 0. -1.
    9900012    2    1    2    0    0  0.61482495396E+00 -0.52099062425E+00 -0.86223919067E+00  0.90007789266E+02  0.90000051284E+02 0.  0.
        -12    1    1    2    0    0 -0.61482495396E+00  0.52099062425E+00  0.86223919067E+00  0.11802107339E+01  0.00000000000E+00 0.  1.
         11    1    3    3    0    0 -0.20946518941E+01  0.45204523692E+01  0.25391296263E+02  0.25875470669E+02  0.51100000000E-03 0. -1.
        -11    1    3    3    0    0 -0.53475420312E+01  0.73846866284E+01  0.16519186460E+02  0.18868315344E+02  0.51100000000E-03 0.  1.
         12    1    3    3    0    0  0.80570188793E+01 -0.12426129622E+02 -0.42772721913E+02  0.45264003253E+02  0.00000000000E+00 0. -1.
</event>
<event>
 7    1  0.4195243E-015  0.9000773E+02  0.7816164E-02  0.1186339E+00
        -11   -1    0    0    0    0  0.00000000000E+00  0.00000000000E+00  0.45593999997E+02  0.45594000000E+02  0.51100000000E-03 0. -1.
         11   -1    0    0    0    0 -0.00000000000E+00 -0.00000000000E+00 -0.45593999997E+02  0.45594000000E+02  0.51100000000E-03 0.  1.
    9900012    2    1    2    0    0 -0.33719535238E-01  0.11408242782E+01  0.30071010381E+00  0.90007727317E+02  0.89999988517E+02 0.  0.
        -12    1    1    2    0    0  0.33719535238E-01 -0.11408242782E+01 -0.30071010381E+00  0.11802726834E+01  0.00000000000E+00 0.  1.
         11    1    3    3    0    0  0.21972947421E+02  0.88358259979E+01  0.33321914673E+02  0.40880707396E+02  0.51100000000E-03 0. -1.
        -11    1    3    3    0    0 -0.92890314170E+01  0.76598268945E+00  0.31695539378E+01  0.98447400460E+01  0.51100000000E-03 0.  1.
        -12    1    3    3    0    0 -0.12717635539E+02 -0.84609844092E+01 -0.36190758507E+02  0.39282279875E+02  0.00000000000E+00 0.  1.
</event>
<event>
 7    1  0.4195243E-015  0.9000784E+02  0.7816164E-02  0.1186339E+00
        -11   -1    0    0    0    0  0.00000000000E+00  0.00000000000E+00  0.45593999997E+02  0.45594000000E+02  0.51100000000E-03 0. -1.
         11   -1    0    0    0    0 -0.00000000000E+00 -0.00000000000E+00 -0.45593999997E+02  0.45594000000E+02  0.51100000000E-03 0.  1.
    9900012    2    1    2    0    0  0.18007941455E+00  0.83758080258E+00  0.81167421218E+00  0.90007836781E+02  0.90000099427E+02 0.  0.
        -12    1    1    2    0    0 -0.18007941455E+00 -0.83758080258E+00 -0.81167421218E+00  0.11801632188E+01  0.00000000000E+00 0.  1.
         11    1    3    3    0    0  0.98421643897E+01  0.71478847779E-01 -0.26925740314E+01  0.10204080766E+02  0.51100000000E-03 0. -1.
        -11    1    3    3    0    0  0.28589410274E+02 -0.20533535969E+02 -0.38479795308E+01  0.35408860839E+02  0.51100000000E-03 0.  1.
         12    1    3    3    0    0 -0.38251495249E+02  0.21299637924E+02  0.73522277744E+01  0.44394895176E+02  0.00000000000E+00 0. -1.
</event>
<event>
 7    1  0.5586342E-015  0.9000771E+02  0.7816164E-02  0.1186339E+00
        -11   -1    0    0    0    0  0.00000000000E+00  0.00000000000E+00  0.45593999997E+02  0.45594000000E+02  0.51100000000E-03 0.  1.
         11   -1    0    0    0    0 -0.00000000000E+00 -0.00000000000E+00 -0.45593999997E+02  0.45594000000E+02  0.51100000000E-03 0. -1.
    9900012    2    1    2    0    0  0.92753089557E+00  0.39901598376E+00 -0.61120213113E+00  0.90007705392E+02  0.89999966303E+02 0.  0.
        -12    1    1    2    0    0 -0.92753089557E+00 -0.39901598376E+00  0.61120213113E+00  0.11802946084E+01  0.00000000000E+00 0.  1.
         11    1    3    3    0    0  0.12620232133E+02 -0.29335305337E+02 -0.22560157209E+02  0.39099758207E+02  0.51100000000E-03 0. -1.
        -11    1    3    3    0    0 -0.28728229875E+01 -0.72524135983E+01  0.50888929118E+01  0.93138309115E+01  0.51100000000E-03 0.  1.
        -12    1    3    3    0    0 -0.88198782498E+01  0.36986734919E+02  0.16860062166E+02  0.41594116273E+02  0.00000000000E+00 0.  1.
</event>
<event>
 7    1  0.4195243E-015  0.9000785E+02  0.7816164E-02  0.1186339E+00
        -11   -1    0    0    0    0  0.00000000000E+00  0.00000000000E+00  0.45593999997E+02  0.45594000000E+02  0.51100000000E-03 0. -1.
         11   -1    0    0    0    0 -0.00000000000E+00 -0.00000000000E+00 -0.45593999997E+02  0.45594000000E+02  0.51100000000E-03 0.  1.
    9900012    2    1    2    0    0  0.52017904231E+00  0.32968523533E+00  0.10067181722E+01  0.90007847438E+02  0.90000110224E+02 0.  0.
        -12    1    1    2    0    0 -0.52017904231E+00 -0.32968523533E+00 -0.10067181722E+01  0.11801525617E+01  0.00000000000E+00 0.  1.
         11    1    3    3    0    0 -0.32148137140E+01 -0.37159472640E+01 -0.49515119573E+01  0.69757266438E+01  0.51100000000E-03 0. -1.
        -11    1    3    3    0    0 -0.28697150288E+02 -0.24797261920E+02 -0.50346671165E+01  0.38259358419E+02  0.51100000000E-03 0.  1.
         12    1    3    3    0    0  0.32432143044E+02  0.28842894419E+02  0.10992897246E+02  0.44772762376E+02  0.00000000000E+00 0. -1.
</event>
<event>
 7    1  0.4195243E-015  0.9000774E+02  0.7816164E-02  0.1186339E+00
        -11   -1    0    0    0    0  0.00000000000E+00  0.00000000000E+00  0.45593999997E+02  0.45594000000E+02  0.51100000000E-03 0. -1.
         11   -1    0    0    0    0 -0.00000000000E+00 -0.00000000000E+00 -0.45593999997E+02  0.45594000000E+02  0.51100000000E-03 0.  1.
    9900012    2    1    2    0    0  0.10754080720E+01 -0.47707008087E+00 -0.94418751083E-01  0.90007740163E+02  0.90000001533E+02 0.  0.
        -12    1    1    2    0    0 -0.10754080720E+01  0.47707008087E+00  0.94418751083E-01  0.11802598375E+01  0.00000000000E+00 0.  1.
         11    1    3    3    0    0  0.87709266884E+01 -0.13071412976E+01 -0.52453101035E+01  0.10302963248E+02  0.51100000000E-03 0. -1.
        -11    1    3    3    0    0 -0.18840045445E+01 -0.21180377451E+02 -0.30635118046E+02  0.37291665557E+02  0.51100000000E-03 0.  1.
         12    1    3    3    0    0 -0.58115140719E+01  0.22010448668E+02  0.35786009398E+02  0.42413111357E+02  0.00000000000E+00 0. -1.
</event>
<event>
 7    1  0.4195243E-015  0.9000769E+02  0.7816164E-02  0.1186339E+00
        -11   -1    0    0    0    0  0.00000000000E+00  0.00000000000E+00  0.45593999997E+02  0.45594000000E+02  0.51100000000E-03 0. -1.
         11   -1    0    0    0    0 -0.00000000000E+00 -0.00000000000E+00 -0.45593999997E+02  0.45594000000E+02  0.51100000000E-03 0.  1.
    9900012    2    1    2    0    0 -0.44597064888E+00 -0.96666890956E+00  0.50969164670E+00  0.90007693186E+02  0.89999953936E+02 0.  0.
        -12    1    1    2    0    0  0.44597064888E+00  0.96666890956E+00 -0.50969164670E+00  0.11803068140E+01  0.00000000000E+00 0.  1.
         11    1    3    3    0    0 -0.11304622792E+01  0.73474924415E+01  0.52463045971E+01  0.90987527897E+01  0.51100000000E-03 0. -1.
        -11    1    3    3    0    0 -0.34414704680E+02 -0.14129616562E+02 -0.19951184853E+02  0.42214544173E+02  0.51100000000E-03 0.  1.
         12    1    3    3    0    0  0.35099196310E+02  0.58154552108E+01  0.15214571903E+02  0.38694396224E+02  0.00000000000E+00 0. -1.
</event>
<event>
 7    1  0.4195243E-015  0.9000770E+02  0.7816164E-02  0.1186339E+00
        -11   -1    0    0    0    0  0.00000000000E+00  0.00000000000E+00  0.45593999997E+02  0.45594000000E+02  0.51100000000E-03 0.  1.
         11   -1    0    0    0    0 -0.00000000000E+00 -0.00000000000E+00 -0.45593999997E+02  0.45594000000E+02  0.51100000000E-03 0. -1.
    9900012    2    1    2    0    0 -0.85297496425E+00 -0.13590127145E-01 -0.81568888933E+00  0.90007703704E+02  0.89999964593E+02 0.  0.
        -12    1    1    2    0    0  0.85297496425E+00  0.13590127145E-01  0.81568888933E+00  0.11802962956E+01  0.00000000000E+00 0.  1.
         11    1    3    3    0    0 -0.81092402248E+01 -0.25561628397E+01  0.47517800516E+01  0.97402853863E+01  0.51100000000E-03 0. -1.
        -11    1    3    3    0    0 -0.24935385316E+02  0.25892450088E+02  0.10387655938E+02  0.37417854141E+02  0.51100000000E-03 0.  1.
         12    1    3    3    0    0  0.32191650576E+02 -0.23349877375E+02 -0.15955124879E+02  0.42849564177E+02  0.00000000000E+00 0. -1.
</event>
<event>
 7    1  0.4195243E-015  0.9000745E+02  0.7816164E-02  0.1186340E+00
        -11   -1    0    0    0    0  0.00000000000E+00  0.00000000000E+00  0.45593999997E+02  0.45594000000E+02  0.51100000000E-03 0. -1.
         11   -1    0    0    0    0 -0.00000000000E+00 -0.00000000000E+00 -0.45593999997E+02  0.45594000000E+02  0.51100000000E-03 0.  1.
    9900012    2    1    2    0    0  0.10976470822E+01  0.24899932853E+00  0.35617090312E+00  0.90007454577E+02  0.89999712177E+02 0.  0.
        -12    1    1    2    0    0 -0.10976470822E+01 -0.24899932853E+00 -0.35617090312E+00  0.11805454226E+01  0.00000000000E+00 0.  1.
         11    1    3    3    0    0  0.20485170462E+02 -0.15103073807E+02  0.16126417911E+02  0.30129825791E+02  0.51100000000E-03 0. -1.
        -11    1    3    3    0    0  0.70845471584E+01  0.11511303339E+02  0.14269081151E+02  0.19654709109E+02  0.51100000000E-03 0.  1.
        -12    1    3    3    0    0 -0.26472070538E+02  0.38407697965E+01 -0.30039328159E+02  0.40222919678E+02  0.00000000000E+00 0.  1.
</event>
<event>
 7    1  0.4195243E-015  0.9000764E+02  0.7816164E-02  0.1186339E+00
        -11   -1    0    0    0    0  0.00000000000E+00  0.00000000000E+00  0.45593999997E+02  0.45594000000E+02  0.51100000000E-03 0. -1.
         11   -1    0    0    0    0 -0.00000000000E+00 -0.00000000000E+00 -0.45593999997E+02  0.45594000000E+02  0.51100000000E-03 0.  1.
    9900012    2    1    2    0    0 -0.10948417306E+01 -0.19645340700E+00 -0.39492640681E+00  0.90007644451E+02  0.89999904557E+02 0.  0.
        -12    1    1    2    0    0  0.10948417306E+01  0.19645340700E+00  0.39492640681E+00  0.11803555494E+01  0.00000000000E+00 0.  1.
         11    1    3    3    0    0  0.35373412140E+02 -0.36745450580E+00  0.71185822004E+00  0.35382482271E+02  0.51100000000E-03 0. -1.
        -11    1    3    3    0    0  0.89861572905E+01 -0.10687052067E+01 -0.13731379336E+01  0.91530684317E+01  0.51100000000E-03 0.  1.
        -12    1    3    3    0    0 -0.45454411161E+02  0.12397063055E+01  0.26635330677E+00  0.45472093748E+02  0.00000000000E+00 0.  1.
</event>
<event>
 7    1  0.4195243E-015  0.9000790E+02  0.7816164E-02  0.1186339E+00
        -11   -1    0    0    0    0  0.00000000000E+00  0.00000000000E+00  0.45593999997E+02  0.45594000000E+02  0.51100000000E-03 0.  1.
         11   -1    0    0    0    0 -0.00000000000E+00 -0.00000000000E+00 -0.45593999997E+02  0.45594000000E+02  0.51100000000E-03 0. -1.
    9900012    2    1    2    0    0 -0.74012592219E+00 -0.32285779017E-01 -0.91859531367E+00  0.90007895724E+02  0.90000159147E+02 0.  0.
        -12    1    1    2    0    0  0.74012592219E+00  0.32285779017E-01  0.91859531367E+00  0.11801042761E+01  0.00000000000E+00 0.  1.
         11    1    3    3    0    0 -0.92602893944E-01 -0.60031001900E+01  0.46296977011E+01  0.75815491987E+01  0.51100000000E-03 0. -1.
        -11    1    3    3    0    0 -0.13893801247E+02 -0.33919945909E+02  0.93546223173E+01  0.37830006642E+02  0.51100000000E-03 0.  1.
         12    1    3    3    0    0  0.13246278218E+02  0.39890760320E+02 -0.14902915332E+02  0.44596339883E+02  0.00000000000E+00 0. -1.
</event>
<event>
 7    1  0.4195243E-015  0.9000774E+02  0.7816164E-02  0.1186339E+00
        -11   -1    0    0    0    0  0.00000000000E+00  0.00000000000E+00  0.45593999997E+02  0.45594000000E+02  0.51100000000E-03 0.  1.
         11   -1    0    0    0    0 -0.00000000000E+00 -0.00000000000E+00 -0.45593999997E+02  0.45594000000E+02  0.51100000000E-03 0. -1.
    9900012    2    1    2    0    0  0.58655840646E+00  0.85224599430E+00  0.56801793936E+00  0.90007738004E+02  0.89999999346E+02 0.  0.
        -12    1    1    2    0    0 -0.58655840646E+00 -0.85224599430E+00 -0.56801793936E+00  0.11802619957E+01  0.00000000000E+00 0.  1.
         11    1    3    3    0    0  0.75159311833E+01  0.31419183202E+02 -0.19189578732E+02  0.37575180995E+02  0.51100000000E-03 0. -1.
        -11    1    3    3    0    0  0.14887462376E+01  0.78904883339E+01 -0.71146057891E+00  0.80611629387E+01  0.51100000000E-03 0.  1.
        -12    1    3    3    0    0 -0.84181190145E+01 -0.38457425542E+02  0.20469057250E+02  0.44371394070E+02  0.00000000000E+00 0.  1.
</event>
<event>
 7    1  0.4195243E-015  0.9000763E+02  0.7816164E-02  0.1186339E+00
        -11   -1    0    0    0    0  0.00000000000E+00  0.00000000000E+00  0.45593999997E+02  0.45594000000E+02  0.51100000000E-03 0.  1.
         11   -1    0    0    0    0 -0.00000000000E+00 -0.00000000000E+00 -0.45593999997E+02  0.45594000000E+02  0.51100000000E-03 0. -1.
    9900012    2    1    2    0    0 -0.10359279255E+01  0.10883088528E-01 -0.56570012190E+00  0.90007626442E+02  0.89999886311E+02 0.  0.
        -12    1    1    2    0    0  0.10359279255E+01 -0.10883088528E-01  0.56570012190E+00  0.11803735580E+01  0.00000000000E+00 0.  1.
         11    1    3    3    0    0  0.28693319819E+02  0.20438455591E+02  0.19543064112E+01  0.35282522345E+02  0.51100000000E-03 0. -1.
        -11    1    3    3    0    0  0.70834899882E+01  0.43112468388E+01  0.50814900718E+01  0.97254419606E+01  0.51100000000E-03 0.  1.
        -12    1    3    3    0    0 -0.36812737733E+02 -0.24738819341E+02 -0.76014966050E+01  0.44999662137E+02  0.00000000000E+00 0.  1.
</event>
<event>
 7    1  0.4195243E-015  0.9000775E+02  0.7816164E-02  0.1186339E+00
        -11   -1    0    0    0    0  0.00000000000E+00  0.00000000000E+00  0.45593999997E+02  0.45594000000E+02  0.51100000000E-03 0.  1.
         11   -1    0    0    0    0 -0.00000000000E+00 -0.00000000000E+00 -0.45593999997E+02  0.45594000000E+02  0.51100000000E-03 0. -1.
    9900012    2    1    2    0    0  0.10083856614E+01 -0.46300611915E-01 -0.61155401133E+00  0.90007752696E+02  0.90000014232E+02 0.  0.
        -12    1    1    2    0    0 -0.10083856614E+01  0.46300611915E-01  0.61155401133E+00  0.11802473036E+01  0.00000000000E+00 0.  1.
         11    1    3    3    0    0 -0.52588575135E+01 -0.22724274391E+01  0.76281173920E+01  0.95397947578E+01  0.51100000000E-03 0. -1.
        -11    1    3    3    0    0  0.29078045378E+02  0.19374026304E+02 -0.28812171039E+02  0.45288263584E+02  0.51100000000E-03 0.  1.
         12    1    3    3    0    0 -0.22810802203E+02 -0.17147899477E+02  0.20572499635E+02  0.35179694354E+02  0.00000000000E+00 0. -1.
</event>
<event>
 7    1  0.4195243E-015  0.9000761E+02  0.7816164E-02  0.1186339E+00
        -11   -1    0    0    0    0  0.00000000000E+00  0.00000000000E+00  0.45593999997E+02  0.45594000000E+02  0.51100000000E-03 0. -1.
         11   -1    0    0    0    0 -0.00000000000E+00 -0.00000000000E+00 -0.45593999997E+02  0.45594000000E+02  0.51100000000E-03 0.  1.
    9900012    2    1    2    0    0  0.27478136060E+00 -0.10759854530E+01 -0.40008167440E+00  0.90007612421E+02  0.89999872105E+02 0.  0.
        -12    1    1    2    0    0 -0.27478136060E+00  0.10759854530E+01  0.40008167440E+00  0.11803875793E+01  0.00000000000E+00 0.  1.
         11    1    3    3    0    0 -0.22919560510E+01 -0.29320599186E+01  0.78825015299E+01  0.87168726351E+01  0.51100000000E-03 0. -1.
        -11    1    3    3    0    0 -0.20959408468E+02 -0.32606772147E+02 -0.79144885372E+01  0.39561818996E+02  0.51100000000E-03 0.  1.
         12    1    3    3    0    0  0.23526145879E+02  0.34462846613E+02 -0.36809466713E+00  0.41728920790E+02  0.00000000000E+00 0. -1.
</event>
<event>
 7    1  0.4195243E-015  0.9000773E+02  0.7816164E-02  0.1186339E+00
        -11   -1    0    0    0    0  0.00000000000E+00  0.00000000000E+00  0.45593999997E+02  0.45594000000E+02  0.51100000000E-03 0. -1.
         11   -1    0    0    0    0 -0.00000000000E+00 -0.00000000000E+00 -0.45593999997E+02  0.45594000000E+02  0.51100000000E-03 0.  1.
    9900012    2    1    2    0    0  0.14406631735E-01 -0.19859804780E+00  0.11633487419E+01  0.90007733492E+02  0.89999994774E+02 0.  0.
        -12    1    1    2    0    0 -0.14406631735E-01  0.19859804780E+00 -0.11633487419E+01  0.11802665084E+01  0.00000000000E+00 0.  1.
         11    1    3    3    0    0  0.18190065246E+01  0.25575096891E+01 -0.49167434071E+01  0.58330100754E+01  0.51100000000E-03 0. -1.
        -11    1    3    3    0    0  0.25675100709E+01  0.10869089693E+02 -0.37068966273E+02  0.38714822479E+02  0.51100000000E-03 0.  1.
         12    1    3    3    0    0 -0.43721099638E+01 -0.13625197430E+02  0.43149058422E+02  0.45459900938E+02  0.00000000000E+00 0. -1.
</event>
<event>
 7    1  0.4195243E-015  0.9000878E+02  0.7816164E-02  0.1186337E+00
        -11   -1    0    0    0    0  0.00000000000E+00  0.00000000000E+00  0.45593999997E+02  0.45594000000E+02  0.51100000000E-03 0.  1.
         11   -1    0    0    0    0 -0.00000000000E+00 -0.00000000000E+00 -0.45593999997E+02  0.45594000000E+02  0.51100000000E-03 0. -1.
    9900012    2    1    2    0    0  0.22988706925E+00  0.11058198694E+01  0.33893581836E+00  0.90008778589E+02  0.90001053660E+02 0.  0.
        -12    1    1    2    0    0 -0.22988706925E+00 -0.11058198694E+01 -0.33893581836E+00  0.11792214115E+01  0.00000000000E+00 0.  1.
         11    1    3    3    0    0 -0.33257132148E+01  0.21441623517E+02 -0.33423775674E+02  0.39849120040E+02  0.51100000000E-03 0. -1.
        -11    1    3    3    0    0 -0.40682354065E+01 -0.83812830816E+01 -0.37606724665E+01  0.10046845429E+02  0.51100000000E-03 0.  1.
        -12    1    3    3    0    0  0.76238356905E+01 -0.11954520566E+02  0.37523383959E+02  0.40112813119E+02  0.00000000000E+00 0.  1.
</event>
<event>
 7    1  0.4195243E-015  0.9000779E+02  0.7816164E-02  0.1186339E+00
        -11   -1    0    0    0    0  0.00000000000E+00  0.00000000000E+00  0.45593999997E+02  0.45594000000E+02  0.51100000000E-03 0.  1.
         11   -1    0    0    0    0 -0.00000000000E+00 -0.00000000000E+00 -0.45593999997E+02  0.45594000000E+02  0.51100000000E-03 0. -1.
    9900012    2    1    2    0    0  0.92150084537E+00 -0.62701650445E+00 -0.38803908876E+00  0.90007793307E+02  0.90000055378E+02 0.  0.
        -12    1    1    2    0    0 -0.92150084537E+00  0.62701650445E+00  0.38803908876E+00  0.11802066935E+01  0.00000000000E+00 0.  1.
         11    1    3    3    0    0  0.32428178715E+02 -0.14991172223E+02  0.18684761713E+02  0.40316774920E+02  0.51100000000E-03 0. -1.
        -11    1    3    3    0    0 -0.29336342363E+01  0.71460309580E+01  0.69383266265E+01  0.10383272361E+02  0.51100000000E-03 0.  1.
        -12    1    3    3    0    0 -0.28573043634E+02  0.72181247610E+01 -0.26011127428E+02  0.39307746026E+02  0.00000000000E+00 0.  1.
</event>
<event>
 7    1  0.4195243E-015  0.9000784E+02  0.7816164E-02  0.1186339E+00
        -11   -1    0    0    0    0  0.00000000000E+00  0.00000000000E+00  0.45593999997E+02  0.45594000000E+02  0.51100000000E-03 0.  1.
         11   -1    0    0    0    0 -0.00000000000E+00 -0.00000000000E+00 -0.45593999997E+02  0.45594000000E+02  0.51100000000E-03 0. -1.
    9900012    2    1    2    0    0 -0.20132518672E+00  0.61962036362E+00 -0.98403213414E+00  0.90007838796E+02  0.90000101468E+02 0.  0.
        -12    1    1    2    0    0  0.20132518672E+00 -0.61962036362E+00  0.98403213414E+00  0.11801612037E+01  0.00000000000E+00 0.  1.
         11    1    3    3    0    0  0.14704573878E+02 -0.23802112406E+01 -0.33566915459E+02  0.36723666922E+02  0.51100000000E-03 0. -1.
        -11    1    3    3    0    0  0.34846277617E+01 -0.27223420346E+01 -0.75609524507E+01  0.87590969291E+01  0.51100000000E-03 0.  1.
        -12    1    3    3    0    0 -0.18390526826E+02  0.57221736388E+01  0.40143835776E+02  0.44525074945E+02  0.00000000000E+00 0.  1.
</event>
<event>
 7    1  0.4195243E-015  0.9000770E+02  0.7816164E-02  0.1186339E+00
        -11   -1    0    0    0    0  0.00000000000E+00  0.00000000000E+00  0.45593999997E+02  0.45594000000E+02  0.51100000000E-03 0.  1.
         11   -1    0    0    0    0 -0.00000000000E+00 -0.00000000000E+00 -0.45593999997E+02  0.45594000000E+02  0.51100000000E-03 0. -1.
    9900012    2    1    2    0    0 -0.47446748856E+00  0.10405460161E+01 -0.29199311231E+00  0.90007696909E+02  0.89999957708E+02 0.  0.
        -12    1    1    2    0    0  0.47446748856E+00 -0.10405460161E+01  0.29199311231E+00  0.11803030911E+01  0.00000000000E+00 0.  1.
         11    1    3    3    0    0 -0.55538498817E+01  0.36327853819E+02 -0.62012585943E+01  0.37269475714E+02  0.51100000000E-03 0. -1.
        -11    1    3    3    0    0 -0.92981875810E+01  0.43308624694E+01  0.95449438354E+00  0.10301636851E+02  0.51100000000E-03 0.  1.
        -12    1    3    3    0    0  0.14377569974E+02 -0.39618170272E+02  0.49547710984E+01  0.42436584343E+02  0.00000000000E+00 0.  1.
</event>
<event>
 7    1  0.4195243E-015  0.9000773E+02  0.7816164E-02  0.1186339E+00
        -11   -1    0    0    0    0  0.00000000000E+00  0.00000000000E+00  0.45593999997E+02  0.45594000000E+02  0.51100000000E-03 0.  1.
         11   -1    0    0    0    0 -0.00000000000E+00 -0.00000000000E+00 -0.45593999997E+02  0.45594000000E+02  0.51100000000E-03 0. -1.
    9900012    2    1    2    0    0  0.94481481102E+00  0.66873946328E+00 -0.23055774914E+00  0.90007726992E+02  0.89999988189E+02 0.  0.
        -12    1    1    2    0    0 -0.94481481102E+00 -0.66873946328E+00  0.23055774914E+00  0.11802730076E+01  0.00000000000E+00 0.  1.
         11    1    3    3    0    0 -0.21988074987E+02 -0.12631339984E+02  0.23255632340E+02  0.34407130470E+02  0.51100000000E-03 0. -1.
        -11    1    3    3    0    0 -0.68820395380E+01 -0.25855893597E+01  0.69591327667E+01  0.10123105732E+02  0.51100000000E-03 0.  1.
        -12    1    3    3    0    0  0.29814929336E+02  0.15885668807E+02 -0.30445322856E+02  0.45477490790E+02  0.00000000000E+00 0.  1.
</event>
<event>
 7    1  0.4195243E-015  0.9000781E+02  0.7816164E-02  0.1186339E+00
        -11   -1    0    0    0    0  0.00000000000E+00  0.00000000000E+00  0.45593999997E+02  0.45594000000E+02  0.51100000000E-03 0.  1.
         11   -1    0    0    0    0 -0.00000000000E+00 -0.00000000000E+00 -0.45593999997E+02  0.45594000000E+02  0.51100000000E-03 0. -1.
    9900012    2    1    2    0    0 -0.72127464551E+00 -0.85272157302E+00 -0.38140179805E+00  0.90007814198E+02  0.90000076546E+02 0.  0.
        -12    1    1    2    0    0  0.72127464551E+00  0.85272157302E+00  0.38140179805E+00  0.11801858019E+01  0.00000000000E+00 0.  1.
         11    1    3    3    0    0  0.63662265626E+01  0.80750111468E+00 -0.52631909322E+01  0.82995227421E+01  0.51100000000E-03 0. -1.
        -11    1    3    3    0    0 -0.38303410466E+02  0.20258789475E+02  0.44953756257E+01  0.43563496262E+02  0.51100000000E-03 0.  1.
         12    1    3    3    0    0  0.31215909258E+02 -0.21919012163E+02  0.38641350853E+00  0.38144795194E+02  0.00000000000E+00 0. -1.
</event>
<event>
 7    1  0.4195243E-015  0.9000779E+02  0.7816164E-02  0.1186339E+00
        -11   -1    0    0    0    0  0.00000000000E+00  0.00000000000E+00  0.45593999997E+02  0.45594000000E+02  0.51100000000E-03 0.  1.
         11   -1    0    0    0    0 -0.00000000000E+00 -0.00000000000E+00 -0.45593999997E+02  0.45594000000E+02  0.51100000000E-03 0. -1.
    9900012    2    1    2    0    0 -0.16371879615E+00 -0.37288648500E+00 -0.11077173137E+01  0.90007794161E+02  0.90000056244E+02 0.  0.
        -12    1    1    2    0    0  0.16371879615E+00  0.37288648500E+00  0.11077173137E+01  0.11802058388E+01  0.00000000000E+00 0.  1.
         11    1    3    3    0    0 -0.16822734430E+02 -0.31206373984E+02  0.17348904162E+01  0.35494394149E+02  0.51100000000E-03 0. -1.
        -11    1    3    3    0    0  0.48106304591E-01 -0.10150697809E+02  0.51336954736E+00  0.10163785160E+02  0.51100000000E-03 0.  1.
        -12    1    3    3    0    0  0.16610909330E+02  0.40984185308E+02 -0.33559772773E+01  0.44349614853E+02  0.00000000000E+00 0.  1.
</event>
<event>
 7    1  0.4195243E-015  0.9000774E+02  0.7816164E-02  0.1186339E+00
        -11   -1    0    0    0    0  0.00000000000E+00  0.00000000000E+00  0.45593999997E+02  0.45594000000E+02  0.51100000000E-03 0.  1.
         11   -1    0    0    0    0 -0.00000000000E+00 -0.00000000000E+00 -0.45593999997E+02  0.45594000000E+02  0.51100000000E-03 0. -1.
    9900012    2    1    2    0    0  0.41534033416E+00  0.97010218081E+00 -0.52858419659E+00  0.90007742788E+02  0.90000004192E+02 0.  0.
        -12    1    1    2    0    0 -0.41534033416E+00 -0.97010218081E+00  0.52858419659E+00  0.11802572123E+01  0.00000000000E+00 0.  1.
         11    1    3    3    0    0 -0.18825020305E+02  0.75460017194E+01 -0.26244860154E+02  0.33167999882E+02  0.51100000000E-03 0. -1.
        -11    1    3    3    0    0 -0.95513577659E+01  0.60681697841E+01 -0.54551922136E+01  0.12562254656E+02  0.51100000000E-03 0.  1.
        -12    1    3    3    0    0  0.28791718405E+02 -0.12644069323E+02  0.31171468171E+02  0.44277488249E+02  0.00000000000E+00 0.  1.
</event>
<event>
 7    1  0.4195243E-015  0.9000770E+02  0.7816164E-02  0.1186339E+00
        -11   -1    0    0    0    0  0.00000000000E+00  0.00000000000E+00  0.45593999997E+02  0.45594000000E+02  0.51100000000E-03 0.  1.
         11   -1    0    0    0    0 -0.00000000000E+00 -0.00000000000E+00 -0.45593999997E+02  0.45594000000E+02  0.51100000000E-03 0. -1.
    9900012    2    1    2    0    0 -0.54754572245E+00 -0.98533569899E+00 -0.34989294616E+00  0.90007695873E+02  0.89999956659E+02 0.  0.
        -12    1    1    2    0    0  0.54754572245E+00  0.98533569899E+00  0.34989294616E+00  0.11803041268E+01  0.00000000000E+00 0.  1.
         11    1    3    3    0    0  0.62821679311E+01  0.37847417884E+01 -0.31938711333E+02  0.32769973851E+02  0.51100000000E-03 0. -1.
        -11    1    3    3    0    0  0.67546166779E+01 -0.11146276708E+02 -0.77296198673E+01  0.15152932207E+02  0.51100000000E-03 0.  1.
        -12    1    3    3    0    0 -0.13584330332E+02  0.63761992211E+01  0.39318438254E+02  0.42084789815E+02  0.00000000000E+00 0.  1.
</event>
<event>
 7    1  0.4195243E-015  0.9000781E+02  0.7816164E-02  0.1186339E+00
        -11   -1    0    0    0    0  0.00000000000E+00  0.00000000000E+00  0.45593999997E+02  0.45594000000E+02  0.51100000000E-03 0.  1.
         11   -1    0    0    0    0 -0.00000000000E+00 -0.00000000000E+00 -0.45593999997E+02  0.45594000000E+02  0.51100000000E-03 0. -1.
    9900012    2    1    2    0    0 -0.68973728939E+00  0.82273045362E+00 -0.49012787366E+00  0.90007810075E+02  0.90000072367E+02 0.  0.
        -12    1    1    2    0    0  0.68973728939E+00 -0.82273045362E+00  0.49012787366E+00  0.11801899255E+01  0.00000000000E+00 0.  1.
         11    1    3    3    0    0 -0.28096373091E+02 -0.19918154374E+02 -0.11596434183E+02  0.36340285367E+02  0.51100000000E-03 0. -1.
        -11    1    3    3    0    0  0.44964199004E+01  0.64104520378E+01 -0.14474747278E+02  0.16456913328E+02  0.51100000000E-03 0.  1.
        -12    1    3    3    0    0  0.22910215901E+02  0.14330432790E+02  0.25581053587E+02  0.37210611380E+02  0.00000000000E+00 0.  1.
</event>
<event>
 7    1  0.4195243E-015  0.9000778E+02  0.7816164E-02  0.1186339E+00
        -11   -1    0    0    0    0  0.00000000000E+00  0.00000000000E+00  0.45593999997E+02  0.45594000000E+02  0.51100000000E-03 0. -1.
         11   -1    0    0    0    0 -0.00000000000E+00 -0.00000000000E+00 -0.45593999997E+02  0.45594000000E+02  0.51100000000E-03 0.  1.
    9900012    2    1    2    0    0  0.49162762766E+00 -0.79381396642E+00  0.72185692270E+00  0.90007781480E+02  0.90000043396E+02 0.  0.
        -12    1    1    2    0    0 -0.49162762766E+00  0.79381396642E+00 -0.72185692270E+00  0.11802185198E+01  0.00000000000E+00 0.  1.
         11    1    3    3    0    0  0.11054787397E+02 -0.29097723488E+02  0.70878461003E+01  0.31923712177E+02  0.51100000000E-03 0. -1.
        -11    1    3    3    0    0  0.13887846929E+02 -0.54348947980E+01 -0.68561899990E+01  0.16413948805E+02  0.51100000000E-03 0.  1.
        -12    1    3    3    0    0 -0.24451006698E+02  0.33738804320E+02  0.49020082145E+00  0.41670120498E+02  0.00000000000E+00 0.  1.
</event>
<event>
 7    1  0.4195243E-015  0.9000763E+02  0.7816164E-02  0.1186339E+00
        -11   -1    0    0    0    0  0.00000000000E+00  0.00000000000E+00  0.45593999997E+02  0.45594000000E+02  0.51100000000E-03 0.  1.
         11   -1    0    0    0    0 -0.00000000000E+00 -0.00000000000E+00 -0.45593999997E+02  0.45594000000E+02  0.51100000000E-03 0. -1.
    9900012    2    1    2    0    0  0.10687878064E+01  0.43743096134E+00 -0.24419374663E+00  0.90007625565E+02  0.89999885422E+02 0.  0.
        -12    1    1    2    0    0 -0.10687878064E+01 -0.43743096134E+00  0.24419374663E+00  0.11803744350E+01  0.00000000000E+00 0.  1.
         11    1    3    3    0    0 -0.84524078921E+01 -0.17773216192E+01 -0.15521846961E+01  0.87756110275E+01  0.51100000000E-03 0. -1.
        -11    1    3    3    0    0  0.33312362788E+02  0.20256278215E+02 -0.20697433199E+02  0.44140843477E+02  0.51100000000E-03 0.  1.
         12    1    3    3    0    0 -0.23791167089E+02 -0.18041525635E+02  0.22005424148E+02  0.37091171060E+02  0.00000000000E+00 0. -1.
</event>
<event>
 7    1  0.4195243E-015  0.9000773E+02  0.7816164E-02  0.1186339E+00
        -11   -1    0    0    0    0  0.00000000000E+00  0.00000000000E+00  0.45593999997E+02  0.45594000000E+02  0.51100000000E-03 0.  1.
         11   -1    0    0    0    0 -0.00000000000E+00 -0.00000000000E+00 -0.45593999997E+02  0.45594000000E+02  0.51100000000E-03 0. -1.
    9900012    2    1    2    0    0  0.57128479540E+00 -0.10276567825E+01 -0.10294459954E+00  0.90007727840E+02  0.89999989048E+02 0.  0.
        -12    1    1    2    0    0 -0.57128479540E+00  0.10276567825E+01  0.10294459954E+00  0.11802721596E+01  0.00000000000E+00 0.  1.
         11    1    3    3    0    0  0.79762340262E+01 -0.22699934084E+01 -0.36754107310E+02  0.37678078291E+02  0.51100000000E-03 0. -1.
        -11    1    3    3    0    0  0.96556534611E+01  0.19258016683E+01 -0.20253183364E+01  0.10051978435E+02  0.51100000000E-03 0.  1.
        -12    1    3    3    0    0 -0.17060602692E+02 -0.68346504252E+00  0.38676481047E+02  0.42277671114E+02  0.00000000000E+00 0.  1.
</event>
<event>
 7    1  0.4195243E-015  0.9000773E+02  0.7816164E-02  0.1186339E+00
        -11   -1    0    0    0    0  0.00000000000E+00  0.00000000000E+00  0.45593999997E+02  0.45594000000E+02  0.51100000000E-03 0.  1.
         11   -1    0    0    0    0 -0.00000000000E+00 -0.00000000000E+00 -0.45593999997E+02  0.45594000000E+02  0.51100000000E-03 0. -1.
    9900012    2    1    2    0    0  0.56152589816E+00 -0.82309025890E+00 -0.63265053813E+00  0.90007730704E+02  0.89999991949E+02 0.  0.
        -12    1    1    2    0    0 -0.56152589816E+00  0.82309025890E+00  0.63265053813E+00  0.11802692964E+01  0.00000000000E+00 0.  1.
         11    1    3    3    0    0 -0.41894015225E+02 -0.10849128049E+02  0.63413565812E+00  0.43280644859E+02  0.51100000000E-03 0. -1.
        -11    1    3    3    0    0  0.72870431100E+01 -0.45440566194E+01 -0.11130975989E+01  0.86595862703E+01  0.51100000000E-03 0.  1.
        -12    1    3    3    0    0  0.35168498014E+02  0.14570094410E+02 -0.15368859738E+00  0.38067499574E+02  0.00000000000E+00 0.  1.
</event>
<event>
 7    1  0.4195243E-015  0.9000781E+02  0.7816164E-02  0.1186339E+00
        -11   -1    0    0    0    0  0.00000000000E+00  0.00000000000E+00  0.45593999997E+02  0.45594000000E+02  0.51100000000E-03 0.  1.
         11   -1    0    0    0    0 -0.00000000000E+00 -0.00000000000E+00 -0.45593999997E+02  0.45594000000E+02  0.51100000000E-03 0. -1.
    9900012    2    1    2    0    0 -0.10338139716E+01 -0.50609082652E+00  0.26066342665E+00  0.90007811594E+02  0.90000073907E+02 0.  0.
        -12    1    1    2    0    0  0.10338139716E+01  0.50609082652E+00 -0.26066342665E+00  0.11801884064E+01  0.00000000000E+00 0.  1.
         11    1    3    3    0    0  0.23784394924E+02 -0.21410884676E+02 -0.14658430260E+02  0.35199332415E+02  0.51100000000E-03 0. -1.
        -11    1    3    3    0    0  0.11973440127E+01 -0.52684288807E+01 -0.92378292698E+01  0.10701750578E+02  0.51100000000E-03 0.  1.
        -12    1    3    3    0    0 -0.26015552908E+02  0.26173222730E+02  0.24156922956E+02  0.44106728601E+02  0.00000000000E+00 0.  1.
</event>
<event>
 7    1  0.4195243E-015  0.9000769E+02  0.7816164E-02  0.1186339E+00
        -11   -1    0    0    0    0  0.00000000000E+00  0.00000000000E+00  0.45593999997E+02  0.45594000000E+02  0.51100000000E-03 0.  1.
         11   -1    0    0    0    0 -0.00000000000E+00 -0.00000000000E+00 -0.45593999997E+02  0.45594000000E+02  0.51100000000E-03 0. -1.
    9900012    2    1    2    0    0  0.50894166835E+00  0.43006570603E+00 -0.97424933971E+00  0.90007686521E+02  0.89999947183E+02 0.  0.
        -12    1    1    2    0    0 -0.50894166835E+00 -0.43006570603E+00  0.97424933971E+00  0.11803134792E+01  0.00000000000E+00 0.  1.
         11    1    3    3    0    0 -0.21555681082E+02  0.27418548341E+02 -0.18721783983E+02  0.39584458766E+02  0.51100000000E-03 0. -1.
        -11    1    3    3    0    0  0.75575271803E+00  0.16750099641E+01 -0.68264865470E+01  0.70694935737E+01  0.51100000000E-03 0.  1.
        -12    1    3    3    0    0  0.21308870032E+02 -0.28663492599E+02  0.24574021191E+02  0.43353734181E+02  0.00000000000E+00 0.  1.
</event>
<event>
 7    1  0.4195243E-015  0.9000780E+02  0.7816164E-02  0.1186339E+00
        -11   -1    0    0    0    0  0.00000000000E+00  0.00000000000E+00  0.45593999997E+02  0.45594000000E+02  0.51100000000E-03 0.  1.
         11   -1    0    0    0    0 -0.00000000000E+00 -0.00000000000E+00 -0.45593999997E+02  0.45594000000E+02  0.51100000000E-03 0. -1.
    9900012    2    1    2    0    0  0.94303870552E+00  0.41346431897E+00  0.57670854742E+00  0.90007801927E+02  0.90000064112E+02 0.  0.
        -12    1    1    2    0    0 -0.94303870552E+00 -0.41346431897E+00 -0.57670854742E+00  0.11801980731E+01  0.00000000000E+00 0.  1.
         11    1    3    3    0    0 -0.44326363966E+00  0.10508736932E+02 -0.39423874673E+01  0.11232651235E+02  0.51100000000E-03 0. -1.
        -11    1    3    3    0    0  0.17439995799E+02  0.10977134592E+01  0.36963126362E+02  0.40885585956E+02  0.51100000000E-03 0.  1.
         12    1    3    3    0    0 -0.16053693454E+02 -0.11192986072E+02 -0.32444030347E+02  0.37889564736E+02  0.00000000000E+00 0. -1.
</event>
<event>
 7    1  0.4195243E-015  0.9000780E+02  0.7816164E-02  0.1186339E+00
        -11   -1    0    0    0    0  0.00000000000E+00  0.00000000000E+00  0.45593999997E+02  0.45594000000E+02  0.51100000000E-03 0.  1.
         11   -1    0    0    0    0 -0.00000000000E+00 -0.00000000000E+00 -0.45593999997E+02  0.45594000000E+02  0.51100000000E-03 0. -1.
    9900012    2    1    2    0    0 -0.65142477326E+00 -0.56465068129E-01 -0.98251136063E+00  0.90007800393E+02  0.90000062558E+02 0.  0.
        -12    1    1    2    0    0  0.65142477326E+00  0.56465068129E-01  0.98251136063E+00  0.11801996072E+01  0.00000000000E+00 0.  1.
         11    1    3    3    0    0  0.30277804857E+02  0.16438496962E+02  0.23592036361E+01  0.34533107179E+02  0.51100000000E-03 0. -1.
        -11    1    3    3    0    0  0.92681853534E+01 -0.76488250623E+01  0.57524494729E+01  0.13322704672E+02  0.51100000000E-03 0.  1.
        -12    1    3    3    0    0 -0.40197414984E+02 -0.88461369675E+01 -0.90941644696E+01  0.42151988542E+02  0.00000000000E+00 0.  1.
</event>
<event>
 7    1  0.4195243E-015  0.9000785E+02  0.7816164E-02  0.1186339E+00
        -11   -1    0    0    0    0  0.00000000000E+00  0.00000000000E+00  0.45593999997E+02  0.45594000000E+02  0.51100000000E-03 0. -1.
         11   -1    0    0    0    0 -0.00000000000E+00 -0.00000000000E+00 -0.45593999997E+02  0.45594000000E+02  0.51100000000E-03 0.  1.
    9900012    2    1    2    0    0  0.10210876621E+01 -0.54717248430E+00 -0.22526888732E+00  0.90007845852E+02  0.90000108617E+02 0.  0.
        -12    1    1    2    0    0 -0.10210876621E+01  0.54717248430E+00  0.22526888732E+00  0.11801541479E+01  0.00000000000E+00 0.  1.
         11    1    3    3    0    0  0.21976736662E+02  0.37051035938E+02 -0.10294541581E+02  0.44291464246E+02  0.51100000000E-03 0. -1.
        -11    1    3    3    0    0 -0.21109261870E+01 -0.55338852581E+01 -0.25407661904E+01  0.64447954593E+01  0.51100000000E-03 0.  1.
        -12    1    3    3    0    0 -0.18844722813E+02 -0.32064323164E+02  0.12610038884E+02  0.39271586147E+02  0.00000000000E+00 0.  1.
</event>
<event>
 7    1  0.4195243E-015  0.9000773E+02  0.7816164E-02  0.1186339E+00
        -11   -1    0    0    0    0  0.00000000000E+00  0.00000000000E+00  0.45593999997E+02  0.45594000000E+02  0.51100000000E-03 0.  1.
         11   -1    0    0    0    0 -0.00000000000E+00 -0.00000000000E+00 -0.45593999997E+02  0.45594000000E+02  0.51100000000E-03 0. -1.
    9900012    2    1    2    0    0  0.78970726950E+00  0.28046301191E+00  0.83110411069E+00  0.90007732609E+02  0.89999993879E+02 0.  0.
        -12    1    1    2    0    0 -0.78970726950E+00 -0.28046301191E+00 -0.83110411069E+00  0.11802673915E+01  0.00000000000E+00 0.  1.
         11    1    3    3    0    0  0.13586110838E+01 -0.73614600328E+01 -0.82803947930E+01  0.11162520149E+02  0.51100000000E-03 0. -1.
        -11    1    3    3    0    0 -0.19653613142E+02 -0.13340158956E+02  0.33752705894E+02  0.41273108750E+02  0.51100000000E-03 0.  1.
         12    1    3    3    0    0  0.19084709328E+02  0.20982082000E+02 -0.24641206990E+02  0.37572103709E+02  0.00000000000E+00 0. -1.
</event>
<event>
 7    1  0.4195243E-015  0.9000785E+02  0.7816164E-02  0.1186339E+00
        -11   -1    0    0    0    0  0.00000000000E+00  0.00000000000E+00  0.45593999997E+02  0.45594000000E+02  0.51100000000E-03 0.  1.
         11   -1    0    0    0    0 -0.00000000000E+00 -0.00000000000E+00 -0.45593999997E+02  0.45594000000E+02  0.51100000000E-03 0. -1.
    9900012    2    1    2    0    0 -0.96857990111E+00  0.67412884526E+00 -0.12446149122E-01  0.90007851013E+02  0.90000113846E+02 0.  0.
        -12    1    1    2    0    0  0.96857990111E+00 -0.67412884526E+00  0.12446149122E-01  0.11801489870E+01  0.00000000000E+00 0.  1.
         11    1    3    3    0    0 -0.30632507821E+01 -0.45110657205E+01  0.10694722885E+02  0.12004595668E+02  0.51100000000E-03 0. -1.
        -11    1    3    3    0    0 -0.26195227380E+02  0.60069355377E+01 -0.32580094225E+02  0.42234295922E+02  0.51100000000E-03 0.  1.
         12    1    3    3    0    0  0.28289898261E+02 -0.82174097190E+00  0.21872925190E+02  0.35768959423E+02  0.00000000000E+00 0. -1.
</event>
<event>
 7    1  0.4195243E-015  0.9000773E+02  0.7816164E-02  0.1186339E+00
        -11   -1    0    0    0    0  0.00000000000E+00  0.00000000000E+00  0.45593999997E+02  0.45594000000E+02  0.51100000000E-03 0.  1.
         11   -1    0    0    0    0 -0.00000000000E+00 -0.00000000000E+00 -0.45593999997E+02  0.45594000000E+02  0.51100000000E-03 0. -1.
    9900012    2    1    2    0    0 -0.58485120364E+00  0.10218768382E+01 -0.82198169220E-01  0.90007728954E+02  0.89999990176E+02 0.  0.
        -12    1    1    2    0    0  0.58485120364E+00 -0.10218768382E+01  0.82198169220E-01  0.11802710459E+01  0.00000000000E+00 0.  1.
         11    1    3    3    0    0 -0.88510743917E+00 -0.33055964903E+02 -0.14896518622E+02  0.36268257446E+02  0.51100000000E-03 0. -1.
        -11    1    3    3    0    0  0.50788527459E+01 -0.29060776653E+01 -0.80836042202E+01  0.99792128979E+01  0.51100000000E-03 0.  1.
        -12    1    3    3    0    0 -0.47785965104E+01  0.36983919407E+02  0.22897924673E+02  0.43760258610E+02  0.00000000000E+00 0.  1.
</event>
<event>
 7    1  0.4195243E-015  0.9000775E+02  0.7816164E-02  0.1186339E+00
        -11   -1    0    0    0    0  0.00000000000E+00  0.00000000000E+00  0.45593999997E+02  0.45594000000E+02  0.51100000000E-03 0. -1.
         11   -1    0    0    0    0 -0.00000000000E+00 -0.00000000000E+00 -0.45593999997E+02  0.45594000000E+02  0.51100000000E-03 0.  1.
    9900012    2    1    2    0    0 -0.45807681365E+00  0.82482145373E+00  0.70909721710E+00  0.90007752712E+02  0.90000014248E+02 0.  0.
        -12    1    1    2    0    0  0.45807681365E+00 -0.82482145373E+00 -0.70909721710E+00  0.11802472881E+01  0.00000000000E+00 0.  1.
         11    1    3    3    0    0  0.26758377447E+01  0.80786880931E+01  0.96630822282E+01  0.12876353030E+02  0.51100000000E-03 0. -1.
        -11    1    3    3    0    0 -0.12188459885E+01  0.28520366636E+02  0.16695833992E+02  0.33070345803E+02  0.51100000000E-03 0.  1.
         12    1    3    3    0    0 -0.19150685699E+01 -0.35774233275E+02 -0.25649819003E+02  0.44061053879E+02  0.00000000000E+00 0. -1.
</event>
<event>
 7    1  0.4195243E-015  0.9000781E+02  0.7816164E-02  0.1186339E+00
        -11   -1    0    0    0    0  0.00000000000E+00  0.00000000000E+00  0.45593999997E+02  0.45594000000E+02  0.51100000000E-03 0.  1.
         11   -1    0    0    0    0 -0.00000000000E+00 -0.00000000000E+00 -0.45593999997E+02  0.45594000000E+02  0.51100000000E-03 0. -1.
    9900012    2    1    2    0    0 -0.18921706605E+00  0.76164845451E+00 -0.88143767250E+00  0.90007811949E+02  0.90000074266E+02 0.  0.
        -12    1    1    2    0    0  0.18921706605E+00 -0.76164845451E+00  0.88143767250E+00  0.11801880515E+01  0.00000000000E+00 0.  1.
         11    1    3    3    0    0  0.95928335430E+01  0.79153560668E+01 -0.40569681774E+02  0.42433175660E+02  0.51100000000E-03 0. -1.
        -11    1    3    3    0    0 -0.92403472372E+01 -0.42754520273E+01  0.27852729266E+01  0.10555626587E+02  0.51100000000E-03 0.  1.
        -12    1    3    3    0    0 -0.54170337186E+00 -0.28782555850E+01  0.36902971175E+02  0.37019009702E+02  0.00000000000E+00 0.  1.
</event>
<event>
 7    1  0.4195243E-015  0.9000775E+02  0.7816164E-02  0.1186339E+00
        -11   -1    0    0    0    0  0.00000000000E+00  0.00000000000E+00  0.45593999997E+02  0.45594000000E+02  0.51100000000E-03 0. -1.
         11   -1    0    0    0    0 -0.00000000000E+00 -0.00000000000E+00 -0.45593999997E+02  0.45594000000E+02  0.51100000000E-03 0.  1.
    9900012    2    1    2    0    0  0.96806325343E+00 -0.27285677523E+00  0.61757702619E+00  0.90007746355E+02  0.90000007807E+02 0.  0.
        -12    1    1    2    0    0 -0.96806325343E+00  0.27285677523E+00 -0.61757702619E+00  0.11802536447E+01  0.00000000000E+00 0.  1.
         11    1    3    3    0    0  0.28132090469E+02 -0.27233448290E+02  0.71317597518E+00  0.39160998967E+02  0.51100000000E-03 0. -1.
        -11    1    3    3    0    0 -0.41811572391E+01 -0.65767035301E+01  0.58674930963E+01  0.97551309922E+01  0.51100000000E-03 0.  1.
        -12    1    3    3    0    0 -0.22982869976E+02  0.33537295045E+02 -0.59630920452E+01  0.41091616396E+02  0.00000000000E+00 0.  1.
</event>
<event>
 7    1  0.4195243E-015  0.9000773E+02  0.7816164E-02  0.1186339E+00
        -11   -1    0    0    0    0  0.00000000000E+00  0.00000000000E+00  0.45593999997E+02  0.45594000000E+02  0.51100000000E-03 0.  1.
         11   -1    0    0    0    0 -0.00000000000E+00 -0.00000000000E+00 -0.45593999997E+02  0.45594000000E+02  0.51100000000E-03 0. -1.
    9900012    2    1    2    0    0 -0.28288207882E+00  0.28034782672E+00 -0.11110493901E+01  0.90007725489E+02  0.89999986665E+02 0.  0.
        -12    1    1    2    0    0  0.28288207882E+00 -0.28034782672E+00  0.11110493901E+01  0.11802745111E+01  0.00000000000E+00 0.  1.
         11    1    3    3    0    0 -0.18830090393E+01 -0.10476233438E+02 -0.50224923089E+01  0.11769563261E+02  0.51100000000E-03 0. -1.
        -11    1    3    3    0    0 -0.18233896722E+02 -0.27527437298E+02 -0.70212123713E+01  0.33756958057E+02  0.51100000000E-03 0.  1.
         12    1    3    3    0    0  0.19834023683E+02  0.38284018563E+02  0.10932655290E+02  0.44481204171E+02  0.00000000000E+00 0. -1.
</event>
<event>
 7    1  0.4195243E-015  0.9000773E+02  0.7816164E-02  0.1186339E+00
        -11   -1    0    0    0    0  0.00000000000E+00  0.00000000000E+00  0.45593999997E+02  0.45594000000E+02  0.51100000000E-03 0. -1.
         11   -1    0    0    0    0 -0.00000000000E+00 -0.00000000000E+00 -0.45593999997E+02  0.45594000000E+02  0.51100000000E-03 0.  1.
    9900012    2    1    2    0    0 -0.68884782979E+00 -0.67389885567E+00  0.68146387310E+00  0.90007727146E+02  0.89999988344E+02 0.  0.
        -12    1    1    2    0    0  0.68884782979E+00  0.67389885567E+00 -0.68146387310E+00  0.11802728543E+01  0.00000000000E+00 0.  1.
         11    1    3    3    0    0 -0.71736356018E+01 -0.38579861120E+01  0.59191064714E+01  0.10068809576E+02  0.51100000000E-03 0. -1.
        -11    1    3    3    0    0 -0.29125186983E+02 -0.20919536464E+02  0.35991709819E+01  0.36039666406E+02  0.51100000000E-03 0.  1.
         12    1    3    3    0    0  0.35609974755E+02  0.24103623720E+02 -0.88368135802E+01  0.43899251164E+02  0.00000000000E+00 0. -1.
</event>
<event>
 7    1  0.4195243E-015  0.9000780E+02  0.7816164E-02  0.1186339E+00
        -11   -1    0    0    0    0  0.00000000000E+00  0.00000000000E+00  0.45593999997E+02  0.45594000000E+02  0.51100000000E-03 0.  1.
         11   -1    0    0    0    0 -0.00000000000E+00 -0.00000000000E+00 -0.45593999997E+02  0.45594000000E+02  0.51100000000E-03 0. -1.
    9900012    2    1    2    0    0 -0.33027795751E+00  0.28649393401E+00 -0.10962286796E+01  0.90007796788E+02  0.90000058906E+02 0.  0.
        -12    1    1    2    0    0  0.33027795751E+00 -0.28649393401E+00  0.10962286796E+01  0.11802032119E+01  0.00000000000E+00 0.  1.
         11    1    3    3    0    0  0.46849351913E+01 -0.61422610440E+01 -0.15992436414E+01  0.78888255758E+01  0.51100000000E-03 0. -1.
        -11    1    3    3    0    0  0.33134704343E+02  0.23052394969E+02  0.26279785961E+01  0.40450312947E+02  0.51100000000E-03 0.  1.
         12    1    3    3    0    0 -0.38149917492E+02 -0.16623639991E+02 -0.21249636343E+01  0.41668658266E+02  0.00000000000E+00 0. -1.
</event>
<event>
 7    1  0.4195243E-015  0.9000781E+02  0.7816164E-02  0.1186339E+00
        -11   -1    0    0    0    0  0.00000000000E+00  0.00000000000E+00  0.45593999997E+02  0.45594000000E+02  0.51100000000E-03 0.  1.
         11   -1    0    0    0    0 -0.00000000000E+00 -0.00000000000E+00 -0.45593999997E+02  0.45594000000E+02  0.51100000000E-03 0. -1.
    9900012    2    1    2    0    0  0.73680666064E+00  0.53654142725E+00 -0.74972923411E+00  0.90007807354E+02  0.90000069611E+02 0.  0.
        -12    1    1    2    0    0 -0.73680666064E+00 -0.53654142725E+00  0.74972923411E+00  0.11801926465E+01  0.00000000000E+00 0.  1.
         11    1    3    3    0    0  0.38875963847E+01 -0.98243795674E+01 -0.38024960276E+02  0.39465547555E+02  0.51100000000E-03 0. -1.
        -11    1    3    3    0    0 -0.69771856989E+01 -0.47312830241E+01 -0.16754998495E+01  0.85949670934E+01  0.51100000000E-03 0.  1.
        -12    1    3    3    0    0  0.38263959748E+01  0.15092204019E+02  0.38950730892E+02  0.41947292705E+02  0.00000000000E+00 0.  1.
</event>
<event>
 7    1  0.4195243E-015  0.9000743E+02  0.7816164E-02  0.1186340E+00
        -11   -1    0    0    0    0  0.00000000000E+00  0.00000000000E+00  0.45593999997E+02  0.45594000000E+02  0.51100000000E-03 0.  1.
         11   -1    0    0    0    0 -0.00000000000E+00 -0.00000000000E+00 -0.45593999997E+02  0.45594000000E+02  0.51100000000E-03 0. -1.
    9900012    2    1    2    0    0  0.81587942231E+00 -0.84355901587E+00 -0.12839425189E+00  0.90007433979E+02  0.89999691307E+02 0.  0.
        -12    1    1    2    0    0 -0.81587942231E+00  0.84355901587E+00  0.12839425189E+00  0.11805660206E+01  0.00000000000E+00 0.  1.
         11    1    3    3    0    0 -0.23025314453E+01  0.20228165336E+02 -0.33398291520E+02  0.39114271061E+02  0.51100000000E-03 0. -1.
        -11    1    3    3    0    0  0.10083478701E+02  0.20665893167E+01  0.67080035128E+00  0.10314907052E+02  0.51100000000E-03 0.  1.
        -12    1    3    3    0    0 -0.69650678332E+01 -0.23138313669E+02  0.32599096917E+02  0.40578255866E+02  0.00000000000E+00 0.  1.
</event>
<event>
 7    1  0.4195243E-015  0.9000777E+02  0.7816164E-02  0.1186339E+00
        -11   -1    0    0    0    0  0.00000000000E+00  0.00000000000E+00  0.45593999997E+02  0.45594000000E+02  0.51100000000E-03 0.  1.
         11   -1    0    0    0    0 -0.00000000000E+00 -0.00000000000E+00 -0.45593999997E+02  0.45594000000E+02  0.51100000000E-03 0. -1.
    9900012    2    1    2    0    0 -0.10853370300E+01 -0.45958748629E+00 -0.61321389900E-01  0.90007772294E+02  0.90000034088E+02 0.  0.
        -12    1    1    2    0    0  0.10853370300E+01  0.45958748629E+00  0.61321389900E-01  0.11802277065E+01  0.00000000000E+00 0.  1.
         11    1    3    3    0    0 -0.27182085251E+02 -0.28508040821E+02  0.58865618530E+01  0.39827449840E+02  0.51100000000E-03 0. -1.
        -11    1    3    3    0    0  0.65907872195E+01 -0.70051331463E+01 -0.23691529255E+01  0.99057181676E+01  0.51100000000E-03 0.  1.
        -12    1    3    3    0    0  0.19505961001E+02  0.35053586481E+02 -0.35787303173E+01  0.40274604286E+02  0.00000000000E+00 0.  1.
</event>
<event>
 7    1  0.4195243E-015  0.9000774E+02  0.7816164E-02  0.1186339E+00
        -11   -1    0    0    0    0  0.00000000000E+00  0.00000000000E+00  0.45593999997E+02  0.45594000000E+02  0.51100000000E-03 0.  1.
         11   -1    0    0    0    0 -0.00000000000E+00 -0.00000000000E+00 -0.45593999997E+02  0.45594000000E+02  0.51100000000E-03 0. -1.
    9900012    2    1    2    0    0 -0.10058991649E+01 -0.59872172887E+00 -0.15072439014E+00  0.90007737876E+02  0.89999999216E+02 0.  0.
        -12    1    1    2    0    0  0.10058991649E+01  0.59872172887E+00  0.15072439014E+00  0.11802621235E+01  0.00000000000E+00 0.  1.
         11    1    3    3    0    0  0.11023785570E+01 -0.62176484302E+01  0.45544153185E+01  0.77856977618E+01  0.51100000000E-03 0. -1.
        -11    1    3    3    0    0 -0.22408576191E+01 -0.30286487116E+01  0.38234712140E+02  0.38419882465E+02  0.51100000000E-03 0.  1.
         12    1    3    3    0    0  0.13257989723E+00  0.86475754129E+01 -0.42939851849E+02  0.43802157650E+02  0.00000000000E+00 0. -1.
</event>
<event>
 7    1  0.4195243E-015  0.9000773E+02  0.7816164E-02  0.1186339E+00
        -11   -1    0    0    0    0  0.00000000000E+00  0.00000000000E+00  0.45593999997E+02  0.45594000000E+02  0.51100000000E-03 0. -1.
         11   -1    0    0    0    0 -0.00000000000E+00 -0.00000000000E+00 -0.45593999997E+02  0.45594000000E+02  0.51100000000E-03 0.  1.
    9900012    2    1    2    0    0 -0.11450592389E+01  0.26323092862E+00 -0.11218631252E+00  0.90007730136E+02  0.89999991374E+02 0.  0.
        -12    1    1    2    0    0  0.11450592389E+01 -0.26323092862E+00  0.11218631252E+00  0.11802698636E+01  0.00000000000E+00 0.  1.
         11    1    3    3    0    0  0.98250737888E+01 -0.14669263726E+01 -0.36367510312E+01  0.10578747859E+02  0.51100000000E-03 0. -1.
        -11    1    3    3    0    0  0.31743952960E+02 -0.34630217654E+01 -0.11368837632E+02  0.33895745141E+02  0.51100000000E-03 0.  1.
         12    1    3    3    0    0 -0.42714085988E+02  0.51931790666E+01  0.14893402351E+02  0.45533237137E+02  0.00000000000E+00 0. -1.
</event>
<event>
 7    1  0.4195243E-015  0.9000767E+02  0.7816164E-02  0.1186339E+00
        -11   -1    0    0    0    0  0.00000000000E+00  0.00000000000E+00  0.45593999997E+02  0.45594000000E+02  0.51100000000E-03 0. -1.
         11   -1    0    0    0    0 -0.00000000000E+00 -0.00000000000E+00 -0.45593999997E+02  0.45594000000E+02  0.51100000000E-03 0.  1.
    9900012    2    1    2    0    0  0.95363335343E+00 -0.43414516561E+00  0.54340679631E+00  0.90007665495E+02  0.89999925879E+02 0.  0.
        -12    1    1    2    0    0 -0.95363335343E+00  0.43414516561E+00 -0.54340679631E+00  0.11803345051E+01  0.00000000000E+00 0.  1.
         11    1    3    3    0    0 -0.91932429000E+01 -0.29435452024E+02 -0.52775640726E+01  0.31286006995E+02  0.51100000000E-03 0. -1.
        -11    1    3    3    0    0 -0.10550124959E+02 -0.98488694782E-02 -0.14319971256E+02  0.17786703199E+02  0.51100000000E-03 0.  1.
        -12    1    3    3    0    0  0.20697001212E+02  0.29011155728E+02  0.20140942125E+02  0.40934955301E+02  0.00000000000E+00 0.  1.
</event>
<event>
 7    1  0.4195243E-015  0.9000782E+02  0.7816164E-02  0.1186339E+00
        -11   -1    0    0    0    0  0.00000000000E+00  0.00000000000E+00  0.45593999997E+02  0.45594000000E+02  0.51100000000E-03 0.  1.
         11   -1    0    0    0    0 -0.00000000000E+00 -0.00000000000E+00 -0.45593999997E+02  0.45594000000E+02  0.51100000000E-03 0. -1.
    9900012    2    1    2    0    0  0.11101783192E+01 -0.13742213747E+00 -0.37607727349E+00  0.90007824225E+02  0.90000086705E+02 0.  0.
        -12    1    1    2    0    0 -0.11101783192E+01  0.13742213747E+00  0.37607727349E+00  0.11801757750E+01  0.00000000000E+00 0.  1.
         11    1    3    3    0    0  0.15295071793E+02  0.32554444936E+02  0.99418916848E+01  0.37317185274E+02  0.51100000000E-03 0. -1.
        -11    1    3    3    0    0  0.74432828609E+01 -0.47070890953E+01  0.88304379508E+01  0.12471398565E+02  0.51100000000E-03 0.  1.
        -12    1    3    3    0    0 -0.21628176335E+02 -0.27984777978E+02 -0.19148406909E+02  0.40219240386E+02  0.00000000000E+00 0.  1.
</event>
<event>
 7    1  0.4771329E-015  0.9000779E+02  0.7816164E-02  0.1186339E+00
        -11   -1    0    0    0    0  0.00000000000E+00  0.00000000000E+00  0.45593999997E+02  0.45594000000E+02  0.51100000000E-03 0.  1.
         11   -1    0    0    0    0 -0.00000000000E+00 -0.00000000000E+00 -0.45593999997E+02  0.45594000000E+02  0.51100000000E-03 0. -1.
    9900012    2    1    2    0    0 -0.75457473606E+00 -0.76313316703E+00 -0.49104962333E+00  0.90007794511E+02  0.90000056599E+02 0.  0.
        -12    1    1    2    0    0  0.75457473606E+00  0.76313316703E+00  0.49104962333E+00  0.11802054887E+01  0.00000000000E+00 0.  1.
         11    1    3    3    0    0  0.82204885018E+00  0.14782702807E+01 -0.43489401537E+02  0.43522282726E+02  0.51100000000E-03 0. -1.
        -11    1    3    3    0    0  0.23723568010E+01 -0.67346901845E+01  0.70198867888E+01  0.10013138342E+02  0.51100000000E-03 0.  1.
        -12    1    3    3    0    0 -0.39489803872E+01  0.44932867367E+01  0.35978465125E+02  0.36472373443E+02  0.00000000000E+00 0.  1.
</event>
<event>
 7    1  0.4195243E-015  0.9000749E+02  0.7816164E-02  0.1186340E+00
        -11   -1    0    0    0    0  0.00000000000E+00  0.00000000000E+00  0.45593999997E+02  0.45594000000E+02  0.51100000000E-03 0. -1.
         11   -1    0    0    0    0 -0.00000000000E+00 -0.00000000000E+00 -0.45593999997E+02  0.45594000000E+02  0.51100000000E-03 0.  1.
    9900012    2    1    2    0    0  0.37175549645E+00 -0.10981500941E+01 -0.22243876043E+00  0.90007485375E+02  0.89999743381E+02 0.  0.
        -12    1    1    2    0    0 -0.37175549645E+00  0.10981500941E+01  0.22243876043E+00  0.11805146252E+01  0.00000000000E+00 0.  1.
         11    1    3    3    0    0 -0.36097710811E+02 -0.13993991241E+02  0.75002090126E+01  0.39435132206E+02  0.51100000000E-03 0. -1.
        -11    1    3    3    0    0 -0.39058143083E+01  0.78416189425E+01 -0.42416133419E+01  0.97333271317E+01  0.51100000000E-03 0.  1.
        -12    1    3    3    0    0  0.40375280616E+02  0.50542222040E+01 -0.34810344311E+01  0.40839026037E+02  0.00000000000E+00 0.  1.
</event>
<event>
 7    1  0.4195243E-015  0.9000761E+02  0.7816164E-02  0.1186339E+00
        -11   -1    0    0    0    0  0.00000000000E+00  0.00000000000E+00  0.45593999997E+02  0.45594000000E+02  0.51100000000E-03 0.  1.
         11   -1    0    0    0    0 -0.00000000000E+00 -0.00000000000E+00 -0.45593999997E+02  0.45594000000E+02  0.51100000000E-03 0. -1.
    9900012    2    1    2    0    0 -0.64143653848E-01 -0.64748583586E+00 -0.98486903379E+00  0.90007610518E+02  0.89999870177E+02 0.  0.
        -12    1    1    2    0    0  0.64143653848E-01  0.64748583586E+00  0.98486903379E+00  0.11803894822E+01  0.00000000000E+00 0.  1.
         11    1    3    3    0    0 -0.82404974953E+01 -0.37835500360E+02  0.54086432163E+01  0.39098392654E+02  0.51100000000E-03 0. -1.
        -11    1    3    3    0    0  0.59669520238E+01 -0.42494479924E+01 -0.59064781051E+01  0.94100376493E+01  0.51100000000E-03 0.  1.
        -12    1    3    3    0    0  0.22094018176E+01  0.41437462516E+02 -0.48703414500E+00  0.41499180214E+02  0.00000000000E+00 0.  1.
</event>
<event>
 7    1  0.4195243E-015  0.9000780E+02  0.7816164E-02  0.1186339E+00
        -11   -1    0    0    0    0  0.00000000000E+00  0.00000000000E+00  0.45593999997E+02  0.45594000000E+02  0.51100000000E-03 0.  1.
         11   -1    0    0    0    0 -0.00000000000E+00 -0.00000000000E+00 -0.45593999997E+02  0.45594000000E+02  0.51100000000E-03 0. -1.
    9900012    2    1    2    0    0 -0.14095782963E+00  0.85794589179E+00 -0.79808298178E+00  0.90007798022E+02  0.90000060156E+02 0.  0.
        -12    1    1    2    0    0  0.14095782963E+00 -0.85794589179E+00  0.79808298178E+00  0.11802019780E+01  0.00000000000E+00 0.  1.
         11    1    3    3    0    0 -0.76943722173E+01 -0.33234010366E+01  0.50646897161E+01  0.97928259686E+01  0.51100000000E-03 0. -1.
        -11    1    3    3    0    0 -0.10413757268E+02 -0.26680726551E+02  0.21011273613E+02  0.35521558648E+02  0.51100000000E-03 0.  1.
         12    1    3    3    0    0  0.17967171656E+02  0.30862073479E+02 -0.26874046311E+02  0.44693413405E+02  0.00000000000E+00 0. -1.
</event>
<event>
 7    1  0.4195243E-015  0.9000763E+02  0.7816164E-02  0.1186339E+00
        -11   -1    0    0    0    0  0.00000000000E+00  0.00000000000E+00  0.45593999997E+02  0.45594000000E+02  0.51100000000E-03 0. -1.
         11   -1    0    0    0    0 -0.00000000000E+00 -0.00000000000E+00 -0.45593999997E+02  0.45594000000E+02  0.51100000000E-03 0.  1.
    9900012    2    1    2    0    0  0.47674052620E+00 -0.10678446952E+01 -0.16032630079E+00  0.90007627879E+02  0.89999887766E+02 0.  0.
        -12    1    1    2    0    0 -0.47674052620E+00  0.10678446952E+01  0.16032630079E+00  0.11803721214E+01  0.00000000000E+00 0.  1.
         11    1    3    3    0    0 -0.14044252892E+01 -0.37047482104E+02  0.13102164262E+01  0.37097237201E+02  0.51100000000E-03 0. -1.
        -11    1    3    3    0    0 -0.50230125860E+01 -0.53421422085E+01 -0.76104574208E+01  0.10568263870E+02  0.51100000000E-03 0.  1.
        -12    1    3    3    0    0  0.69041784014E+01  0.41321779617E+02  0.61399146938E+01  0.42342126807E+02  0.00000000000E+00 0.  1.
</event>
<event>
 7    1  0.4195243E-015  0.9000775E+02  0.7816164E-02  0.1186339E+00
        -11   -1    0    0    0    0  0.00000000000E+00  0.00000000000E+00  0.45593999997E+02  0.45594000000E+02  0.51100000000E-03 0.  1.
         11   -1    0    0    0    0 -0.00000000000E+00 -0.00000000000E+00 -0.45593999997E+02  0.45594000000E+02  0.51100000000E-03 0. -1.
    9900012    2    1    2    0    0 -0.10205470541E+01 -0.55415081596E+00 -0.21068916883E+00  0.90007750305E+02  0.90000011809E+02 0.  0.
        -12    1    1    2    0    0  0.10205470541E+01  0.55415081596E+00  0.21068916883E+00  0.11802496949E+01  0.00000000000E+00 0.  1.
         11    1    3    3    0    0  0.34356907986E+02  0.12843756061E+02 -0.10538753679E+02  0.38163130446E+02  0.51100000000E-03 0. -1.
        -11    1    3    3    0    0 -0.40448763594E+01  0.12150974015E+01 -0.10614282902E+02  0.11423681028E+02  0.51100000000E-03 0.  1.
        -12    1    3    3    0    0 -0.31332578680E+02 -0.14613004279E+02  0.20942347412E+02  0.40420938830E+02  0.00000000000E+00 0.  1.
</event>
<event>
 7    1  0.4195243E-015  0.9000772E+02  0.7816164E-02  0.1186339E+00
        -11   -1    0    0    0    0  0.00000000000E+00  0.00000000000E+00  0.45593999997E+02  0.45594000000E+02  0.51100000000E-03 0.  1.
         11   -1    0    0    0    0 -0.00000000000E+00 -0.00000000000E+00 -0.45593999997E+02  0.45594000000E+02  0.51100000000E-03 0. -1.
    9900012    2    1    2    0    0 -0.32353310504E+00  0.91422501252E+00  0.67273939086E+00  0.90007720655E+02  0.89999981768E+02 0.  0.
        -12    1    1    2    0    0  0.32353310504E+00 -0.91422501252E+00 -0.67273939086E+00  0.11802793447E+01  0.00000000000E+00 0.  1.
         11    1    3    3    0    0  0.42513649815E+00  0.76585858762E+01 -0.36748519732E+01  0.85052463780E+01  0.51100000000E-03 0. -1.
        -11    1    3    3    0    0  0.34293353536E+02 -0.10041174937E+02 -0.17796033364E+02  0.39919394968E+02  0.51100000000E-03 0.  1.
         12    1    3    3    0    0 -0.35042023139E+02  0.32968140729E+01  0.22143624728E+02  0.41583079309E+02  0.00000000000E+00 0. -1.
</event>
<event>
 7    1  0.4195243E-015  0.9000769E+02  0.7816164E-02  0.1186339E+00
        -11   -1    0    0    0    0  0.00000000000E+00  0.00000000000E+00  0.45593999997E+02  0.45594000000E+02  0.51100000000E-03 0. -1.
         11   -1    0    0    0    0 -0.00000000000E+00 -0.00000000000E+00 -0.45593999997E+02  0.45594000000E+02  0.51100000000E-03 0.  1.
    9900012    2    1    2    0    0  0.86384829876E+00 -0.80021352211E+00 -0.80990566635E-01  0.90007688585E+02  0.89999949274E+02 0.  0.
        -12    1    1    2    0    0 -0.86384829876E+00  0.80021352211E+00  0.80990566635E-01  0.11803114149E+01  0.00000000000E+00 0.  1.
         11    1    3    3    0    0 -0.16224509445E+02 -0.11798957752E+01  0.37560355019E+02  0.40931737444E+02  0.51100000000E-03 0. -1.
        -11    1    3    3    0    0  0.27351864471E+01 -0.78330546289E+01 -0.37500100845E+00  0.83053365818E+01  0.51100000000E-03 0.  1.
        -12    1    3    3    0    0  0.14353171297E+02  0.82127368820E+01 -0.37266344577E+02  0.40770614559E+02  0.00000000000E+00 0.  1.
</event>
<event>
 7    1  0.4195243E-015  0.9000667E+02  0.7816164E-02  0.1186341E+00
        -11   -1    0    0    0    0  0.00000000000E+00  0.00000000000E+00  0.45593999997E+02  0.45594000000E+02  0.51100000000E-03 0.  1.
         11   -1    0    0    0    0 -0.00000000000E+00 -0.00000000000E+00 -0.45593999997E+02  0.45594000000E+02  0.51100000000E-03 0. -1.
    9900012    2    1    2    0    0 -0.77626191343E+00  0.70756083409E+00 -0.54066231644E+00  0.90006669973E+02  0.89998917210E+02 0.  0.
        -12    1    1    2    0    0  0.77626191343E+00 -0.70756083409E+00  0.54066231644E+00  0.11813300270E+01  0.00000000000E+00 0.  1.
         11    1    3    3    0    0  0.26536288254E+01 -0.32280749568E+01 -0.66660734537E+01  0.78675758287E+01  0.51100000000E-03 0. -1.
        -11    1    3    3    0    0 -0.15516927168E+01 -0.38867185035E+02  0.55431973536E+01  0.39291129533E+02  0.51100000000E-03 0.  1.
         12    1    3    3    0    0 -0.18781980220E+01  0.42802820826E+02  0.58221378364E+00  0.42847964611E+02  0.00000000000E+00 0. -1.
</event>
<event>
 7    1  0.4195243E-015  0.9000772E+02  0.7816164E-02  0.1186339E+00
        -11   -1    0    0    0    0  0.00000000000E+00  0.00000000000E+00  0.45593999997E+02  0.45594000000E+02  0.51100000000E-03 0.  1.
         11   -1    0    0    0    0 -0.00000000000E+00 -0.00000000000E+00 -0.45593999997E+02  0.45594000000E+02  0.51100000000E-03 0. -1.
    9900012    2    1    2    0    0 -0.63245052020E+00  0.99027512410E+00 -0.11144309190E+00  0.90007721200E+02  0.89999982320E+02 0.  0.
        -12    1    1    2    0    0  0.63245052020E+00 -0.99027512410E+00  0.11144309190E+00  0.11802787995E+01  0.00000000000E+00 0.  1.
         11    1    3    3    0    0  0.95576263245E+00  0.54512628075E+01  0.67333978253E+01  0.87159850241E+01  0.51100000000E-03 0. -1.
        -11    1    3    3    0    0  0.12331255872E+02  0.16541484711E+02  0.30148769577E+02  0.36532573070E+02  0.51100000000E-03 0.  1.
         12    1    3    3    0    0 -0.13919469025E+02 -0.21002472394E+02 -0.36993610494E+02  0.44759163107E+02  0.00000000000E+00 0. -1.
</event>
<event>
 7    1  0.4195243E-015  0.9000770E+02  0.7816164E-02  0.1186339E+00
        -11   -1    0    0    0    0  0.00000000000E+00  0.00000000000E+00  0.45593999997E+02  0.45594000000E+02  0.51100000000E-03 0. -1.
         11   -1    0    0    0    0 -0.00000000000E+00 -0.00000000000E+00 -0.45593999997E+02  0.45594000000E+02  0.51100000000E-03 0.  1.
    9900012    2    1    2    0    0  0.30902001995E-01 -0.52386713858E+00  0.10572233957E+01  0.90007697911E+02  0.89999958724E+02 0.  0.
        -12    1    1    2    0    0 -0.30902001995E-01  0.52386713858E+00 -0.10572233957E+01  0.11803020889E+01  0.00000000000E+00 0.  1.
         11    1    3    3    0    0 -0.52602441819E+01  0.31401371895E+01 -0.76875630085E+01  0.98300180922E+01  0.51100000000E-03 0. -1.
        -11    1    3    3    0    0  0.40634690194E+02  0.56159646908E+01 -0.45947448929E+01  0.41277461010E+02  0.51100000000E-03 0.  1.
         12    1    3    3    0    0 -0.35343544010E+02 -0.92799690188E+01  0.13339531297E+02  0.38900218809E+02  0.00000000000E+00 0. -1.
</event>
<event>
 7    1  0.4195243E-015  0.9000759E+02  0.7816164E-02  0.1186339E+00
        -11   -1    0    0    0    0  0.00000000000E+00  0.00000000000E+00  0.45593999997E+02  0.45594000000E+02  0.51100000000E-03 0.  1.
         11   -1    0    0    0    0 -0.00000000000E+00 -0.00000000000E+00 -0.45593999997E+02  0.45594000000E+02  0.51100000000E-03 0. -1.
    9900012    2    1    2    0    0  0.10274304747E+01  0.57084715438E+00  0.10901483581E+00  0.90007591559E+02  0.89999850967E+02 0.  0.
        -12    1    1    2    0    0 -0.10274304747E+01 -0.57084715438E+00 -0.10901483581E+00  0.11804084414E+01  0.00000000000E+00 0.  1.
         11    1    3    3    0    0 -0.43468396128E+01  0.79316965785E+01 -0.92423703396E+00  0.90918116781E+01  0.51100000000E-03 0. -1.
        -11    1    3    3    0    0 -0.14575511503E+02  0.30572445529E+02 -0.12295091046E+02  0.36031780767E+02  0.51100000000E-03 0.  1.
         12    1    3    3    0    0  0.19949781591E+02 -0.37933294953E+02  0.13328342916E+02  0.44883999113E+02  0.00000000000E+00 0. -1.
</event>
<event>
 7    1  0.4195243E-015  0.9000774E+02  0.7816164E-02  0.1186339E+00
        -11   -1    0    0    0    0  0.00000000000E+00  0.00000000000E+00  0.45593999997E+02  0.45594000000E+02  0.51100000000E-03 0. -1.
         11   -1    0    0    0    0 -0.00000000000E+00 -0.00000000000E+00 -0.45593999997E+02  0.45594000000E+02  0.51100000000E-03 0.  1.
    9900012    2    1    2    0    0 -0.11372676460E+01 -0.74352138662E-01 -0.30678700912E+00  0.90007735535E+02  0.89999996844E+02 0.  0.
        -12    1    1    2    0    0  0.11372676460E+01  0.74352138662E-01  0.30678700912E+00  0.11802644653E+01  0.00000000000E+00 0.  1.
         11    1    3    3    0    0  0.36468902045E+02 -0.15862305263E+02 -0.31507125745E+01  0.39893865877E+02  0.51100000000E-03 0. -1.
        -11    1    3    3    0    0 -0.58834566822E+00  0.48924918612E+01 -0.85591498080E+01  0.98763187947E+01  0.51100000000E-03 0.  1.
        -12    1    3    3    0    0 -0.37017824023E+02  0.10895461263E+02  0.11403075373E+02  0.40237550863E+02  0.00000000000E+00 0.  1.
</event>
<event>
 7    1  0.4195243E-015  0.9000774E+02  0.7816164E-02  0.1186339E+00
        -11   -1    0    0    0    0  0.00000000000E+00  0.00000000000E+00  0.45593999997E+02  0.45594000000E+02  0.51100000000E-03 0. -1.
         11   -1    0    0    0    0 -0.00000000000E+00 -0.00000000000E+00 -0.45593999997E+02  0.45594000000E+02  0.51100000000E-03 0.  1.
    9900012    2    1    2    0    0 -0.30920290915E+00 -0.67500017586E+00  0.91748153298E+00  0.90007744079E+02  0.90000005501E+02 0.  0.
        -12    1    1    2    0    0  0.30920290915E+00  0.67500017586E+00 -0.91748153298E+00  0.11802559213E+01  0.00000000000E+00 0.  1.
         11    1    3    3    0    0  0.10164831010E+02  0.25447556368E+01 -0.58605942963E+01  0.12006087476E+02  0.51100000000E-03 0. -1.
        -11    1    3    3    0    0 -0.37419643672E+02  0.16512737737E+02 -0.76670179602E+01  0.41613500271E+02  0.51100000000E-03 0.  1.
         12    1    3    3    0    0  0.26945609753E+02 -0.19732493550E+02  0.14445093789E+02  0.36388156332E+02  0.00000000000E+00 0. -1.
</event>
<event>
 7    1  0.4195243E-015  0.9000757E+02  0.7816164E-02  0.1186339E+00
        -11   -1    0    0    0    0  0.00000000000E+00  0.00000000000E+00  0.45593999997E+02  0.45594000000E+02  0.51100000000E-03 0.  1.
         11   -1    0    0    0    0 -0.00000000000E+00 -0.00000000000E+00 -0.45593999997E+02  0.45594000000E+02  0.51100000000E-03 0. -1.
    9900012    2    1    2    0    0  0.47397551513E+00  0.28009180452E+00 -0.10441804176E+01  0.90007569167E+02  0.89999828279E+02 0.  0.
        -12    1    1    2    0    0 -0.47397551513E+00 -0.28009180452E+00  0.10441804176E+01  0.11804308334E+01  0.00000000000E+00 0.  1.
         11    1    3    3    0    0  0.32694524275E+01 -0.23437379543E+01 -0.86467215522E+01  0.95366776519E+01  0.51100000000E-03 0. -1.
        -11    1    3    3    0    0  0.11316956071E+02 -0.36643086235E+02  0.24670235292E+01  0.38430137508E+02  0.51100000000E-03 0.  1.
         12    1    3    3    0    0 -0.14112432984E+02  0.39266915994E+02  0.51355176054E+01  0.42040754007E+02  0.00000000000E+00 0. -1.
</event>
<event>
 7    1  0.4195243E-015  0.9000774E+02  0.7816164E-02  0.1186339E+00
        -11   -1    0    0    0    0  0.00000000000E+00  0.00000000000E+00  0.45593999997E+02  0.45594000000E+02  0.51100000000E-03 0. -1.
         11   -1    0    0    0    0 -0.00000000000E+00 -0.00000000000E+00 -0.45593999997E+02  0.45594000000E+02  0.51100000000E-03 0.  1.
    9900012    2    1    2    0    0 -0.95971225744E+00  0.15641491540E+00 -0.66895360918E+00  0.90007740633E+02  0.90000002009E+02 0.  0.
        -12    1    1    2    0    0  0.95971225744E+00 -0.15641491540E+00  0.66895360918E+00  0.11802593673E+01  0.00000000000E+00 0.  1.
         11    1    3    3    0    0 -0.55584694137E+01  0.12043923017E+02  0.38044126550E+02  0.40290299442E+02  0.51100000000E-03 0. -1.
        -11    1    3    3    0    0  0.96462670556E+01  0.22839503926E+01 -0.20981374432E+01  0.10132575117E+02  0.51100000000E-03 0.  1.
        -12    1    3    3    0    0 -0.50475098993E+01 -0.14171458494E+02 -0.36614942716E+02  0.39584866075E+02  0.00000000000E+00 0.  1.
</event>
<event>
 7    1  0.4195243E-015  0.9000773E+02  0.7816164E-02  0.1186339E+00
        -11   -1    0    0    0    0  0.00000000000E+00  0.00000000000E+00  0.45593999997E+02  0.45594000000E+02  0.51100000000E-03 0.  1.
         11   -1    0    0    0    0 -0.00000000000E+00 -0.00000000000E+00 -0.45593999997E+02  0.45594000000E+02  0.51100000000E-03 0. -1.
    9900012    2    1    2    0    0 -0.69366573939E+00  0.71601004130E+00  0.63182003609E+00  0.90007729228E+02  0.89999990454E+02 0.  0.
        -12    1    1    2    0    0  0.69366573939E+00 -0.71601004130E+00 -0.63182003609E+00  0.11802707720E+01  0.00000000000E+00 0.  1.
         11    1    3    3    0    0  0.74774461911E+01  0.43819240155E+01 -0.15533913737E+01  0.88049125288E+01  0.51100000000E-03 0. -1.
        -11    1    3    3    0    0  0.11492081605E+02  0.33543034322E+02  0.12975299288E+02  0.37756608468E+02  0.51100000000E-03 0.  1.
         12    1    3    3    0    0 -0.19663193535E+02 -0.37208948296E+02 -0.10790087878E+02  0.43446208232E+02  0.00000000000E+00 0. -1.
</event>
<event>
 7    1  0.4195243E-015  0.9000780E+02  0.7816164E-02  0.1186339E+00
        -11   -1    0    0    0    0  0.00000000000E+00  0.00000000000E+00  0.45593999997E+02  0.45594000000E+02  0.51100000000E-03 0. -1.
         11   -1    0    0    0    0 -0.00000000000E+00 -0.00000000000E+00 -0.45593999997E+02  0.45594000000E+02  0.51100000000E-03 0.  1.
    9900012    2    1    2    0    0  0.71680562218E+00  0.87971786736E+00 -0.32429375591E+00  0.90007796515E+02  0.90000058629E+02 0.  0.
        -12    1    1    2    0    0 -0.71680562218E+00 -0.87971786736E+00  0.32429375591E+00  0.11802034851E+01  0.00000000000E+00 0.  1.
         11    1    3    3    0    0 -0.31918951769E+01  0.27660284488E+02  0.96318234546E+01  0.29462714677E+02  0.51100000000E-03 0. -1.
        -11    1    3    3    0    0 -0.18428321745E+02 -0.46328885705E+01 -0.19939014421E+02  0.27543256800E+02  0.51100000000E-03 0.  1.
         12    1    3    3    0    0  0.22337022544E+02 -0.22147678051E+02  0.99828972102E+01  0.33001825038E+02  0.00000000000E+00 0. -1.
</event>
<event>
 7    1  0.4195243E-015  0.9000778E+02  0.7816164E-02  0.1186339E+00
        -11   -1    0    0    0    0  0.00000000000E+00  0.00000000000E+00  0.45593999997E+02  0.45594000000E+02  0.51100000000E-03 0. -1.
         11   -1    0    0    0    0 -0.00000000000E+00 -0.00000000000E+00 -0.45593999997E+02  0.45594000000E+02  0.51100000000E-03 0.  1.
    9900012    2    1    2    0    0  0.73627944922E+00 -0.27969884754E+00  0.87897219376E+00  0.90007775026E+02  0.90000036856E+02 0.  0.
        -12    1    1    2    0    0 -0.73627944922E+00  0.27969884754E+00 -0.87897219376E+00  0.11802249743E+01  0.00000000000E+00 0.  1.
         11    1    3    3    0    0 -0.27913644958E+01  0.66329963343E+01  0.78074441935E+01  0.10618123244E+02  0.51100000000E-03 0. -1.
        -11    1    3    3    0    0 -0.12295049987E+02  0.37540347987E+01 -0.39555492583E+02  0.41592042811E+02  0.51100000000E-03 0.  1.
         12    1    3    3    0    0  0.15822693932E+02 -0.10666729981E+02  0.32627020584E+02  0.37797608971E+02  0.00000000000E+00 0. -1.
</event>
<event>
 7    1  0.4195243E-015  0.9000797E+02  0.7816164E-02  0.1186339E+00
        -11   -1    0    0    0    0  0.00000000000E+00  0.00000000000E+00  0.45593999997E+02  0.45594000000E+02  0.51100000000E-03 0. -1.
         11   -1    0    0    0    0 -0.00000000000E+00 -0.00000000000E+00 -0.45593999997E+02  0.45594000000E+02  0.51100000000E-03 0.  1.
    9900012    2    1    2    0    0  0.44437334404E+00 -0.10887221863E+01 -0.98382485247E-01  0.90007973398E+02  0.90000237847E+02 0.  0.
        -12    1    1    2    0    0 -0.44437334404E+00  0.10887221863E+01  0.98382485247E-01  0.11800266019E+01  0.00000000000E+00 0.  1.
         11    1    3    3    0    0 -0.26056124560E+02 -0.19419014574E+02  0.25885917948E+02  0.41546365694E+02  0.51100000000E-03 0. -1.
        -11    1    3    3    0    0 -0.46735956031E+01  0.34723547400E+01 -0.68176517060E+01  0.89654959900E+01  0.51100000000E-03 0.  1.
        -12    1    3    3    0    0  0.31174093507E+02  0.14857937648E+02 -0.19166648727E+02  0.39496111714E+02  0.00000000000E+00 0.  1.
</event>
<event>
 7    1  0.4195243E-015  0.9000777E+02  0.7816164E-02  0.1186339E+00
        -11   -1    0    0    0    0  0.00000000000E+00  0.00000000000E+00  0.45593999997E+02  0.45594000000E+02  0.51100000000E-03 0.  1.
         11   -1    0    0    0    0 -0.00000000000E+00 -0.00000000000E+00 -0.45593999997E+02  0.45594000000E+02  0.51100000000E-03 0. -1.
    9900012    2    1    2    0    0 -0.69716531814E+00 -0.95201292895E+00  0.24133180240E-01  0.90007766757E+02  0.90000028478E+02 0.  0.
        -12    1    1    2    0    0  0.69716531814E+00  0.95201292895E+00 -0.24133180240E-01  0.11802332431E+01  0.00000000000E+00 0.  1.
         11    1    3    3    0    0 -0.10892497938E+02  0.70561322373E+01 -0.36098152091E+02  0.38360293249E+02  0.51100000000E-03 0. -1.
        -11    1    3    3    0    0 -0.17595841323E+01 -0.30152644708E+01 -0.63482215459E+01  0.72448514964E+01  0.51100000000E-03 0.  1.
        -12    1    3    3    0    0  0.11954916752E+02 -0.49928806954E+01  0.42470506817E+02  0.44402622012E+02  0.00000000000E+00 0.  1.
</event>
<event>
 7    1  0.4195243E-015  0.9000769E+02  0.7816164E-02  0.1186339E+00
        -11   -1    0    0    0    0  0.00000000000E+00  0.00000000000E+00  0.45593999997E+02  0.45594000000E+02  0.51100000000E-03 0.  1.
         11   -1    0    0    0    0 -0.00000000000E+00 -0.00000000000E+00 -0.45593999997E+02  0.45594000000E+02  0.51100000000E-03 0. -1.
    9900012    2    1    2    0    0  0.29813727106E+00 -0.73509261270E+00 -0.87400501355E+00  0.90007689979E+02  0.89999950687E+02 0.  0.
        -12    1    1    2    0    0 -0.29813727106E+00  0.73509261270E+00  0.87400501355E+00  0.11803100209E+01  0.00000000000E+00 0.  1.
         11    1    3    3    0    0 -0.40937526645E+02 -0.13776075033E+02 -0.21615614951E+01  0.43247354595E+02  0.51100000000E-03 0. -1.
        -11    1    3    3    0    0  0.78151560215E+01 -0.19823098019E+01 -0.51361477442E+01  0.95596145165E+01  0.51100000000E-03 0.  1.
        -12    1    3    3    0    0  0.33420507894E+02  0.15023292223E+02  0.64237042258E+01  0.37200720868E+02  0.00000000000E+00 0.  1.
</event>
<event>
 7    1  0.4195243E-015  0.9000786E+02  0.7816164E-02  0.1186339E+00
        -11   -1    0    0    0    0  0.00000000000E+00  0.00000000000E+00  0.45593999997E+02  0.45594000000E+02  0.51100000000E-03 0.  1.
         11   -1    0    0    0    0 -0.00000000000E+00 -0.00000000000E+00 -0.45593999997E+02  0.45594000000E+02  0.51100000000E-03 0. -1.
    9900012    2    1    2    0    0  0.23203066845E-01  0.83413778135E-02 -0.11798818340E+01  0.90007860558E+02  0.90000123517E+02 0.  0.
        -12    1    1    2    0    0 -0.23203066845E-01 -0.83413778135E-02  0.11798818340E+01  0.11801394423E+01  0.00000000000E+00 0.  1.
         11    1    3    3    0    0 -0.48612500684E+01  0.88881892857E+01 -0.95675383829E+01  0.13934469921E+02  0.51100000000E-03 0. -1.
        -11    1    3    3    0    0 -0.32796688165E+02 -0.12162141210E+02  0.14301830842E+02  0.37789982788E+02  0.51100000000E-03 0.  1.
         12    1    3    3    0    0  0.37681141300E+02  0.32822933017E+01 -0.59141742936E+01  0.38283407849E+02  0.00000000000E+00 0. -1.
</event>
<event>
 7    1  0.4195243E-015  0.9000774E+02  0.7816164E-02  0.1186339E+00
        -11   -1    0    0    0    0  0.00000000000E+00  0.00000000000E+00  0.45593999997E+02  0.45594000000E+02  0.51100000000E-03 0.  1.
         11   -1    0    0    0    0 -0.00000000000E+00 -0.00000000000E+00 -0.45593999997E+02  0.45594000000E+02  0.51100000000E-03 0. -1.
    9900012    2    1    2    0    0 -0.36742513918E+00 -0.74393356958E+00 -0.83938381797E+00  0.90007744272E+02  0.90000005697E+02 0.  0.
        -12    1    1    2    0    0  0.36742513918E+00  0.74393356958E+00  0.83938381797E+00  0.11802557277E+01  0.00000000000E+00 0.  1.
         11    1    3    3    0    0  0.92427203795E+01 -0.18632230638E+00 -0.60548092193E+01  0.11050941632E+02  0.51100000000E-03 0. -1.
        -11    1    3    3    0    0  0.28848428867E+02  0.20069454037E+02  0.21763373015E+01  0.35210101928E+02  0.51100000000E-03 0.  1.
         12    1    3    3    0    0 -0.38458574386E+02 -0.20627065300E+02  0.30390880998E+01  0.43746700712E+02  0.00000000000E+00 0. -1.
</event>
<event>
 7    1  0.4195243E-015  0.9000770E+02  0.7816164E-02  0.1186339E+00
        -11   -1    0    0    0    0  0.00000000000E+00  0.00000000000E+00  0.45593999997E+02  0.45594000000E+02  0.51100000000E-03 0. -1.
         11   -1    0    0    0    0 -0.00000000000E+00 -0.00000000000E+00 -0.45593999997E+02  0.45594000000E+02  0.51100000000E-03 0.  1.
    9900012    2    1    2    0    0 -0.42907257683E+00  0.10788785486E+01  0.21219794935E+00  0.90007699120E+02  0.89999959948E+02 0.  0.
        -12    1    1    2    0    0  0.42907257683E+00 -0.10788785486E+01 -0.21219794935E+00  0.11803008805E+01  0.00000000000E+00 0.  1.
         11    1    3    3    0    0 -0.56717409057E+01  0.53572357207E+00  0.76844776208E+01  0.95659208241E+01  0.51100000000E-03 0. -1.
        -11    1    3    3    0    0 -0.35156427115E+02  0.98885752175E+00 -0.16800940138E+02  0.38977221508E+02  0.51100000000E-03 0.  1.
         12    1    3    3    0    0  0.40399095444E+02 -0.44570254523E+00  0.93286604668E+01  0.41464556787E+02  0.00000000000E+00 0. -1.
</event>
<event>
 7    1  0.4195243E-015  0.9000772E+02  0.7816164E-02  0.1186339E+00
        -11   -1    0    0    0    0  0.00000000000E+00  0.00000000000E+00  0.45593999997E+02  0.45594000000E+02  0.51100000000E-03 0.  1.
         11   -1    0    0    0    0 -0.00000000000E+00 -0.00000000000E+00 -0.45593999997E+02  0.45594000000E+02  0.51100000000E-03 0. -1.
    9900012    2    1    2    0    0 -0.90085639580E+00 -0.67082461520E+00  0.36266341535E+00  0.90007715008E+02  0.89999976046E+02 0.  0.
        -12    1    1    2    0    0  0.90085639580E+00  0.67082461520E+00 -0.36266341535E+00  0.11802849923E+01  0.00000000000E+00 0.  1.
         11    1    3    3    0    0 -0.13195981601E+02  0.34739081580E+02  0.19165692600E+01  0.37210360888E+02  0.51100000000E-03 0. -1.
        -11    1    3    3    0    0 -0.82713949092E+01  0.23929526674E+01 -0.43968934838E+01  0.96682402112E+01  0.51100000000E-03 0.  1.
        -12    1    3    3    0    0  0.20566520114E+02 -0.37802858863E+02  0.28429876391E+01  0.43129113908E+02  0.00000000000E+00 0.  1.
</event>
<event>
 7    1  0.4195243E-015  0.9000776E+02  0.7816164E-02  0.1186339E+00
        -11   -1    0    0    0    0  0.00000000000E+00  0.00000000000E+00  0.45593999997E+02  0.45594000000E+02  0.51100000000E-03 0. -1.
         11   -1    0    0    0    0 -0.00000000000E+00 -0.00000000000E+00 -0.45593999997E+02  0.45594000000E+02  0.51100000000E-03 0.  1.
    9900012    2    1    2    0    0  0.50276409198E+00 -0.10673608882E+01 -0.30712832326E-01  0.90007756688E+02  0.90000018276E+02 0.  0.
        -12    1    1    2    0    0 -0.50276409198E+00  0.10673608882E+01  0.30712832326E-01  0.11802433122E+01  0.00000000000E+00 0.  1.
         11    1    3    3    0    0 -0.19966879571E+02  0.33599053670E+02  0.34162448718E+01  0.39233192792E+02  0.51100000000E-03 0. -1.
        -11    1    3    3    0    0  0.30539604670E+01  0.86547969789E+00  0.87977745574E+01  0.93528908400E+01  0.51100000000E-03 0.  1.
        -12    1    3    3    0    0  0.17415683196E+02 -0.35531894256E+02 -0.12244732262E+02  0.41421673056E+02  0.00000000000E+00 0.  1.
</event>
<event>
 7    1  0.4195243E-015  0.9000758E+02  0.7816164E-02  0.1186339E+00
        -11   -1    0    0    0    0  0.00000000000E+00  0.00000000000E+00  0.45593999997E+02  0.45594000000E+02  0.51100000000E-03 0.  1.
         11   -1    0    0    0    0 -0.00000000000E+00 -0.00000000000E+00 -0.45593999997E+02  0.45594000000E+02  0.51100000000E-03 0. -1.
    9900012    2    1    2    0    0  0.50310112934E+00 -0.10546724760E+01 -0.16718256383E+00  0.90007578555E+02  0.89999837792E+02 0.  0.
        -12    1    1    2    0    0 -0.50310112934E+00  0.10546724760E+01  0.16718256383E+00  0.11804214449E+01  0.00000000000E+00 0.  1.
         11    1    3    3    0    0 -0.12756327099E+02  0.86229624476E+01  0.15576396542E+02  0.21902134415E+02  0.51100000000E-03 0. -1.
        -11    1    3    3    0    0  0.25492506846E+02 -0.69729639888E+01  0.18089713103E+02  0.32026986316E+02  0.51100000000E-03 0.  1.
         12    1    3    3    0    0 -0.12233078618E+02 -0.27046709348E+01 -0.33833292208E+02  0.36078457824E+02  0.00000000000E+00 0. -1.
</event>
<event>
 7    1  0.4195243E-015  0.9000770E+02  0.7816164E-02  0.1186339E+00
        -11   -1    0    0    0    0  0.00000000000E+00  0.00000000000E+00  0.45593999997E+02  0.45594000000E+02  0.51100000000E-03 0.  1.
         11   -1    0    0    0    0 -0.00000000000E+00 -0.00000000000E+00 -0.45593999997E+02  0.45594000000E+02  0.51100000000E-03 0. -1.
    9900012    2    1    2    0    0  0.97123729450E+00  0.55023713948E+00  0.38347976257E+00  0.90007695158E+02  0.89999955934E+02 0.  0.
        -12    1    1    2    0    0 -0.97123729450E+00 -0.55023713948E+00 -0.38347976257E+00  0.11803048421E+01  0.00000000000E+00 0.  1.
         11    1    3    3    0    0 -0.25188046404E+00  0.86486340278E+01 -0.31094258366E+02  0.32275613362E+02  0.51100000000E-03 0. -1.
        -11    1    3    3    0    0 -0.11067851304E+02  0.16742456674E+02  0.87711553638E+01  0.21902975931E+02  0.51100000000E-03 0.  1.
        -12    1    3    3    0    0  0.12290969063E+02 -0.24840853562E+02  0.22706582765E+02  0.35829105865E+02  0.00000000000E+00 0.  1.
</event>
<event>
 7    1  0.4195243E-015  0.9000774E+02  0.7816164E-02  0.1186339E+00
        -11   -1    0    0    0    0  0.00000000000E+00  0.00000000000E+00  0.45593999997E+02  0.45594000000E+02  0.51100000000E-03 0. -1.
         11   -1    0    0    0    0 -0.00000000000E+00 -0.00000000000E+00 -0.45593999997E+02  0.45594000000E+02  0.51100000000E-03 0.  1.
    9900012    2    1    2    0    0  0.18589763428E+00 -0.11338602400E+01 -0.26986443444E+00  0.90007735713E+02  0.89999997024E+02 0.  0.
        -12    1    1    2    0    0 -0.18589763428E+00  0.11338602400E+01  0.26986443444E+00  0.11802642870E+01  0.00000000000E+00 0.  1.
         11    1    3    3    0    0 -0.54983898461E+01 -0.80404516264E+01  0.17980996796E+01  0.99052670824E+01  0.51100000000E-03 0. -1.
        -11    1    3    3    0    0  0.23283283476E+01 -0.27202510733E+02  0.24542218404E+02  0.36711281475E+02  0.51100000000E-03 0.  1.
         12    1    3    3    0    0  0.33559591327E+01  0.34109102119E+02 -0.26610182518E+02  0.43391187155E+02  0.00000000000E+00 0. -1.
</event>
<event>
 7    1  0.4195243E-015  0.9000790E+02  0.7816164E-02  0.1186339E+00
        -11   -1    0    0    0    0  0.00000000000E+00  0.00000000000E+00  0.45593999997E+02  0.45594000000E+02  0.51100000000E-03 0. -1.
         11   -1    0    0    0    0 -0.00000000000E+00 -0.00000000000E+00 -0.45593999997E+02  0.45594000000E+02  0.51100000000E-03 0.  1.
    9900012    2    1    2    0    0  0.56598180861E+00 -0.12544773404E+00  0.10278954929E+01  0.90007897595E+02  0.90000161043E+02 0.  0.
        -12    1    1    2    0    0 -0.56598180861E+00  0.12544773404E+00 -0.10278954929E+01  0.11801024049E+01  0.00000000000E+00 0.  1.
         11    1    3    3    0    0  0.10559903191E+01  0.17471246834E+01  0.91982471261E+01  0.94220650957E+01  0.51100000000E-03 0. -1.
        -11    1    3    3    0    0 -0.18849376627E+02 -0.21974370025E+02  0.24593847012E+02  0.37987224804E+02  0.51100000000E-03 0.  1.
         12    1    3    3    0    0  0.18359368117E+02  0.20101797608E+02 -0.32764198645E+02  0.42598607695E+02  0.00000000000E+00 0. -1.
</event>
<event>
 7    1  0.5101581E-015  0.9000774E+02  0.7816164E-02  0.1186339E+00
        -11   -1    0    0    0    0  0.00000000000E+00  0.00000000000E+00  0.45593999997E+02  0.45594000000E+02  0.51100000000E-03 0. -1.
         11   -1    0    0    0    0 -0.00000000000E+00 -0.00000000000E+00 -0.45593999997E+02  0.45594000000E+02  0.51100000000E-03 0.  1.
    9900012    2    1    2    0    0 -0.39386962919E+00  0.81547910921E+00  0.75687976499E+00  0.90007743061E+02  0.90000004470E+02 0.  0.
        -12    1    1    2    0    0  0.39386962919E+00 -0.81547910921E+00 -0.75687976499E+00  0.11802569386E+01  0.00000000000E+00 0.  1.
         11    1    3    3    0    0  0.15488971843E+02  0.25695003180E+02  0.19547669919E+02  0.35808558149E+02  0.51100000000E-03 0. -1.
        -11    1    3    3    0    0  0.42148726071E+00  0.90246243780E+01  0.43541233260E+01  0.10028952432E+02  0.51100000000E-03 0.  1.
        -12    1    3    3    0    0 -0.16304328733E+02 -0.33904148449E+02 -0.23144913480E+02  0.44170232481E+02  0.00000000000E+00 0.  1.
</event>
<event>
 7    1  0.4195243E-015  0.9000695E+02  0.7816164E-02  0.1186341E+00
        -11   -1    0    0    0    0  0.00000000000E+00  0.00000000000E+00  0.45593999997E+02  0.45594000000E+02  0.51100000000E-03 0. -1.
         11   -1    0    0    0    0 -0.00000000000E+00 -0.00000000000E+00 -0.45593999997E+02  0.45594000000E+02  0.51100000000E-03 0.  1.
    9900012    2    1    2    0    0  0.10142061187E+01 -0.35782393249E+00  0.48808647472E+00  0.90006949440E+02  0.89999200369E+02 0.  0.
        -12    1    1    2    0    0 -0.10142061187E+01  0.35782393249E+00 -0.48808647472E+00  0.11810505597E+01  0.00000000000E+00 0.  1.
         11    1    3    3    0    0 -0.18463911959E+02  0.31208062013E+02 -0.11723778807E+01  0.36279934531E+02  0.51100000000E-03 0. -1.
        -11    1    3    3    0    0 -0.94367308795E+01  0.24191983747E+00 -0.42207357660E+01  0.10340455772E+02  0.51100000000E-03 0.  1.
        -12    1    3    3    0    0  0.28914848957E+02 -0.31807805783E+02  0.58812001214E+01  0.43386559138E+02  0.00000000000E+00 0.  1.
</event>
<event>
 7    1  0.4195243E-015  0.9000689E+02  0.7816164E-02  0.1186341E+00
        -11   -1    0    0    0    0  0.00000000000E+00  0.00000000000E+00  0.45593999997E+02  0.45594000000E+02  0.51100000000E-03 0. -1.
         11   -1    0    0    0    0 -0.00000000000E+00 -0.00000000000E+00 -0.45593999997E+02  0.45594000000E+02  0.51100000000E-03 0.  1.
    9900012    2    1    2    0    0  0.58791954338E+00 -0.54360858611E+00  0.86825684809E+00  0.90006886272E+02  0.89999136367E+02 0.  0.
        -12    1    1    2    0    0 -0.58791954338E+00  0.54360858611E+00 -0.86825684809E+00  0.11811137281E+01  0.00000000000E+00 0.  1.
         11    1    3    3    0    0  0.23763540944E+02 -0.26846497482E+02  0.21997601628E+02  0.42063461376E+02  0.51100000000E-03 0. -1.
        -11    1    3    3    0    0  0.48379359599E+01  0.74449589741E+01 -0.18895909611E+01  0.90776424660E+01  0.51100000000E-03 0.  1.
        -12    1    3    3    0    0 -0.28013557360E+02  0.18857929922E+02 -0.19239753819E+02  0.38865782430E+02  0.00000000000E+00 0.  1.
</event>
<event>
 7    1  0.4195243E-015  0.9000779E+02  0.7816164E-02  0.1186339E+00
        -11   -1    0    0    0    0  0.00000000000E+00  0.00000000000E+00  0.45593999997E+02  0.45594000000E+02  0.51100000000E-03 0.  1.
         11   -1    0    0    0    0 -0.00000000000E+00 -0.00000000000E+00 -0.45593999997E+02  0.45594000000E+02  0.51100000000E-03 0. -1.
    9900012    2    1    2    0    0  0.16926940231E-01 -0.74257315364E+00 -0.91716997549E+00  0.90007787234E+02  0.90000049225E+02 0.  0.
        -12    1    1    2    0    0 -0.16926940231E-01  0.74257315364E+00  0.91716997549E+00  0.11802127663E+01  0.00000000000E+00 0.  1.
         11    1    3    3    0    0 -0.19807546929E+02  0.10558684314E+01  0.16524826022E+02  0.25817119298E+02  0.51100000000E-03 0. -1.
        -11    1    3    3    0    0 -0.18786534854E+02  0.93781896376E+01 -0.10214507114E+02  0.23349956928E+02  0.51100000000E-03 0.  1.
         12    1    3    3    0    0  0.38611008723E+02 -0.11176631223E+02 -0.72274888839E+01  0.40840711008E+02  0.00000000000E+00 0. -1.
</event>
<event>
 7    1  0.4195243E-015  0.9000774E+02  0.7816164E-02  0.1186339E+00
        -11   -1    0    0    0    0  0.00000000000E+00  0.00000000000E+00  0.45593999997E+02  0.45594000000E+02  0.51100000000E-03 0.  1.
         11   -1    0    0    0    0 -0.00000000000E+00 -0.00000000000E+00 -0.45593999997E+02  0.45594000000E+02  0.51100000000E-03 0. -1.
    9900012    2    1    2    0    0 -0.41115298305E-01  0.56870440423E+00 -0.10333936353E+01  0.90007738346E+02  0.89999999692E+02 0.  0.
        -12    1    1    2    0    0  0.41115298305E-01 -0.56870440423E+00  0.10333936353E+01  0.11802616543E+01  0.00000000000E+00 0.  1.
         11    1    3    3    0    0 -0.12121529179E+02 -0.84222280275E+01 -0.35980170389E+02  0.38890076576E+02  0.51100000000E-03 0. -1.
        -11    1    3    3    0    0  0.11979818804E+01  0.32943687207E+01 -0.67734625022E+01  0.76267830953E+01  0.51100000000E-03 0.  1.
        -12    1    3    3    0    0  0.10882432001E+02  0.56965637110E+01  0.41720239256E+02  0.43490878675E+02  0.00000000000E+00 0.  1.
</event>
<event>
 7    1  0.4195243E-015  0.9000774E+02  0.7816164E-02  0.1186339E+00
        -11   -1    0    0    0    0  0.00000000000E+00  0.00000000000E+00  0.45593999997E+02  0.45594000000E+02  0.51100000000E-03 0. -1.
         11   -1    0    0    0    0 -0.00000000000E+00 -0.00000000000E+00 -0.45593999997E+02  0.45594000000E+02  0.51100000000E-03 0.  1.
    9900012    2    1    2    0    0 -0.36326934309E+00 -0.11121823463E+01 -0.15523074580E+00  0.90007741227E+02  0.90000002611E+02 0.  0.
        -12    1    1    2    0    0  0.36326934309E+00  0.11121823463E+01  0.15523074580E+00  0.11802587731E+01  0.00000000000E+00 0.  1.
         11    1    3    3    0    0  0.30308514074E+01  0.29621179197E+01 -0.84101688995E+01  0.94175975706E+01  0.51100000000E-03 0. -1.
        -11    1    3    3    0    0 -0.14959130080E+02  0.26847260726E+02 -0.20389544500E+02  0.36882035009E+02  0.51100000000E-03 0.  1.
         12    1    3    3    0    0  0.11565009330E+02 -0.30921560992E+02  0.28644482653E+02  0.43708108647E+02  0.00000000000E+00 0. -1.
</event>
<event>
 7    1  0.4195243E-015  0.9000770E+02  0.7816164E-02  0.1186339E+00
        -11   -1    0    0    0    0  0.00000000000E+00  0.00000000000E+00  0.45593999997E+02  0.45594000000E+02  0.51100000000E-03 0.  1.
         11   -1    0    0    0    0 -0.00000000000E+00 -0.00000000000E+00 -0.45593999997E+02  0.45594000000E+02  0.51100000000E-03 0. -1.
    9900012    2    1    2    0    0  0.55519399016E+00  0.94248075995E+00 -0.44339224969E+00  0.90007700446E+02  0.89999961292E+02 0.  0.
        -12    1    1    2    0    0 -0.55519399016E+00 -0.94248075995E+00  0.44339224969E+00  0.11802995538E+01  0.00000000000E+00 0.  1.
         11    1    3    3    0    0 -0.29134004053E-01  0.33823619431E+01  0.11166838256E+02  0.11667883184E+02  0.51100000000E-03 0. -1.
        -11    1    3    3    0    0  0.17818590470E+02 -0.95232416955E+01  0.28021934075E+02  0.34545956179E+02  0.51100000000E-03 0.  1.
         12    1    3    3    0    0 -0.17234262476E+02  0.70833605124E+01 -0.39632164581E+02  0.43793861083E+02  0.00000000000E+00 0. -1.
</event>
<event>
 7    1  0.4195243E-015  0.9000775E+02  0.7816164E-02  0.1186339E+00
        -11   -1    0    0    0    0  0.00000000000E+00  0.00000000000E+00  0.45593999997E+02  0.45594000000E+02  0.51100000000E-03 0. -1.
         11   -1    0    0    0    0 -0.00000000000E+00 -0.00000000000E+00 -0.45593999997E+02  0.45594000000E+02  0.51100000000E-03 0.  1.
    9900012    2    1    2    0    0  0.96264052450E+00 -0.10566403601E+00 -0.67463827888E+00  0.90007754909E+02  0.90000016474E+02 0.  0.
        -12    1    1    2    0    0 -0.96264052450E+00  0.10566403601E+00  0.67463827888E+00  0.11802450912E+01  0.00000000000E+00 0.  1.
         11    1    3    3    0    0 -0.69899440927E+01  0.41447936159E+01  0.44854861856E+00  0.81387854537E+01  0.51100000000E-03 0. -1.
        -11    1    3    3    0    0 -0.29015854295E+02  0.13641604558E+02 -0.18786642990E+02  0.37161150823E+02  0.51100000000E-03 0.  1.
         12    1    3    3    0    0  0.36968438912E+02 -0.17892062210E+02  0.17663456093E+02  0.44707818632E+02  0.00000000000E+00 0. -1.
</event>
<event>
 7    1  0.4195243E-015  0.9000780E+02  0.7816164E-02  0.1186339E+00
        -11   -1    0    0    0    0  0.00000000000E+00  0.00000000000E+00  0.45593999997E+02  0.45594000000E+02  0.51100000000E-03 0.  1.
         11   -1    0    0    0    0 -0.00000000000E+00 -0.00000000000E+00 -0.45593999997E+02  0.45594000000E+02  0.51100000000E-03 0. -1.
    9900012    2    1    2    0    0  0.91764891138E+00 -0.47564980975E+00 -0.56969406122E+00  0.90007799344E+02  0.90000061495E+02 0.  0.
        -12    1    1    2    0    0 -0.91764891138E+00  0.47564980975E+00  0.56969406122E+00  0.11802006564E+01  0.00000000000E+00 0.  1.
         11    1    3    3    0    0 -0.27510650313E+00  0.78639914656E+01 -0.39503821629E+01  0.88047467228E+01  0.51100000000E-03 0. -1.
        -11    1    3    3    0    0  0.15560614823E+02  0.11399197766E+02  0.35772046752E+02  0.40641281630E+02  0.51100000000E-03 0.  1.
         12    1    3    3    0    0 -0.14367859409E+02 -0.19738839042E+02 -0.32391358651E+02  0.40561770991E+02  0.00000000000E+00 0. -1.
</event>
<event>
 7    1  0.4195243E-015  0.9000787E+02  0.7816164E-02  0.1186339E+00
        -11   -1    0    0    0    0  0.00000000000E+00  0.00000000000E+00  0.45593999997E+02  0.45594000000E+02  0.51100000000E-03 0.  1.
         11   -1    0    0    0    0 -0.00000000000E+00 -0.00000000000E+00 -0.45593999997E+02  0.45594000000E+02  0.51100000000E-03 0. -1.
    9900012    2    1    2    0    0  0.92098365574E+00 -0.54773540686E+00  0.49446027563E+00  0.90007866137E+02  0.90000129170E+02 0.  0.
        -12    1    1    2    0    0 -0.92098365574E+00  0.54773540686E+00 -0.49446027563E+00  0.11801338628E+01  0.00000000000E+00 0.  1.
         11    1    3    3    0    0  0.12077210395E+02 -0.24747422012E+02 -0.10943017390E+02  0.29631799423E+02  0.51100000000E-03 0. -1.
        -11    1    3    3    0    0  0.61355450847E+01 -0.13535887876E+02 -0.50739971096E+01  0.15703840964E+02  0.51100000000E-03 0.  1.
        -12    1    3    3    0    0 -0.17291771824E+02  0.37735574481E+02  0.16511474776E+02  0.44672225751E+02  0.00000000000E+00 0.  1.
</event>
<event>
 7    1  0.4195243E-015  0.9000773E+02  0.7816164E-02  0.1186339E+00
        -11   -1    0    0    0    0  0.00000000000E+00  0.00000000000E+00  0.45593999997E+02  0.45594000000E+02  0.51100000000E-03 0.  1.
         11   -1    0    0    0    0 -0.00000000000E+00 -0.00000000000E+00 -0.45593999997E+02  0.45594000000E+02  0.51100000000E-03 0. -1.
    9900012    2    1    2    0    0 -0.51875398124E+00 -0.30970949912E+00 -0.10139090044E+01  0.90007730058E+02  0.89999991295E+02 0.  0.
        -12    1    1    2    0    0  0.51875398124E+00  0.30970949912E+00  0.10139090044E+01  0.11802699420E+01  0.00000000000E+00 0.  1.
         11    1    3    3    0    0  0.74777496741E+01 -0.40641091039E+01  0.40456802159E+01  0.94234416042E+01  0.51100000000E-03 0. -1.
        -11    1    3    3    0    0  0.97745741252E+01  0.18734919402E+02  0.31099428144E+02  0.37599387435E+02  0.51100000000E-03 0.  1.
         12    1    3    3    0    0 -0.17771077781E+02 -0.14980519797E+02 -0.36159017364E+02  0.42984901019E+02  0.00000000000E+00 0. -1.
</event>
<event>
 7    1  0.4195243E-015  0.9000774E+02  0.7816164E-02  0.1186339E+00
        -11   -1    0    0    0    0  0.00000000000E+00  0.00000000000E+00  0.45593999997E+02  0.45594000000E+02  0.51100000000E-03 0. -1.
         11   -1    0    0    0    0 -0.00000000000E+00 -0.00000000000E+00 -0.45593999997E+02  0.45594000000E+02  0.51100000000E-03 0.  1.
    9900012    2    1    2    0    0  0.40445182390E+00 -0.86785241819E+00  0.69011255730E+00  0.90007743909E+02  0.90000005329E+02 0.  0.
        -12    1    1    2    0    0 -0.40445182390E+00  0.86785241819E+00 -0.69011255730E+00  0.11802560906E+01  0.00000000000E+00 0.  1.
         11    1    3    3    0    0  0.22263270308E+02 -0.26458039495E+02  0.10882564120E+02  0.36250672557E+02  0.51100000000E-03 0. -1.
        -11    1    3    3    0    0 -0.10136890610E+01 -0.89739565009E+01  0.53591379680E+01  0.10501419943E+02  0.51100000000E-03 0.  1.
        -12    1    3    3    0    0 -0.20845129423E+02  0.34564143578E+02 -0.15551589531E+02  0.43255651410E+02  0.00000000000E+00 0.  1.
</event>
<event>
 7    1  0.4195243E-015  0.9000750E+02  0.7816164E-02  0.1186340E+00
        -11   -1    0    0    0    0  0.00000000000E+00  0.00000000000E+00  0.45593999997E+02  0.45594000000E+02  0.51100000000E-03 0. -1.
         11   -1    0    0    0    0 -0.00000000000E+00 -0.00000000000E+00 -0.45593999997E+02  0.45594000000E+02  0.51100000000E-03 0.  1.
    9900012    2    1    2    0    0  0.59355211909E+00 -0.86990971004E+00 -0.53341410951E+00  0.90007501108E+02  0.89999759322E+02 0.  0.
        -12    1    1    2    0    0 -0.59355211909E+00  0.86990971004E+00  0.53341410951E+00  0.11804988920E+01  0.00000000000E+00 0.  1.
         11    1    3    3    0    0  0.16235063390E+02 -0.34417305350E+02  0.16274467204E+02  0.41388240768E+02  0.51100000000E-03 0. -1.
        -11    1    3    3    0    0  0.73354841181E+01  0.68838045785E+01 -0.12524080561E+01  0.10137288539E+02  0.51100000000E-03 0.  1.
        -12    1    3    3    0    0 -0.22976995389E+02  0.26663591062E+02 -0.15555473258E+02  0.38481971801E+02  0.00000000000E+00 0.  1.
</event>
<event>
 7    1  0.4195243E-015  0.9000772E+02  0.7816164E-02  0.1186339E+00
        -11   -1    0    0    0    0  0.00000000000E+00  0.00000000000E+00  0.45593999997E+02  0.45594000000E+02  0.51100000000E-03 0. -1.
         11   -1    0    0    0    0 -0.00000000000E+00 -0.00000000000E+00 -0.45593999997E+02  0.45594000000E+02  0.51100000000E-03 0.  1.
    9900012    2    1    2    0    0 -0.84624557612E+00  0.80060773612E+00 -0.18961851754E+00  0.90007720582E+02  0.89999981694E+02 0.  0.
        -12    1    1    2    0    0  0.84624557612E+00 -0.80060773612E+00  0.18961851754E+00  0.11802794180E+01  0.00000000000E+00 0.  1.
         11    1    3    3    0    0  0.20670716555E+02 -0.16132256330E+02  0.27116646118E+02  0.37720560894E+02  0.51100000000E-03 0. -1.
        -11    1    3    3    0    0 -0.67276412607E+01  0.10147759063E+00  0.80112871708E+01  0.10461939449E+02  0.51100000000E-03 0.  1.
        -12    1    3    3    0    0 -0.14789320871E+02  0.16831386475E+02 -0.35317551806E+02  0.41825220240E+02  0.00000000000E+00 0.  1.
</event>
<event>
 7    1  0.4195243E-015  0.9000774E+02  0.7816164E-02  0.1186339E+00
        -11   -1    0    0    0    0  0.00000000000E+00  0.00000000000E+00  0.45593999997E+02  0.45594000000E+02  0.51100000000E-03 0.  1.
         11   -1    0    0    0    0 -0.00000000000E+00 -0.00000000000E+00 -0.45593999997E+02  0.45594000000E+02  0.51100000000E-03 0. -1.
    9900012    2    1    2    0    0  0.99173092896E+00  0.29810412750E+00  0.56623504835E+00  0.90007737980E+02  0.89999999321E+02 0.  0.
        -12    1    1    2    0    0 -0.99173092896E+00 -0.29810412750E+00 -0.56623504835E+00  0.11802620202E+01  0.00000000000E+00 0.  1.
         11    1    3    3    0    0 -0.73078004764E+01 -0.11310733687E+02 -0.37539330309E+02  0.39881549176E+02  0.51100000000E-03 0. -1.
        -11    1    3    3    0    0 -0.94099565635E+01 -0.18188854541E+01  0.68747402221E+01  0.11794815819E+02  0.51100000000E-03 0.  1.
        -12    1    3    3    0    0  0.17709487969E+02  0.13427723269E+02  0.31230825135E+02  0.38331372985E+02  0.00000000000E+00 0.  1.
</event>
<event>
 7    1  0.4195243E-015  0.9000774E+02  0.7816164E-02  0.1186339E+00
        -11   -1    0    0    0    0  0.00000000000E+00  0.00000000000E+00  0.45593999997E+02  0.45594000000E+02  0.51100000000E-03 0. -1.
         11   -1    0    0    0    0 -0.00000000000E+00 -0.00000000000E+00 -0.45593999997E+02  0.45594000000E+02  0.51100000000E-03 0.  1.
    9900012    2    1    2    0    0 -0.27831292923E+00 -0.97684536467E-01  0.11428134395E+01  0.90007736083E+02  0.89999997400E+02 0.  0.
        -12    1    1    2    0    0  0.27831292923E+00  0.97684536467E-01 -0.11428134395E+01  0.11802639166E+01  0.00000000000E+00 0.  1.
         11    1    3    3    0    0 -0.11181506401E+02 -0.24659279192E+02  0.23582960254E+02  0.35906296805E+02  0.51100000000E-03 0. -1.
        -11    1    3    3    0    0  0.16119325791E+01 -0.11657923299E+02 -0.41832516008E+01  0.12490200019E+02  0.51100000000E-03 0.  1.
        -12    1    3    3    0    0  0.92912608931E+01  0.36219517955E+02 -0.18256895214E+02  0.41611239259E+02  0.00000000000E+00 0.  1.
</event>
<event>
 7    1  0.4195243E-015  0.9000776E+02  0.7816164E-02  0.1186339E+00
        -11   -1    0    0    0    0  0.00000000000E+00  0.00000000000E+00  0.45593999997E+02  0.45594000000E+02  0.51100000000E-03 0. -1.
         11   -1    0    0    0    0 -0.00000000000E+00 -0.00000000000E+00 -0.45593999997E+02  0.45594000000E+02  0.51100000000E-03 0.  1.
    9900012    2    1    2    0    0 -0.80695922971E+00  0.32144647574E+00  0.79903934188E+00  0.90007756421E+02  0.90000018006E+02 0.  0.
        -12    1    1    2    0    0  0.80695922971E+00 -0.32144647574E+00 -0.79903934188E+00  0.11802435787E+01  0.00000000000E+00 0.  1.
         11    1    3    3    0    0 -0.31568918392E+02 -0.16721074580E+02  0.16287155124E+02  0.39261461585E+02  0.51100000000E-03 0. -1.
        -11    1    3    3    0    0 -0.64859754800E+01  0.73407609776E+01 -0.39658518752E+01  0.10568000332E+02  0.51100000000E-03 0.  1.
        -12    1    3    3    0    0  0.37247934642E+02  0.97017600781E+01 -0.11522263907E+02  0.40178294504E+02  0.00000000000E+00 0.  1.
</event>
<event>
 7    1  0.4195243E-015  0.9000759E+02  0.7816164E-02  0.1186339E+00
        -11   -1    0    0    0    0  0.00000000000E+00  0.00000000000E+00  0.45593999997E+02  0.45594000000E+02  0.51100000000E-03 0. -1.
         11   -1    0    0    0    0 -0.00000000000E+00 -0.00000000000E+00 -0.45593999997E+02  0.45594000000E+02  0.51100000000E-03 0.  1.
    9900012    2    1    2    0    0  0.17458012480E+00  0.11297119936E+01  0.29434761500E+00  0.90007589933E+02  0.89999849320E+02 0.  0.
        -12    1    1    2    0    0 -0.17458012480E+00 -0.11297119936E+01 -0.29434761500E+00  0.11804100673E+01  0.00000000000E+00 0.  1.
         11    1    3    3    0    0  0.61512974359E+01  0.11458373591E+01 -0.69887011040E+01  0.93804768952E+01  0.51100000000E-03 0. -1.
        -11    1    3    3    0    0 -0.54885805498E+01  0.18893541475E+02 -0.31693039998E+02  0.37303340474E+02  0.51100000000E-03 0.  1.
         12    1    3    3    0    0 -0.48813676132E+00 -0.18909666841E+02  0.38976088717E+02  0.43323772564E+02  0.00000000000E+00 0. -1.
</event>
<event>
 7    1  0.4859451E-015  0.9000772E+02  0.7816164E-02  0.1186339E+00
        -11   -1    0    0    0    0  0.00000000000E+00  0.00000000000E+00  0.45593999997E+02  0.45594000000E+02  0.51100000000E-03 0. -1.
         11   -1    0    0    0    0 -0.00000000000E+00 -0.00000000000E+00 -0.45593999997E+02  0.45594000000E+02  0.51100000000E-03 0.  1.
    9900012    2    1    2    0    0 -0.81893433565E+00  0.41267453481E+00  0.74304162389E+00  0.90007718435E+02  0.89999979518E+02 0.  0.
        -12    1    1    2    0    0  0.81893433565E+00 -0.41267453481E+00 -0.74304162389E+00  0.11802815650E+01  0.00000000000E+00 0.  1.
         11    1    3    3    0    0  0.79029820385E+01 -0.12044783956E+02  0.36253353512E+02  0.39010762448E+02  0.51100000000E-03 0. -1.
        -11    1    3    3    0    0 -0.40451984520E+01  0.66834560896E+01  0.53486553772E+01  0.94678577525E+01  0.51100000000E-03 0.  1.
        -12    1    3    3    0    0 -0.46767179222E+01  0.57740024009E+01 -0.40858967265E+02  0.41529098235E+02  0.00000000000E+00 0.  1.
</event>
<event>
 7    1  0.4195243E-015  0.9000771E+02  0.7816164E-02  0.1186339E+00
        -11   -1    0    0    0    0  0.00000000000E+00  0.00000000000E+00  0.45593999997E+02  0.45594000000E+02  0.51100000000E-03 0. -1.
         11   -1    0    0    0    0 -0.00000000000E+00 -0.00000000000E+00 -0.45593999997E+02  0.45594000000E+02  0.51100000000E-03 0.  1.
    9900012    2    1    2    0    0 -0.39388123030E+00  0.48341687162E+00  0.10021257112E+01  0.90007707563E+02  0.89999968503E+02 0.  0.
        -12    1    1    2    0    0  0.39388123030E+00 -0.48341687162E+00 -0.10021257112E+01  0.11802924368E+01  0.00000000000E+00 0.  1.
         11    1    3    3    0    0 -0.28749402815E+01  0.53973778590E+01 -0.74331522974E+01  0.96254206512E+01  0.51100000000E-03 0. -1.
        -11    1    3    3    0    0  0.27262582831E+02  0.33276226688E+01 -0.25556683420E+02  0.37516204005E+02  0.51100000000E-03 0.  1.
         12    1    3    3    0    0 -0.24781523780E+02 -0.82415836562E+01  0.33991961429E+02  0.42866082907E+02  0.00000000000E+00 0. -1.
</event>
<event>
 7    1  0.4195243E-015  0.9000774E+02  0.7816164E-02  0.1186339E+00
        -11   -1    0    0    0    0  0.00000000000E+00  0.00000000000E+00  0.45593999997E+02  0.45594000000E+02  0.51100000000E-03 0.  1.
         11   -1    0    0    0    0 -0.00000000000E+00 -0.00000000000E+00 -0.45593999997E+02  0.45594000000E+02  0.51100000000E-03 0. -1.
    9900012    2    1    2    0    0 -0.24345458666E-02 -0.88508709467E+00 -0.78078123823E+00  0.90007743912E+02  0.90000005331E+02 0.  0.
        -12    1    1    2    0    0  0.24345458666E-02  0.88508709467E+00  0.78078123823E+00  0.11802560884E+01  0.00000000000E+00 0.  1.
         11    1    3    3    0    0 -0.32588849773E+02 -0.25888325184E+01 -0.18466608563E+02  0.37546648524E+02  0.51100000000E-03 0. -1.
        -11    1    3    3    0    0 -0.69144724355E+01  0.30891839420E+01 -0.26345621781E+01  0.80183479982E+01  0.51100000000E-03 0.  1.
        -12    1    3    3    0    0  0.39500887662E+02 -0.13854385183E+01  0.20320389503E+02  0.44442747390E+02  0.00000000000E+00 0.  1.
</event>
<event>
 7    1  0.4195243E-015  0.9000773E+02  0.7816164E-02  0.1186339E+00
        -11   -1    0    0    0    0  0.00000000000E+00  0.00000000000E+00  0.45593999997E+02  0.45594000000E+02  0.51100000000E-03 0. -1.
         11   -1    0    0    0    0 -0.00000000000E+00 -0.00000000000E+00 -0.45593999997E+02  0.45594000000E+02  0.51100000000E-03 0.  1.
    9900012    2    1    2    0    0  0.11524491895E+01 -0.25470808542E+00  0.39703744020E-02  0.90007732612E+02  0.89999993883E+02 0.  0.
        -12    1    1    2    0    0 -0.11524491895E+01  0.25470808542E+00 -0.39703744020E-02  0.11802673880E+01  0.00000000000E+00 0.  1.
         11    1    3    3    0    0 -0.67221372228E+01 -0.64921047423E+01  0.37436823245E+01  0.10067259331E+02  0.51100000000E-03 0. -1.
        -11    1    3    3    0    0 -0.19605981337E+02  0.22550003916E+02 -0.27112206577E+02  0.40348096938E+02  0.51100000000E-03 0.  1.
         12    1    3    3    0    0  0.27480567749E+02 -0.16312607259E+02  0.23372494627E+02  0.39592376343E+02  0.00000000000E+00 0. -1.
</event>
<event>
 7    1  0.4195243E-015  0.9000899E+02  0.7816164E-02  0.1186337E+00
        -11   -1    0    0    0    0  0.00000000000E+00  0.00000000000E+00  0.45593999997E+02  0.45594000000E+02  0.51100000000E-03 0.  1.
         11   -1    0    0    0    0 -0.00000000000E+00 -0.00000000000E+00 -0.45593999997E+02  0.45594000000E+02  0.51100000000E-03 0. -1.
    9900012    2    1    2    0    0  0.41239030276E+00  0.40220048982E-01 -0.11037983029E+01  0.90008994441E+02  0.90001272359E+02 0.  0.
        -12    1    1    2    0    0 -0.41239030276E+00 -0.40220048982E-01  0.11037983029E+01  0.11790055587E+01  0.00000000000E+00 0.  1.
         11    1    3    3    0    0 -0.26127440862E+01  0.40011947963E+01 -0.83216355794E+01  0.95961247614E+01  0.51100000000E-03 0. -1.
        -11    1    3    3    0    0 -0.33880857060E+02  0.13849827242E+02  0.13383988759E+02  0.38972571703E+02  0.51100000000E-03 0.  1.
         12    1    3    3    0    0  0.36905991449E+02 -0.17810801990E+02 -0.61661514828E+01  0.41440297977E+02  0.00000000000E+00 0. -1.
</event>
<event>
 7    1  0.4195243E-015  0.9000774E+02  0.7816164E-02  0.1186339E+00
        -11   -1    0    0    0    0  0.00000000000E+00  0.00000000000E+00  0.45593999997E+02  0.45594000000E+02  0.51100000000E-03 0.  1.
         11   -1    0    0    0    0 -0.00000000000E+00 -0.00000000000E+00 -0.45593999997E+02  0.45594000000E+02  0.51100000000E-03 0. -1.
    9900012    2    1    2    0    0  0.69927974095E+00  0.76751534225E+00 -0.56118631932E+00  0.90007744925E+02  0.90000006358E+02 0.  0.
        -12    1    1    2    0    0 -0.69927974095E+00 -0.76751534225E+00  0.56118631932E+00  0.11802550748E+01  0.00000000000E+00 0.  1.
         11    1    3    3    0    0  0.46079514723E+01  0.13196487081E+01  0.71421176287E+01  0.86014262752E+01  0.51100000000E-03 0. -1.
        -11    1    3    3    0    0  0.35979322106E+02 -0.14489299520E+02 -0.34853193832E+01  0.38943534396E+02  0.51100000000E-03 0.  1.
         12    1    3    3    0    0 -0.39887993838E+02  0.13937166154E+02 -0.42179845648E+01  0.42462784254E+02  0.00000000000E+00 0. -1.
</event>
<event>
 7    1  0.4195243E-015  0.9000784E+02  0.7816164E-02  0.1186339E+00
        -11   -1    0    0    0    0  0.00000000000E+00  0.00000000000E+00  0.45593999997E+02  0.45594000000E+02  0.51100000000E-03 0. -1.
         11   -1    0    0    0    0 -0.00000000000E+00 -0.00000000000E+00 -0.45593999997E+02  0.45594000000E+02  0.51100000000E-03 0.  1.
    9900012    2    1    2    0    0 -0.20909586131E+00  0.11614248375E+01 -0.11825942856E-01  0.90007843830E+02  0.90000106569E+02 0.  0.
        -12    1    1    2    0    0  0.20909586131E+00 -0.11614248375E+01  0.11825942856E-01  0.11801561699E+01  0.00000000000E+00 0.  1.
         11    1    3    3    0    0  0.12290795329E+02 -0.61216316107E+01  0.63217675264E+01  0.15116308025E+02  0.51100000000E-03 0. -1.
        -11    1    3    3    0    0  0.29795563991E+02 -0.45096900585E+01  0.19912366629E+01  0.30200628498E+02  0.51100000000E-03 0.  1.
        -12    1    3    3    0    0 -0.42295455181E+02  0.11792746507E+02 -0.83248301322E+01  0.44690907307E+02  0.00000000000E+00 0.  1.
</event>
<event>
 7    1  0.4195243E-015  0.9000783E+02  0.7816164E-02  0.1186339E+00
        -11   -1    0    0    0    0  0.00000000000E+00  0.00000000000E+00  0.45593999997E+02  0.45594000000E+02  0.51100000000E-03 0.  1.
         11   -1    0    0    0    0 -0.00000000000E+00 -0.00000000000E+00 -0.45593999997E+02  0.45594000000E+02  0.51100000000E-03 0. -1.
    9900012    2    1    2    0    0 -0.84631151799E+00  0.80198658676E+00 -0.18270535692E+00  0.90007827590E+02  0.90000090114E+02 0.  0.
        -12    1    1    2    0    0  0.84631151799E+00 -0.80198658676E+00  0.18270535692E+00  0.11801724104E+01  0.00000000000E+00 0.  1.
         11    1    3    3    0    0 -0.11163467625E+02 -0.66665673452E-01  0.31879686837E+01  0.11609935328E+02  0.51100000000E-03 0. -1.
        -11    1    3    3    0    0  0.20310065554E+01 -0.17873873704E+02  0.32465554358E+02  0.37116203589E+02  0.51100000000E-03 0.  1.
         12    1    3    3    0    0  0.82861495515E+01  0.18742525964E+02 -0.35836228398E+02  0.41281688673E+02  0.00000000000E+00 0. -1.
</event>
<event>
 7    1  0.4195243E-015  0.9000778E+02  0.7816164E-02  0.1186339E+00
        -11   -1    0    0    0    0  0.00000000000E+00  0.00000000000E+00  0.45593999997E+02  0.45594000000E+02  0.51100000000E-03 0. -1.
         11   -1    0    0    0    0 -0.00000000000E+00 -0.00000000000E+00 -0.45593999997E+02  0.45594000000E+02  0.51100000000E-03 0.  1.
    9900012    2    1    2    0    0 -0.51608585276E+00  0.10187653156E+01 -0.29779580794E+00  0.90007784037E+02  0.90000045986E+02 0.  0.
        -12    1    1    2    0    0  0.51608585276E+00 -0.10187653156E+01  0.29779580794E+00  0.11802159628E+01  0.00000000000E+00 0.  1.
         11    1    3    3    0    0 -0.15133945392E+02  0.12793301475E+02  0.31286783517E+02  0.37034682243E+02  0.51100000000E-03 0. -1.
        -11    1    3    3    0    0 -0.59848264236E+01 -0.36944368417E+01  0.60741587604E+01  0.92931381032E+01  0.51100000000E-03 0.  1.
        -12    1    3    3    0    0  0.20602685963E+02 -0.80800993179E+01 -0.37658738085E+02  0.43679963691E+02  0.00000000000E+00 0.  1.
</event>
<event>
 7    1  0.4195243E-015  0.9000774E+02  0.7816164E-02  0.1186339E+00
        -11   -1    0    0    0    0  0.00000000000E+00  0.00000000000E+00  0.45593999997E+02  0.45594000000E+02  0.51100000000E-03 0.  1.
         11   -1    0    0    0    0 -0.00000000000E+00 -0.00000000000E+00 -0.45593999997E+02  0.45594000000E+02  0.51100000000E-03 0. -1.
    9900012    2    1    2    0    0  0.13772030258E+00 -0.43617322586E+00 -0.10880254675E+01  0.90007740121E+02  0.90000001490E+02 0.  0.
        -12    1    1    2    0    0 -0.13772030258E+00  0.43617322586E+00  0.10880254675E+01  0.11802598793E+01  0.00000000000E+00 0.  1.
         11    1    3    3    0    0  0.34874032700E+01  0.28058731462E+02  0.64921215192E+01  0.29010378056E+02  0.51100000000E-03 0. -1.
        -11    1    3    3    0    0 -0.12826107495E+02  0.12391194451E+02 -0.65997379805E+01  0.19015974207E+02  0.51100000000E-03 0.  1.
        -12    1    3    3    0    0  0.94764245272E+01 -0.40886099139E+02 -0.98040900622E+00  0.41981387858E+02  0.00000000000E+00 0.  1.
</event>
<event>
 8    1  0.4195243E-015  0.9000780E+02  0.7816164E-02  0.1186339E+00
        -11   -1    0    0    0    0  0.00000000000E+00  0.00000000000E+00  0.45593999997E+02  0.45594000000E+02  0.51100000000E-03 0. -1.
         11   -1    0    0    0    0 -0.00000000000E+00 -0.00000000000E+00 -0.45593999997E+02  0.45594000000E+02  0.51100000000E-03 0.  1.
    9900012    2    1    2    0    0  0.60739169747E+00  0.99947353034E+00 -0.15811544542E+00  0.90007799803E+02  0.90000061960E+02 0.  0.
         23    2    3    3    0    0 -0.10690412381E+02 -0.15284146837E+02  0.15493854714E+02  0.64753476625E+02  0.60042178006E+02 0.  0.
        -12    1    1    2    0    0 -0.60739169747E+00 -0.99947353034E+00  0.15811544542E+00  0.11802001975E+01  0.00000000000E+00 0.  1.
         11    1    4    4    0    0  0.21393537281E+02  0.80054573106E+01  0.91341139757E+01  0.24600870362E+02  0.51100000000E-03 0. -1.
        -11    1    4    4    0    0 -0.32083949662E+02 -0.23289604148E+02  0.63597407386E+01  0.40152606264E+02  0.51100000000E-03 0.  1.
         12    1    3    3    0    0  0.11297804078E+02  0.16283620367E+02 -0.15651970160E+02  0.25254323177E+02  0.00000000000E+00 0. -1.
</event>
<event>
 7    1  0.4195243E-015  0.9000697E+02  0.7816164E-02  0.1186341E+00
        -11   -1    0    0    0    0  0.00000000000E+00  0.00000000000E+00  0.45593999997E+02  0.45594000000E+02  0.51100000000E-03 0. -1.
         11   -1    0    0    0    0 -0.00000000000E+00 -0.00000000000E+00 -0.45593999997E+02  0.45594000000E+02  0.51100000000E-03 0.  1.
    9900012    2    1    2    0    0 -0.26474670956E+00  0.10392587637E+01 -0.49465696224E+00  0.90006968625E+02  0.89999219808E+02 0.  0.
        -12    1    1    2    0    0  0.26474670956E+00 -0.10392587637E+01  0.49465696224E+00  0.11810313749E+01  0.00000000000E+00 0.  1.
         11    1    3    3    0    0  0.31082355357E+00  0.25528396622E+00 -0.84524655711E+01  0.84620302337E+01  0.51100000000E-03 0. -1.
        -11    1    3    3    0    0  0.32997662607E+02  0.94876880108E+01 -0.17485027575E+02  0.38530353631E+02  0.51100000000E-03 0.  1.
         12    1    3    3    0    0 -0.33573232871E+02 -0.87037132133E+01  0.25442836184E+02  0.43014584761E+02  0.00000000000E+00 0. -1.
</event>
<event>
 7    1  0.4195243E-015  0.9000770E+02  0.7816164E-02  0.1186339E+00
        -11   -1    0    0    0    0  0.00000000000E+00  0.00000000000E+00  0.45593999997E+02  0.45594000000E+02  0.51100000000E-03 0. -1.
         11   -1    0    0    0    0 -0.00000000000E+00 -0.00000000000E+00 -0.45593999997E+02  0.45594000000E+02  0.51100000000E-03 0.  1.
    9900012    2    1    2    0    0  0.85318297621E+00  0.34343585023E+00  0.73974900616E+00  0.90007704289E+02  0.89999965185E+02 0.  0.
        -12    1    1    2    0    0 -0.85318297621E+00 -0.34343585023E+00 -0.73974900616E+00  0.11802957114E+01  0.00000000000E+00 0.  1.
         11    1    3    3    0    0 -0.28272897109E+01 -0.51289806164E+01 -0.71544346774E+01  0.92458609706E+01  0.51100000000E-03 0. -1.
        -11    1    3    3    0    0  0.55528841500E+01  0.16731002909E+02 -0.33482647447E+02  0.37839776176E+02  0.51100000000E-03 0.  1.
         12    1    3    3    0    0 -0.18724114628E+01 -0.11258586442E+02  0.41376831130E+02  0.42922067142E+02  0.00000000000E+00 0. -1.
</event>
<event>
 7    1  0.4195243E-015  0.9000777E+02  0.7816164E-02  0.1186339E+00
        -11   -1    0    0    0    0  0.00000000000E+00  0.00000000000E+00  0.45593999997E+02  0.45594000000E+02  0.51100000000E-03 0. -1.
         11   -1    0    0    0    0 -0.00000000000E+00 -0.00000000000E+00 -0.45593999997E+02  0.45594000000E+02  0.51100000000E-03 0.  1.
    9900012    2    1    2    0    0  0.10929075618E+01 -0.35054797702E+00  0.27497103543E+00  0.90007771254E+02  0.90000033034E+02 0.  0.
        -12    1    1    2    0    0 -0.10929075618E+01  0.35054797702E+00 -0.27497103544E+00  0.11802287461E+01  0.00000000000E+00 0.  1.
         11    1    3    3    0    0 -0.19873694126E+01  0.70070094875E+00  0.99814086751E+01  0.10201428253E+02  0.51100000000E-03 0. -1.
        -11    1    3    3    0    0 -0.34704331353E+02 -0.36754233121E+01 -0.20434208687E+02  0.40440774425E+02  0.51100000000E-03 0.  1.
         12    1    3    3    0    0  0.37784608327E+02  0.26241743864E+01  0.10727771048E+02  0.39365568576E+02  0.00000000000E+00 0. -1.
</event>
<event>
 7    1  0.4195243E-015  0.9000780E+02  0.7816164E-02  0.1186339E+00
        -11   -1    0    0    0    0  0.00000000000E+00  0.00000000000E+00  0.45593999997E+02  0.45594000000E+02  0.51100000000E-03 0.  1.
         11   -1    0    0    0    0 -0.00000000000E+00 -0.00000000000E+00 -0.45593999997E+02  0.45594000000E+02  0.51100000000E-03 0. -1.
    9900012    2    1    2    0    0 -0.16129189771E+00 -0.26509013689E-01 -0.11688274841E+01  0.90007798538E+02  0.90000060678E+02 0.  0.
        -12    1    1    2    0    0  0.16129189771E+00  0.26509013689E-01  0.11688274841E+01  0.11802014623E+01  0.00000000000E+00 0.  1.
         11    1    3    3    0    0 -0.30937729062E+02 -0.15371687194E+02  0.17935571850E+02  0.38924498514E+02  0.51100000000E-03 0. -1.
        -11    1    3    3    0    0  0.45465541346E+01 -0.88010448003E+01  0.13231112157E+01  0.99940065853E+01  0.51100000000E-03 0.  1.
        -12    1    3    3    0    0  0.26229883030E+02  0.24146222980E+02 -0.20427510550E+02  0.41089293438E+02  0.00000000000E+00 0.  1.
</event>
<event>
 7    1  0.4195243E-015  0.9000773E+02  0.7816164E-02  0.1186339E+00
        -11   -1    0    0    0    0  0.00000000000E+00  0.00000000000E+00  0.45593999997E+02  0.45594000000E+02  0.51100000000E-03 0.  1.
         11   -1    0    0    0    0 -0.00000000000E+00 -0.00000000000E+00 -0.45593999997E+02  0.45594000000E+02  0.51100000000E-03 0. -1.
    9900012    2    1    2    0    0 -0.46641049945E+00  0.10754019488E+01 -0.13783096831E+00  0.90007734995E+02  0.89999996297E+02 0.  0.
        -12    1    1    2    0    0  0.46641049945E+00 -0.10754019488E+01  0.13783096831E+00  0.11802650047E+01  0.00000000000E+00 0.  1.
         11    1    3    3    0    0  0.24418247239E+02 -0.17920091943E+02 -0.24750913635E+02  0.39115063844E+02  0.51100000000E-03 0. -1.
        -11    1    3    3    0    0  0.55288336130E+01  0.12117806119E+02  0.63399315971E+01  0.14751405328E+02  0.51100000000E-03 0.  1.
        -12    1    3    3    0    0 -0.30413491352E+02  0.68776877731E+01  0.18273151070E+02  0.36141265823E+02  0.00000000000E+00 0.  1.
</event>
<event>
 7    1  0.4195243E-015  0.9000772E+02  0.7816164E-02  0.1186339E+00
        -11   -1    0    0    0    0  0.00000000000E+00  0.00000000000E+00  0.45593999997E+02  0.45594000000E+02  0.51100000000E-03 0.  1.
         11   -1    0    0    0    0 -0.00000000000E+00 -0.00000000000E+00 -0.45593999997E+02  0.45594000000E+02  0.51100000000E-03 0. -1.
    9900012    2    1    2    0    0  0.16274108928E+00 -0.10107665224E+01 -0.58729939902E+00  0.90007722825E+02  0.89999983967E+02 0.  0.
        -12    1    1    2    0    0 -0.16274108928E+00  0.10107665224E+01  0.58729939902E+00  0.11802771747E+01  0.00000000000E+00 0.  1.
         11    1    3    3    0    0 -0.24029130675E+02  0.16848777373E+02  0.28571158964E+02  0.40958412381E+02  0.51100000000E-03 0. -1.
        -11    1    3    3    0    0  0.92734968986E+01  0.85424579065E+00  0.22317320802E+01  0.95764350851E+01  0.51100000000E-03 0.  1.
        -12    1    3    3    0    0  0.14918374866E+02 -0.18713789687E+02 -0.31390190443E+02  0.39472875359E+02  0.00000000000E+00 0.  1.
</event>
<event>
 7    1  0.4195243E-015  0.9000777E+02  0.7816164E-02  0.1186339E+00
        -11   -1    0    0    0    0  0.00000000000E+00  0.00000000000E+00  0.45593999997E+02  0.45594000000E+02  0.51100000000E-03 0. -1.
         11   -1    0    0    0    0 -0.00000000000E+00 -0.00000000000E+00 -0.45593999997E+02  0.45594000000E+02  0.51100000000E-03 0.  1.
    9900012    2    1    2    0    0 -0.95990153160E+00  0.68606869107E+00 -0.29105202336E-01  0.90007767687E+02  0.90000029421E+02 0.  0.
        -12    1    1    2    0    0  0.95990153160E+00 -0.68606869107E+00  0.29105202336E-01  0.11802323127E+01  0.00000000000E+00 0.  1.
         11    1    3    3    0    0 -0.78661340131E+01 -0.46262352550E+01  0.33691108885E+01  0.97277451337E+01  0.51100000000E-03 0. -1.
        -11    1    3    3    0    0  0.20533586976E+02 -0.15706449906E+02  0.29309709432E+02  0.39081707102E+02  0.51100000000E-03 0.  1.
         12    1    3    3    0    0 -0.13627354495E+02  0.21018753852E+02 -0.32707925523E+02  0.41198315451E+02  0.00000000000E+00 0. -1.
</event>
<event>
 7    1  0.4195243E-015  0.9000778E+02  0.7816164E-02  0.1186339E+00
        -11   -1    0    0    0    0  0.00000000000E+00  0.00000000000E+00  0.45593999997E+02  0.45594000000E+02  0.51100000000E-03 0.  1.
         11   -1    0    0    0    0 -0.00000000000E+00 -0.00000000000E+00 -0.45593999997E+02  0.45594000000E+02  0.51100000000E-03 0. -1.
    9900012    2    1    2    0    0  0.64271516711E+00 -0.73882619625E-01 -0.98710923918E+00  0.90007777107E+02  0.90000038965E+02 0.  0.
        -12    1    1    2    0    0 -0.64271516711E+00  0.73882619625E-01  0.98710923918E+00  0.11802228932E+01  0.00000000000E+00 0.  1.
         11    1    3    3    0    0  0.23438202799E+00  0.83347748805E+01  0.62656560037E+01  0.10429853914E+02  0.51100000000E-03 0. -1.
        -11    1    3    3    0    0 -0.10252545728E+02  0.30523337483E+02  0.12622363134E+02  0.34584864845E+02  0.51100000000E-03 0.  1.
         12    1    3    3    0    0  0.10660878867E+02 -0.38931994983E+02 -0.19875128377E+02  0.44993058348E+02  0.00000000000E+00 0. -1.
</event>
<event>
 7    1  0.4195243E-015  0.9000770E+02  0.7816164E-02  0.1186339E+00
        -11   -1    0    0    0    0  0.00000000000E+00  0.00000000000E+00  0.45593999997E+02  0.45594000000E+02  0.51100000000E-03 0.  1.
         11   -1    0    0    0    0 -0.00000000000E+00 -0.00000000000E+00 -0.45593999997E+02  0.45594000000E+02  0.51100000000E-03 0. -1.
    9900012    2    1    2    0    0 -0.68270612360E+00 -0.86836438939E+00  0.41588840441E+00  0.90007700238E+02  0.89999961081E+02 0.  0.
        -12    1    1    2    0    0  0.68270612360E+00  0.86836438939E+00 -0.41588840441E+00  0.11802997623E+01  0.00000000000E+00 0.  1.
         11    1    3    3    0    0 -0.81503265409E+01 -0.12396499393E+01 -0.76356366906E+01  0.11236881357E+02  0.51100000000E-03 0. -1.
        -11    1    3    3    0    0 -0.18031266355E+02 -0.12531612196E+02  0.33798686836E+02  0.40305323504E+02  0.51100000000E-03 0.  1.
         12    1    3    3    0    0  0.25498886773E+02  0.12902897746E+02 -0.25747161741E+02  0.38465495377E+02  0.00000000000E+00 0. -1.
</event>
<event>
 7    1  0.4195243E-015  0.9000792E+02  0.7816164E-02  0.1186339E+00
        -11   -1    0    0    0    0  0.00000000000E+00  0.00000000000E+00  0.45593999997E+02  0.45594000000E+02  0.51100000000E-03 0.  1.
         11   -1    0    0    0    0 -0.00000000000E+00 -0.00000000000E+00 -0.45593999997E+02  0.45594000000E+02  0.51100000000E-03 0. -1.
    9900012    2    1    2    0    0 -0.10956721937E+01 -0.38566500244E+00 -0.20823239557E+00  0.90007917045E+02  0.90000180750E+02 0.  0.
        -12    1    1    2    0    0  0.10956721937E+01  0.38566500244E+00  0.20823239557E+00  0.11800829550E+01  0.00000000000E+00 0.  1.
         11    1    3    3    0    0  0.19503297878E+01 -0.30369862040E+02  0.24989165615E+02  0.39377540617E+02  0.51100000000E-03 0. -1.
        -11    1    3    3    0    0 -0.74354957022E+01  0.14306926208E+01  0.48150849824E+01  0.89732113182E+01  0.51100000000E-03 0.  1.
        -12    1    3    3    0    0  0.43894937207E+01  0.28553504417E+02 -0.30012482993E+02  0.41657165110E+02  0.00000000000E+00 0.  1.
</event>
<event>
 7    1  0.4195243E-015  0.9000775E+02  0.7816164E-02  0.1186339E+00
        -11   -1    0    0    0    0  0.00000000000E+00  0.00000000000E+00  0.45593999997E+02  0.45594000000E+02  0.51100000000E-03 0.  1.
         11   -1    0    0    0    0 -0.00000000000E+00 -0.00000000000E+00 -0.45593999997E+02  0.45594000000E+02  0.51100000000E-03 0. -1.
    9900012    2    1    2    0    0  0.31196537999E+00 -0.91139948294E+00  0.68192850554E+00  0.90007746679E+02  0.90000008135E+02 0.  0.
        -12    1    1    2    0    0 -0.31196537999E+00  0.91139948294E+00 -0.68192850554E+00  0.11802533213E+01  0.00000000000E+00 0.  1.
         11    1    3    3    0    0 -0.12733204529E+01 -0.71836610208E+01  0.48770883479E+01  0.87756664506E+01  0.51100000000E-03 0. -1.
        -11    1    3    3    0    0  0.26151658730E+02 -0.21919651363E+02  0.17133817268E+02  0.38183086107E+02  0.51100000000E-03 0.  1.
         12    1    3    3    0    0 -0.24566372897E+02  0.28191912900E+02 -0.21328977110E+02  0.43048994122E+02  0.00000000000E+00 0. -1.
</event>
<event>
 7    1  0.4195243E-015  0.9000783E+02  0.7816164E-02  0.1186339E+00
        -11   -1    0    0    0    0  0.00000000000E+00  0.00000000000E+00  0.45593999997E+02  0.45594000000E+02  0.51100000000E-03 0.  1.
         11   -1    0    0    0    0 -0.00000000000E+00 -0.00000000000E+00 -0.45593999997E+02  0.45594000000E+02  0.51100000000E-03 0. -1.
    9900012    2    1    2    0    0  0.15361525105E+00 -0.90084078498E+00 -0.74678944270E+00  0.90007827878E+02  0.90000090406E+02 0.  0.
        -12    1    1    2    0    0 -0.15361525105E+00  0.90084078498E+00  0.74678944270E+00  0.11801721218E+01  0.00000000000E+00 0.  1.
         11    1    3    3    0    0  0.12762373675E+01  0.49758389400E+01 -0.55530842299E+01  0.75646876803E+01  0.51100000000E-03 0. -1.
        -11    1    3    3    0    0 -0.39933146879E+02  0.72559774350E+01 -0.31368844424E+01  0.40708051691E+02  0.51100000000E-03 0.  1.
         12    1    3    3    0    0  0.38810524763E+02 -0.13132657160E+02  0.79431792295E+01  0.41735088507E+02  0.00000000000E+00 0. -1.
</event>
<event>
 7    1  0.4195243E-015  0.9000775E+02  0.7816164E-02  0.1186339E+00
        -11   -1    0    0    0    0  0.00000000000E+00  0.00000000000E+00  0.45593999997E+02  0.45594000000E+02  0.51100000000E-03 0.  1.
         11   -1    0    0    0    0 -0.00000000000E+00 -0.00000000000E+00 -0.45593999997E+02  0.45594000000E+02  0.51100000000E-03 0. -1.
    9900012    2    1    2    0    0 -0.31406651455E-02 -0.68374477536E+00 -0.96201940042E+00  0.90007746591E+02  0.90000008046E+02 0.  0.
        -12    1    1    2    0    0  0.31406651455E-02  0.68374477536E+00  0.96201940042E+00  0.11802534085E+01  0.00000000000E+00 0.  1.
         11    1    3    3    0    0  0.46545569833E+01 -0.80217898862E+01 -0.34752148990E+01  0.99040967556E+01  0.51100000000E-03 0. -1.
        -11    1    3    3    0    0 -0.29174531536E+02  0.66509403678E+01  0.30611196962E+02  0.42806934927E+02  0.51100000000E-03 0.  1.
         12    1    3    3    0    0  0.24516833887E+02  0.68710474311E+00 -0.28098001463E+02  0.37296714909E+02  0.00000000000E+00 0. -1.
</event>
<event>
 7    1  0.4195243E-015  0.9000764E+02  0.7816164E-02  0.1186339E+00
        -11   -1    0    0    0    0  0.00000000000E+00  0.00000000000E+00  0.45593999997E+02  0.45594000000E+02  0.51100000000E-03 0. -1.
         11   -1    0    0    0    0 -0.00000000000E+00 -0.00000000000E+00 -0.45593999997E+02  0.45594000000E+02  0.51100000000E-03 0.  1.
    9900012    2    1    2    0    0 -0.90153249329E+00 -0.15755136534E-01  0.76173331296E+00  0.90007641283E+02  0.89999901348E+02 0.  0.
        -12    1    1    2    0    0  0.90153249329E+00  0.15755136534E-01 -0.76173331296E+00  0.11803587170E+01  0.00000000000E+00 0.  1.
         11    1    3    3    0    0 -0.23430780156E+02  0.19689404275E+02 -0.94380211611E+01  0.32027337434E+02  0.51100000000E-03 0. -1.
        -11    1    3    3    0    0 -0.14185095418E+02 -0.14723168412E+01 -0.36331769045E+01  0.14716814315E+02  0.51100000000E-03 0.  1.
         12    1    3    3    0    0  0.36714343081E+02 -0.18232842570E+02  0.13832931379E+02  0.43263489533E+02  0.00000000000E+00 0. -1.
</event>
<event>
 7    1  0.4195243E-015  0.9000771E+02  0.7816164E-02  0.1186339E+00
        -11   -1    0    0    0    0  0.00000000000E+00  0.00000000000E+00  0.45593999997E+02  0.45594000000E+02  0.51100000000E-03 0.  1.
         11   -1    0    0    0    0 -0.00000000000E+00 -0.00000000000E+00 -0.45593999997E+02  0.45594000000E+02  0.51100000000E-03 0. -1.
    9900012    2    1    2    0    0  0.11173050156E+01  0.22547627296E+00  0.30637487661E+00  0.90007713758E+02  0.89999974780E+02 0.  0.
        -12    1    1    2    0    0 -0.11173050156E+01 -0.22547627296E+00 -0.30637487661E+00  0.11802862418E+01  0.00000000000E+00 0.  1.
         11    1    3    3    0    0 -0.73335466446E+01  0.27209222224E+02 -0.29179268028E+02  0.40565408458E+02  0.51100000000E-03 0. -1.
        -11    1    3    3    0    0 -0.13859500044E+01  0.50897865866E+01  0.80711936526E+01  0.96421445826E+01  0.51100000000E-03 0.  1.
        -12    1    3    3    0    0  0.98368016647E+01 -0.32073532537E+02  0.21414449252E+02  0.39800160718E+02  0.00000000000E+00 0.  1.
</event>
<event>
 7    1  0.4195243E-015  0.9000771E+02  0.7816164E-02  0.1186339E+00
        -11   -1    0    0    0    0  0.00000000000E+00  0.00000000000E+00  0.45593999997E+02  0.45594000000E+02  0.51100000000E-03 0.  1.
         11   -1    0    0    0    0 -0.00000000000E+00 -0.00000000000E+00 -0.45593999997E+02  0.45594000000E+02  0.51100000000E-03 0. -1.
    9900012    2    1    2    0    0  0.55723939875E+00  0.52691145272E+00 -0.89718058810E+00  0.90007710021E+02  0.89999970993E+02 0.  0.
        -12    1    1    2    0    0 -0.55723939875E+00 -0.52691145272E+00  0.89718058810E+00  0.11802899789E+01  0.00000000000E+00 0.  1.
         11    1    3    3    0    0 -0.87282096335E+01  0.35087825598E+01 -0.19459608536E+01  0.96062460078E+01  0.51100000000E-03 0. -1.
        -11    1    3    3    0    0  0.10052762809E+02  0.10838747084E+02  0.38090183918E+02  0.40858274433E+02  0.51100000000E-03 0.  1.
         12    1    3    3    0    0 -0.76731377671E+00 -0.13820618191E+02 -0.37041403653E+02  0.39543189580E+02  0.00000000000E+00 0. -1.
</event>
<event>
 7    1  0.4195243E-015  0.9000796E+02  0.7816164E-02  0.1186339E+00
        -11   -1    0    0    0    0  0.00000000000E+00  0.00000000000E+00  0.45593999997E+02  0.45594000000E+02  0.51100000000E-03 0.  1.
         11   -1    0    0    0    0 -0.00000000000E+00 -0.00000000000E+00 -0.45593999997E+02  0.45594000000E+02  0.51100000000E-03 0. -1.
    9900012    2    1    2    0    0 -0.10741550276E+01  0.38110150873E+00 -0.30570329846E+00  0.90007956827E+02  0.90000221057E+02 0.  0.
        -12    1    1    2    0    0  0.10741550276E+01 -0.38110150873E+00  0.30570329846E+00  0.11800431729E+01  0.00000000000E+00 0.  1.
         11    1    3    3    0    0  0.97039825216E+01  0.42251343189E+01 -0.25659324278E+01  0.10890502572E+02  0.51100000000E-03 0. -1.
        -11    1    3    3    0    0  0.18358665576E+02 -0.22127586841E+01  0.32311360264E+02  0.37228495875E+02  0.51100000000E-03 0.  1.
         12    1    3    3    0    0 -0.29136803126E+02 -0.16312741261E+01 -0.30051131135E+02  0.41888958380E+02  0.00000000000E+00 0. -1.
</event>
<event>
 7    1  0.4195243E-015  0.9000774E+02  0.7816164E-02  0.1186339E+00
        -11   -1    0    0    0    0  0.00000000000E+00  0.00000000000E+00  0.45593999997E+02  0.45594000000E+02  0.51100000000E-03 0.  1.
         11   -1    0    0    0    0 -0.00000000000E+00 -0.00000000000E+00 -0.45593999997E+02  0.45594000000E+02  0.51100000000E-03 0. -1.
    9900012    2    1    2    0    0  0.42739911143E+00 -0.44622357690E+00 -0.10056022356E+01  0.90007736751E+02  0.89999998076E+02 0.  0.
        -12    1    1    2    0    0 -0.42739911143E+00  0.44622357690E+00  0.10056022356E+01  0.11802632492E+01  0.00000000000E+00 0.  1.
         11    1    3    3    0    0 -0.24013451842E+01  0.88291907425E+01  0.53599965445E+01  0.10604274189E+02  0.51100000000E-03 0. -1.
        -11    1    3    3    0    0 -0.34462703416E+02  0.11645646930E+02 -0.22490043201E+01  0.36446632765E+02  0.51100000000E-03 0.  1.
         12    1    3    3    0    0  0.37291447712E+02 -0.20921061249E+02 -0.41165944600E+01  0.42956829797E+02  0.00000000000E+00 0. -1.
</event>
<event>
 7    1  0.4195243E-015  0.9000773E+02  0.7816164E-02  0.1186339E+00
        -11   -1    0    0    0    0  0.00000000000E+00  0.00000000000E+00  0.45593999997E+02  0.45594000000E+02  0.51100000000E-03 0. -1.
         11   -1    0    0    0    0 -0.00000000000E+00 -0.00000000000E+00 -0.45593999997E+02  0.45594000000E+02  0.51100000000E-03 0.  1.
    9900012    2    1    2    0    0 -0.27230698520E+00 -0.73313593968E+00  0.88396913772E+00  0.90007728490E+02  0.89999989706E+02 0.  0.
        -12    1    1    2    0    0  0.27230698520E+00  0.73313593968E+00 -0.88396913772E+00  0.11802715097E+01  0.00000000000E+00 0.  1.
         11    1    3    3    0    0 -0.13580690914E+02  0.20489885541E+01 -0.55098788678E+01  0.14798387925E+02  0.51100000000E-03 0. -1.
        -11    1    3    3    0    0 -0.16897855816E+01 -0.27978999371E+02 -0.21044759993E+02  0.35050844563E+02  0.51100000000E-03 0.  1.
         12    1    3    3    0    0  0.14998169510E+02  0.25196874877E+02  0.27438607999E+02  0.40158496002E+02  0.00000000000E+00 0. -1.
</event>
<event>
 7    1  0.4195243E-015  0.9000777E+02  0.7816164E-02  0.1186339E+00
        -11   -1    0    0    0    0  0.00000000000E+00  0.00000000000E+00  0.45593999997E+02  0.45594000000E+02  0.51100000000E-03 0. -1.
         11   -1    0    0    0    0 -0.00000000000E+00 -0.00000000000E+00 -0.45593999997E+02  0.45594000000E+02  0.51100000000E-03 0.  1.
    9900012    2    1    2    0    0  0.23127871012E+00 -0.21079276758E-01  0.11571557466E+01  0.90007769684E+02  0.90000031443E+02 0.  0.
        -12    1    1    2    0    0 -0.23127871012E+00  0.21079276758E-01 -0.11571557466E+01  0.11802303163E+01  0.00000000000E+00 0.  1.
         11    1    3    3    0    0  0.94777699225E+01 -0.21269267976E+00  0.95839135633E+01  0.13480532643E+02  0.51100000000E-03 0. -1.
        -11    1    3    3    0    0 -0.17204230605E+02 -0.25011821258E+02 -0.29797852060E+02  0.42538085770E+02  0.51100000000E-03 0.  1.
         12    1    3    3    0    0  0.79577393926E+01  0.25203434661E+02  0.21371094243E+02  0.33989151271E+02  0.00000000000E+00 0. -1.
</event>
<event>
 7    1  0.4195243E-015  0.9000773E+02  0.7816164E-02  0.1186339E+00
        -11   -1    0    0    0    0  0.00000000000E+00  0.00000000000E+00  0.45593999997E+02  0.45594000000E+02  0.51100000000E-03 0. -1.
         11   -1    0    0    0    0 -0.00000000000E+00 -0.00000000000E+00 -0.45593999997E+02  0.45594000000E+02  0.51100000000E-03 0.  1.
    9900012    2    1    2    0    0  0.33924049541E+00  0.11120157906E+01  0.20341938460E+00  0.90007727710E+02  0.89999988916E+02 0.  0.
        -12    1    1    2    0    0 -0.33924049541E+00 -0.11120157906E+01 -0.20341938460E+00  0.11802722899E+01  0.00000000000E+00 0.  1.
         11    1    3    3    0    0 -0.42213035282E+01 -0.82195719428E+01 -0.31499638168E+01  0.97623275251E+01  0.51100000000E-03 0. -1.
        -11    1    3    3    0    0  0.40745335635E+02  0.19528073621E+01 -0.80838691105E+01  0.41585391337E+02  0.51100000000E-03 0.  1.
         12    1    3    3    0    0 -0.36184791611E+02  0.73787803713E+01  0.11437252312E+02  0.38660008848E+02  0.00000000000E+00 0. -1.
</event>
<event>
 7    1  0.4195243E-015  0.9000785E+02  0.7816164E-02  0.1186339E+00
        -11   -1    0    0    0    0  0.00000000000E+00  0.00000000000E+00  0.45593999997E+02  0.45594000000E+02  0.51100000000E-03 0.  1.
         11   -1    0    0    0    0 -0.00000000000E+00 -0.00000000000E+00 -0.45593999997E+02  0.45594000000E+02  0.51100000000E-03 0. -1.
    9900012    2    1    2    0    0  0.16552220565E+00 -0.10675440866E+01 -0.47507529440E+00  0.90007854029E+02  0.90000116902E+02 0.  0.
        -12    1    1    2    0    0 -0.16552220565E+00  0.10675440866E+01  0.47507529440E+00  0.11801459710E+01  0.00000000000E+00 0.  1.
         11    1    3    3    0    0  0.23337123812E+02 -0.20442545631E+02 -0.15354911925E+02  0.34616359429E+02  0.51100000000E-03 0. -1.
        -11    1    3    3    0    0  0.62181675258E+01 -0.90138148013E+01 -0.20862292682E+01  0.11147502746E+02  0.51100000000E-03 0.  1.
        -12    1    3    3    0    0 -0.29389769132E+02  0.28388816345E+02  0.16966065898E+02  0.44243991854E+02  0.00000000000E+00 0.  1.
</event>
<event>
 7    1  0.4247995E-015  0.9000778E+02  0.7816164E-02  0.1186339E+00
        -11   -1    0    0    0    0  0.00000000000E+00  0.00000000000E+00  0.45593999997E+02  0.45594000000E+02  0.51100000000E-03 0.  1.
         11   -1    0    0    0    0 -0.00000000000E+00 -0.00000000000E+00 -0.45593999997E+02  0.45594000000E+02  0.51100000000E-03 0. -1.
    9900012    2    1    2    0    0  0.50725775823E+00  0.74851647064E+00 -0.75850094902E+00  0.90007783482E+02  0.90000045424E+02 0.  0.
        -12    1    1    2    0    0 -0.50725775823E+00 -0.74851647064E+00  0.75850094902E+00  0.11802165182E+01  0.00000000000E+00 0.  1.
         11    1    3    3    0    0 -0.19221224949E+02 -0.16132205669E+02 -0.33610402173E+02  0.41944757512E+02  0.51100000000E-03 0. -1.
        -11    1    3    3    0    0 -0.50746674675E+01  0.74227508016E+00  0.75620631030E+01  0.91371779470E+01  0.51100000000E-03 0.  1.
        -12    1    3    3    0    0  0.24803150174E+02  0.16138447059E+02  0.25289838121E+02  0.38925848022E+02  0.00000000000E+00 0.  1.
</event>
<event>
 7    1  0.4195243E-015  0.9000775E+02  0.7816164E-02  0.1186339E+00
        -11   -1    0    0    0    0  0.00000000000E+00  0.00000000000E+00  0.45593999997E+02  0.45594000000E+02  0.51100000000E-03 0.  1.
         11   -1    0    0    0    0 -0.00000000000E+00 -0.00000000000E+00 -0.45593999997E+02  0.45594000000E+02  0.51100000000E-03 0. -1.
    9900012    2    1    2    0    0 -0.64119172661E-01  0.97746589018E+00  0.65836797507E+00  0.90007746118E+02  0.90000007567E+02 0.  0.
        -12    1    1    2    0    0  0.64119172661E-01 -0.97746589018E+00 -0.65836797507E+00  0.11802538817E+01  0.00000000000E+00 0.  1.
         11    1    3    3    0    0 -0.16083947832E+02  0.17058514151E+02 -0.30241988489E+02  0.38265704631E+02  0.51100000000E-03 0. -1.
        -11    1    3    3    0    0 -0.10107445412E+02 -0.25774606680E+00  0.34747453228E+01  0.10691152469E+02  0.51100000000E-03 0.  1.
        -12    1    3    3    0    0  0.26127274071E+02 -0.15823302194E+02  0.27425611141E+02  0.41050889018E+02  0.00000000000E+00 0.  1.
</event>
<event>
 7    1  0.4195243E-015  0.9000776E+02  0.7816164E-02  0.1186339E+00
        -11   -1    0    0    0    0  0.00000000000E+00  0.00000000000E+00  0.45593999997E+02  0.45594000000E+02  0.51100000000E-03 0. -1.
         11   -1    0    0    0    0 -0.00000000000E+00 -0.00000000000E+00 -0.45593999997E+02  0.45594000000E+02  0.51100000000E-03 0.  1.
    9900012    2    1    2    0    0  0.26950804776E+00 -0.11067704007E+01 -0.30885008215E+00  0.90007761176E+02  0.90000022824E+02 0.  0.
        -12    1    1    2    0    0 -0.26950804776E+00  0.11067704007E+01  0.30885008215E+00  0.11802388237E+01  0.00000000000E+00 0.  1.
         11    1    3    3    0    0  0.59836980322E+01 -0.16341043529E+01 -0.68161849143E+01  0.92160358193E+01  0.51100000000E-03 0. -1.
        -11    1    3    3    0    0  0.34385322620E+02  0.12696672575E+02  0.11906651836E+02  0.38539904831E+02  0.51100000000E-03 0.  1.
         12    1    3    3    0    0 -0.40099512605E+02 -0.12169338623E+02 -0.53993170035E+01  0.42251820526E+02  0.00000000000E+00 0. -1.
</event>
<event>
 7    1  0.4195243E-015  0.9000804E+02  0.7816164E-02  0.1186338E+00
        -11   -1    0    0    0    0  0.00000000000E+00  0.00000000000E+00  0.45593999997E+02  0.45594000000E+02  0.51100000000E-03 0.  1.
         11   -1    0    0    0    0 -0.00000000000E+00 -0.00000000000E+00 -0.45593999997E+02  0.45594000000E+02  0.51100000000E-03 0. -1.
    9900012    2    1    2    0    0 -0.80536391673E+00 -0.80755690871E+00  0.30256630729E+00  0.90008040014E+02  0.90000305341E+02 0.  0.
        -12    1    1    2    0    0  0.80536391673E+00  0.80755690871E+00 -0.30256630729E+00  0.11799599864E+01  0.00000000000E+00 0.  1.
         11    1    3    3    0    0 -0.28656288337E+02  0.20676978390E+02 -0.32297246191E+01  0.35484523640E+02  0.51100000000E-03 0. -1.
        -11    1    3    3    0    0 -0.78653116334E+01  0.13887885020E+01  0.86847058120E+01  0.11798981986E+02  0.51100000000E-03 0.  1.
        -12    1    3    3    0    0  0.35716236054E+02 -0.22873323800E+02 -0.51524148856E+01  0.42724534388E+02  0.00000000000E+00 0.  1.
</event>
<event>
 7    1  0.4195243E-015  0.9000785E+02  0.7816164E-02  0.1186339E+00
        -11   -1    0    0    0    0  0.00000000000E+00  0.00000000000E+00  0.45593999997E+02  0.45594000000E+02  0.51100000000E-03 0.  1.
         11   -1    0    0    0    0 -0.00000000000E+00 -0.00000000000E+00 -0.45593999997E+02  0.45594000000E+02  0.51100000000E-03 0. -1.
    9900012    2    1    2    0    0  0.99916894397E+00 -0.59447029411E+00  0.20254109706E+00  0.90007848991E+02  0.90000111797E+02 0.  0.
        -12    1    1    2    0    0 -0.99916894397E+00  0.59447029411E+00 -0.20254109706E+00  0.11801510095E+01  0.00000000000E+00 0.  1.
         11    1    3    3    0    0  0.19894400680E-01 -0.46010829768E+01 -0.85106516651E+01  0.96747895260E+01  0.51100000000E-03 0. -1.
        -11    1    3    3    0    0  0.19608765970E+01 -0.33734535149E+02  0.21985581780E+02  0.40314137784E+02  0.51100000000E-03 0.  1.
         12    1    3    3    0    0 -0.98160205370E+00  0.37741147832E+02 -0.13272389018E+02  0.40018921681E+02  0.00000000000E+00 0. -1.
</event>
<event>
 7    1  0.4195243E-015  0.9000780E+02  0.7816164E-02  0.1186339E+00
        -11   -1    0    0    0    0  0.00000000000E+00  0.00000000000E+00  0.45593999997E+02  0.45594000000E+02  0.51100000000E-03 0. -1.
         11   -1    0    0    0    0 -0.00000000000E+00 -0.00000000000E+00 -0.45593999997E+02  0.45594000000E+02  0.51100000000E-03 0.  1.
    9900012    2    1    2    0    0 -0.83672640850E+00 -0.20725395901E+00 -0.80610085837E+00  0.90007803457E+02  0.90000065663E+02 0.  0.
        -12    1    1    2    0    0  0.83672640850E+00  0.20725395901E+00  0.80610085837E+00  0.11801965430E+01  0.00000000000E+00 0.  1.
         11    1    3    3    0    0 -0.65685463893E+01 -0.38863351075E+01 -0.40722899655E+01  0.86506039130E+01  0.51100000000E-03 0. -1.
        -11    1    3    3    0    0 -0.25044515096E+02  0.30290392012E+02  0.88575842633E+01  0.40288861784E+02  0.51100000000E-03 0.  1.
         12    1    3    3    0    0  0.30776335076E+02 -0.26611310863E+02 -0.55913951562E+01  0.41068337760E+02  0.00000000000E+00 0. -1.
</event>
<event>
 7    1  0.4195243E-015  0.9000772E+02  0.7816164E-02  0.1186339E+00
        -11   -1    0    0    0    0  0.00000000000E+00  0.00000000000E+00  0.45593999997E+02  0.45594000000E+02  0.51100000000E-03 0.  1.
         11   -1    0    0    0    0 -0.00000000000E+00 -0.00000000000E+00 -0.45593999997E+02  0.45594000000E+02  0.51100000000E-03 0. -1.
    9900012    2    1    2    0    0 -0.31116493888E+00 -0.99784425658E+00 -0.54820971790E+00  0.90007724323E+02  0.89999985484E+02 0.  0.
        -12    1    1    2    0    0  0.31116493888E+00  0.99784425658E+00  0.54820971790E+00  0.11802756773E+01  0.00000000000E+00 0.  1.
         11    1    3    3    0    0 -0.53244209598E+01  0.82465166771E+01 -0.20296563175E+00  0.98181307371E+01  0.51100000000E-03 0. -1.
        -11    1    3    3    0    0  0.82532218240E+01 -0.31009876234E+01  0.39128498079E+02  0.40109489612E+02  0.51100000000E-03 0.  1.
         12    1    3    3    0    0 -0.32399658031E+01 -0.61433733103E+01 -0.39473742165E+02  0.40080103974E+02  0.00000000000E+00 0. -1.
</event>
<event>
 8    1  0.4195243E-015  0.9000787E+02  0.7816164E-02  0.1186339E+00
        -11   -1    0    0    0    0  0.00000000000E+00  0.00000000000E+00  0.45593999997E+02  0.45594000000E+02  0.51100000000E-03 0. -1.
         11   -1    0    0    0    0 -0.00000000000E+00 -0.00000000000E+00 -0.45593999997E+02  0.45594000000E+02  0.51100000000E-03 0.  1.
    9900012    2    1    2    0    0  0.93922342517E+00 -0.19080590828E+00  0.68858500583E+00  0.90007874224E+02  0.90000137364E+02 0.  0.
         23    2    3    3    0    0  0.19444739848E+02  0.16645644714E+02  0.12957637748E+02  0.62143024273E+02  0.55124220576E+02 0.  0.
        -12    1    1    2    0    0 -0.93922342517E+00  0.19080590828E+00 -0.68858500583E+00  0.11801257760E+01  0.00000000000E+00 0.  1.
         11    1    4    4    0    0 -0.15460180165E+01  0.13517939597E+02 -0.19249361863E+02  0.23572500823E+02  0.51100000000E-03 0. -1.
        -11    1    4    4    0    0  0.20990757864E+02  0.31277051171E+01  0.32206999611E+02  0.38570523450E+02  0.51100000000E-03 0.  1.
         12    1    3    3    0    0 -0.18505516422E+02 -0.16836450622E+02 -0.12269052743E+02  0.27864849951E+02  0.00000000000E+00 0. -1.
</event>
<event>
 7    1  0.4195243E-015  0.9000783E+02  0.7816164E-02  0.1186339E+00
        -11   -1    0    0    0    0  0.00000000000E+00  0.00000000000E+00  0.45593999997E+02  0.45594000000E+02  0.51100000000E-03 0.  1.
         11   -1    0    0    0    0 -0.00000000000E+00 -0.00000000000E+00 -0.45593999997E+02  0.45594000000E+02  0.51100000000E-03 0. -1.
    9900012    2    1    2    0    0  0.36076278975E+00  0.83245387718E+00 -0.75476355113E+00  0.90007831679E+02  0.90000094257E+02 0.  0.
        -12    1    1    2    0    0 -0.36076278975E+00 -0.83245387718E+00  0.75476355113E+00  0.11801683211E+01  0.00000000000E+00 0.  1.
         11    1    3    3    0    0 -0.26816715288E+02 -0.46005071173E+01 -0.23159127484E+02  0.35730184308E+02  0.51100000000E-03 0. -1.
        -11    1    3    3    0    0  0.69163618515E+01 -0.16732524934E+02  0.25667773285E+01  0.18286656284E+02  0.51100000000E-03 0.  1.
        -12    1    3    3    0    0  0.20261116227E+02  0.22165485928E+02  0.19837586604E+02  0.35990991087E+02  0.00000000000E+00 0.  1.
</event>
<event>
 7    1  0.4195243E-015  0.9000783E+02  0.7816164E-02  0.1186339E+00
        -11   -1    0    0    0    0  0.00000000000E+00  0.00000000000E+00  0.45593999997E+02  0.45594000000E+02  0.51100000000E-03 0. -1.
         11   -1    0    0    0    0 -0.00000000000E+00 -0.00000000000E+00 -0.45593999997E+02  0.45594000000E+02  0.51100000000E-03 0.  1.
    9900012    2    1    2    0    0  0.48451012041E+00 -0.10550360174E+01 -0.21203453839E+00  0.90007826411E+02  0.90000088920E+02 0.  0.
        -12    1    1    2    0    0 -0.48451012041E+00  0.10550360174E+01  0.21203453839E+00  0.11801735891E+01  0.00000000000E+00 0.  1.
         11    1    3    3    0    0  0.98985003181E+01 -0.37816772379E+01 -0.85152740202E-01  0.10596633547E+02  0.51100000000E-03 0. -1.
        -11    1    3    3    0    0  0.18193419412E+01 -0.29626772322E+02 -0.23574664537E+02  0.37905414542E+02  0.51100000000E-03 0.  1.
         12    1    3    3    0    0 -0.11233332139E+02  0.32353413542E+02  0.23447782738E+02  0.41505778322E+02  0.00000000000E+00 0. -1.
</event>
<event>
 7    1  0.4195243E-015  0.9000767E+02  0.7816164E-02  0.1186339E+00
        -11   -1    0    0    0    0  0.00000000000E+00  0.00000000000E+00  0.45593999997E+02  0.45594000000E+02  0.51100000000E-03 0. -1.
         11   -1    0    0    0    0 -0.00000000000E+00 -0.00000000000E+00 -0.45593999997E+02  0.45594000000E+02  0.51100000000E-03 0.  1.
    9900012    2    1    2    0    0 -0.10424644947E+01  0.44532360665E+00  0.32884213508E+00  0.90007668484E+02  0.89999928908E+02 0.  0.
        -12    1    1    2    0    0  0.10424644947E+01 -0.44532360665E+00 -0.32884213508E+00  0.11803315158E+01  0.00000000000E+00 0.  1.
         11    1    3    3    0    0  0.44897361229E+01  0.40078622717E+00  0.10945561279E+02  0.11837384510E+02  0.51100000000E-03 0. -1.
        -11    1    3    3    0    0 -0.36659117768E+02  0.18603226295E+02 -0.75944203448E+01  0.41804858148E+02  0.51100000000E-03 0.  1.
         12    1    3    3    0    0  0.31126917150E+02 -0.18558688915E+02 -0.30222987994E+01  0.36365425827E+02  0.00000000000E+00 0. -1.
</event>
<event>
 7    1  0.4195243E-015  0.9000790E+02  0.7816164E-02  0.1186339E+00
        -11   -1    0    0    0    0  0.00000000000E+00  0.00000000000E+00  0.45593999997E+02  0.45594000000E+02  0.51100000000E-03 0.  1.
         11   -1    0    0    0    0 -0.00000000000E+00 -0.00000000000E+00 -0.45593999997E+02  0.45594000000E+02  0.51100000000E-03 0. -1.
    9900012    2    1    2    0    0  0.72800987500E+00 -0.88225202671E+00  0.29029140291E+00  0.90007899955E+02  0.90000163435E+02 0.  0.
        -12    1    1    2    0    0 -0.72800987500E+00  0.88225202671E+00 -0.29029140291E+00  0.11801000446E+01  0.00000000000E+00 0.  1.
         11    1    3    3    0    0  0.29036266154E+02  0.11777987685E+01 -0.19987157162E+02  0.35270078166E+02  0.51100000000E-03 0. -1.
        -11    1    3    3    0    0  0.67226817171E+01 -0.30562590208E+01 -0.71171019228E+01  0.10256135174E+02  0.51100000000E-03 0.  1.
        -12    1    3    3    0    0 -0.35030937996E+02  0.99620822559E+00  0.27394550488E+02  0.44481686616E+02  0.00000000000E+00 0.  1.
</event>
<event>
 7    1  0.4195243E-015  0.9000770E+02  0.7816164E-02  0.1186339E+00
        -11   -1    0    0    0    0  0.00000000000E+00  0.00000000000E+00  0.45593999997E+02  0.45594000000E+02  0.51100000000E-03 0. -1.
         11   -1    0    0    0    0 -0.00000000000E+00 -0.00000000000E+00 -0.45593999997E+02  0.45594000000E+02  0.51100000000E-03 0.  1.
    9900012    2    1    2    0    0 -0.30520915349E+00  0.11193869059E+01 -0.21660571350E+00  0.90007704398E+02  0.89999965296E+02 0.  0.
        -12    1    1    2    0    0  0.30520915349E+00 -0.11193869059E+01  0.21660571350E+00  0.11802956018E+01  0.00000000000E+00 0.  1.
         11    1    3    3    0    0  0.88516181555E+00 -0.10043788391E+02 -0.12254716399E+01  0.10156917725E+02  0.51100000000E-03 0. -1.
        -11    1    3    3    0    0  0.13445510147E+01 -0.17064370325E+02 -0.32032851557E+02  0.36319473167E+02  0.51100000000E-03 0.  1.
         12    1    3    3    0    0 -0.25349219838E+01  0.28227545621E+02  0.33041717483E+02  0.43531313506E+02  0.00000000000E+00 0. -1.
</event>
<event>
 7    1  0.4195243E-015  0.9000763E+02  0.7816164E-02  0.1186339E+00
        -11   -1    0    0    0    0  0.00000000000E+00  0.00000000000E+00  0.45593999997E+02  0.45594000000E+02  0.51100000000E-03 0.  1.
         11   -1    0    0    0    0 -0.00000000000E+00 -0.00000000000E+00 -0.45593999997E+02  0.45594000000E+02  0.51100000000E-03 0. -1.
    9900012    2    1    2    0    0 -0.84844369614E+00  0.25757915757E+00 -0.77915301044E+00  0.90007625847E+02  0.89999885708E+02 0.  0.
        -12    1    1    2    0    0  0.84844369614E+00 -0.25757915757E+00  0.77915301044E+00  0.11803741532E+01  0.00000000000E+00 0.  1.
         11    1    3    3    0    0  0.16774461867E+01 -0.32980482650E+02 -0.21039442969E+02  0.39155896392E+02  0.51100000000E-03 0. -1.
        -11    1    3    3    0    0 -0.62661142098E+01  0.74543959780E+00 -0.61510625772E+01  0.88122323264E+01  0.51100000000E-03 0.  1.
        -12    1    3    3    0    0  0.37402243270E+01  0.32492622210E+02  0.26411352536E+02  0.42039497129E+02  0.00000000000E+00 0.  1.
</event>
<event>
 7    1  0.4195243E-015  0.9000813E+02  0.7816164E-02  0.1186338E+00
        -11   -1    0    0    0    0  0.00000000000E+00  0.00000000000E+00  0.45593999997E+02  0.45594000000E+02  0.51100000000E-03 0. -1.
         11   -1    0    0    0    0 -0.00000000000E+00 -0.00000000000E+00 -0.45593999997E+02  0.45594000000E+02  0.51100000000E-03 0.  1.
    9900012    2    1    2    0    0 -0.66927589393E+00  0.59615504244E+00  0.76731055377E+00  0.90008128591E+02  0.90000395087E+02 0.  0.
        -12    1    1    2    0    0  0.66927589393E+00 -0.59615504244E+00 -0.76731055377E+00  0.11798714094E+01  0.00000000000E+00 0.  1.
         11    1    3    3    0    0 -0.78652868258E+01  0.58454503154E+01  0.30701232498E+01  0.10269259139E+02  0.51100000000E-03 0. -1.
        -11    1    3    3    0    0 -0.22349420004E+02  0.27592310521E+02 -0.19485626640E+01  0.35561623573E+02  0.51100000000E-03 0.  1.
         12    1    3    3    0    0  0.29545430936E+02 -0.32841605794E+02 -0.35425003207E+00  0.44177245878E+02  0.00000000000E+00 0. -1.
</event>
<event>
 7    1  0.4195243E-015  0.9000774E+02  0.7816164E-02  0.1186339E+00
        -11   -1    0    0    0    0  0.00000000000E+00  0.00000000000E+00  0.45593999997E+02  0.45594000000E+02  0.51100000000E-03 0. -1.
         11   -1    0    0    0    0 -0.00000000000E+00 -0.00000000000E+00 -0.45593999997E+02  0.45594000000E+02  0.51100000000E-03 0.  1.
    9900012    2    1    2    0    0 -0.46128978031E+00  0.49221714830E-01  0.10852664243E+01  0.90007739753E+02  0.90000001118E+02 0.  0.
        -12    1    1    2    0    0  0.46128978031E+00 -0.49221714830E-01 -0.10852664243E+01  0.11802602469E+01  0.00000000000E+00 0.  1.
         11    1    3    3    0    0 -0.22108571772E+02  0.65001628277E+00  0.34656087827E+02  0.41112721762E+02  0.51100000000E-03 0. -1.
        -11    1    3    3    0    0 -0.23919482471E+01  0.44632276885E+01  0.21832228459E+01  0.55143703242E+01  0.51100000000E-03 0.  1.
        -12    1    3    3    0    0  0.24039230239E+02 -0.50640222565E+01 -0.35754044248E+02  0.43380647667E+02  0.00000000000E+00 0.  1.
</event>
<event>
 7    1  0.4195243E-015  0.9000774E+02  0.7816164E-02  0.1186339E+00
        -11   -1    0    0    0    0  0.00000000000E+00  0.00000000000E+00  0.45593999997E+02  0.45594000000E+02  0.51100000000E-03 0. -1.
         11   -1    0    0    0    0 -0.00000000000E+00 -0.00000000000E+00 -0.45593999997E+02  0.45594000000E+02  0.51100000000E-03 0.  1.
    9900012    2    1    2    0    0  0.70442928706E-01  0.10147332831E+01  0.59864190934E+00  0.90007738174E+02  0.89999999518E+02 0.  0.
        -12    1    1    2    0    0 -0.70442928706E-01 -0.10147332831E+01 -0.59864190934E+00  0.11802618259E+01  0.00000000000E+00 0.  1.
         11    1    3    3    0    0 -0.25891051231E+02 -0.18483631141E+02  0.10474981344E+02  0.33492034701E+02  0.51100000000E-03 0. -1.
        -11    1    3    3    0    0 -0.10699450212E+02  0.15228894933E+02 -0.15262680769E+01  0.18674232788E+02  0.51100000000E-03 0.  1.
        -12    1    3    3    0    0  0.36660944371E+02  0.42694694908E+01 -0.83500713583E+01  0.37841470685E+02  0.00000000000E+00 0.  1.
</event>
<event>
 7    1  0.4195243E-015  0.9000781E+02  0.7816164E-02  0.1186339E+00
        -11   -1    0    0    0    0  0.00000000000E+00  0.00000000000E+00  0.45593999997E+02  0.45594000000E+02  0.51100000000E-03 0.  1.
         11   -1    0    0    0    0 -0.00000000000E+00 -0.00000000000E+00 -0.45593999997E+02  0.45594000000E+02  0.51100000000E-03 0. -1.
    9900012    2    1    2    0    0 -0.11309420204E+01 -0.13786560077E-01 -0.33709878038E+00  0.90007807003E+02  0.90000069255E+02 0.  0.
        -12    1    1    2    0    0  0.11309420204E+01  0.13786560077E-01  0.33709878038E+00  0.11801929972E+01  0.00000000000E+00 0.  1.
         11    1    3    3    0    0 -0.59291149613E+01  0.63664342890E+01  0.22334839447E+00  0.87026303234E+01  0.51100000000E-03 0. -1.
        -11    1    3    3    0    0 -0.65535240245E+01  0.12607005964E+01  0.38936874430E+02  0.39504660912E+02  0.51100000000E-03 0.  1.
         12    1    3    3    0    0  0.11351696965E+02 -0.76409214454E+01 -0.39497321604E+02  0.41800515768E+02  0.00000000000E+00 0. -1.
</event>
<event>
 7    1  0.4195243E-015  0.9000847E+02  0.7816164E-02  0.1186338E+00
        -11   -1    0    0    0    0  0.00000000000E+00  0.00000000000E+00  0.45593999997E+02  0.45594000000E+02  0.51100000000E-03 0.  1.
         11   -1    0    0    0    0 -0.00000000000E+00 -0.00000000000E+00 -0.45593999997E+02  0.45594000000E+02  0.51100000000E-03 0. -1.
    9900012    2    1    2    0    0  0.10127865787E+01 -0.67368354168E-01 -0.60083973273E+00  0.90008473174E+02  0.90000744217E+02 0.  0.
        -12    1    1    2    0    0 -0.10127865787E+01  0.67368354168E-01  0.60083973273E+00  0.11795268262E+01  0.00000000000E+00 0.  1.
         11    1    3    3    0    0  0.15309452365E+02  0.32020190564E+02  0.82790949955E+01  0.36444688909E+02  0.51100000000E-03 0. -1.
        -11    1    3    3    0    0  0.66587121461E+01 -0.16822714202E+02  0.10749642930E+02  0.21045117817E+02  0.51100000000E-03 0.  1.
        -12    1    3    3    0    0 -0.20955377932E+02 -0.15264844716E+02 -0.19629577658E+02  0.32518666447E+02  0.00000000000E+00 0.  1.
</event>
<event>
 7    1  0.4195243E-015  0.9000777E+02  0.7816164E-02  0.1186339E+00
        -11   -1    0    0    0    0  0.00000000000E+00  0.00000000000E+00  0.45593999997E+02  0.45594000000E+02  0.51100000000E-03 0. -1.
         11   -1    0    0    0    0 -0.00000000000E+00 -0.00000000000E+00 -0.45593999997E+02  0.45594000000E+02  0.51100000000E-03 0.  1.
    9900012    2    1    2    0    0 -0.63490888011E+00  0.47842075779E+00  0.87231675408E+00  0.90007774502E+02  0.90000036325E+02 0.  0.
        -12    1    1    2    0    0  0.63490888011E+00 -0.47842075779E+00 -0.87231675408E+00  0.11802254984E+01  0.00000000000E+00 0.  1.
         11    1    3    3    0    0 -0.78439407853E+01  0.34947392029E+02 -0.87864471403E+01  0.36878845837E+02  0.51100000000E-03 0. -1.
        -11    1    3    3    0    0 -0.39887974551E+01  0.72457546351E+01  0.50530497893E+01  0.96925114291E+01  0.51100000000E-03 0.  1.
        -12    1    3    3    0    0  0.11197829360E+02 -0.41714725906E+02  0.46057141051E+01  0.43436417235E+02  0.00000000000E+00 0.  1.
</event>
<event>
 7    1  0.4195243E-015  0.9000784E+02  0.7816164E-02  0.1186339E+00
        -11   -1    0    0    0    0  0.00000000000E+00  0.00000000000E+00  0.45593999997E+02  0.45594000000E+02  0.51100000000E-03 0.  1.
         11   -1    0    0    0    0 -0.00000000000E+00 -0.00000000000E+00 -0.45593999997E+02  0.45594000000E+02  0.51100000000E-03 0. -1.
    9900012    2    1    2    0    0 -0.56286206642E+00 -0.52402884631E+00 -0.89518456679E+00  0.90007840966E+02  0.90000103666E+02 0.  0.
        -12    1    1    2    0    0  0.56286206642E+00  0.52402884631E+00  0.89518456679E+00  0.11801590343E+01  0.00000000000E+00 0.  1.
         11    1    3    3    0    0  0.17207514203E+02 -0.33189207549E+02 -0.62989571348E+01  0.37911725152E+02  0.51100000000E-03 0. -1.
        -11    1    3    3    0    0  0.57311804553E+01 -0.27859461760E+01  0.70851892339E+01  0.95293143640E+01  0.51100000000E-03 0.  1.
        -12    1    3    3    0    0 -0.23501556725E+02  0.35451124879E+02 -0.16814166660E+01  0.42566801450E+02  0.00000000000E+00 0.  1.
</event>
<event>
 7    1  0.4195243E-015  0.9000778E+02  0.7816164E-02  0.1186339E+00
        -11   -1    0    0    0    0  0.00000000000E+00  0.00000000000E+00  0.45593999997E+02  0.45594000000E+02  0.51100000000E-03 0. -1.
         11   -1    0    0    0    0 -0.00000000000E+00 -0.00000000000E+00 -0.45593999997E+02  0.45594000000E+02  0.51100000000E-03 0.  1.
    9900012    2    1    2    0    0  0.11714219606E+01 -0.19144904803E-01  0.14258249646E+00  0.90007777264E+02  0.90000039124E+02 0.  0.
        -12    1    1    2    0    0 -0.11714219606E+01  0.19144904803E-01 -0.14258249646E+00  0.11802227355E+01  0.00000000000E+00 0.  1.
         11    1    3    3    0    0  0.24326507788E+01 -0.24122259233E+01 -0.90652426762E+01  0.96909880175E+01  0.51100000000E-03 0. -1.
        -11    1    3    3    0    0 -0.34904061008E+02 -0.65791832178E+01 -0.14317234104E+02  0.38295721945E+02  0.51100000000E-03 0.  1.
         12    1    3    3    0    0  0.33642832189E+02  0.89722642363E+01  0.23525059276E+02  0.42021067302E+02  0.00000000000E+00 0. -1.
</event>
<event>
 7    1  0.4195243E-015  0.9000763E+02  0.7816164E-02  0.1186339E+00
        -11   -1    0    0    0    0  0.00000000000E+00  0.00000000000E+00  0.45593999997E+02  0.45594000000E+02  0.51100000000E-03 0.  1.
         11   -1    0    0    0    0 -0.00000000000E+00 -0.00000000000E+00 -0.45593999997E+02  0.45594000000E+02  0.51100000000E-03 0. -1.
    9900012    2    1    2    0    0  0.70894444135E+00 -0.15730514884E+00 -0.93055609899E+00  0.90007626422E+02  0.89999886290E+02 0.  0.
        -12    1    1    2    0    0 -0.70894444135E+00  0.15730514884E+00  0.93055609899E+00  0.11803735782E+01  0.00000000000E+00 0.  1.
         11    1    3    3    0    0  0.11655065306E+02 -0.14349716938E+02 -0.37444897521E+02  0.41759732688E+02  0.51100000000E-03 0. -1.
        -11    1    3    3    0    0 -0.18516051314E+01 -0.62080738408E+01  0.13939339099E+01  0.66265884422E+01  0.51100000000E-03 0.  1.
        -12    1    3    3    0    0 -0.90945157331E+01  0.20400485630E+02  0.35120407513E+02  0.41621305292E+02  0.00000000000E+00 0.  1.
</event>
<event>
 7    1  0.4195243E-015  0.9000775E+02  0.7816164E-02  0.1186339E+00
        -11   -1    0    0    0    0  0.00000000000E+00  0.00000000000E+00  0.45593999997E+02  0.45594000000E+02  0.51100000000E-03 0. -1.
         11   -1    0    0    0    0 -0.00000000000E+00 -0.00000000000E+00 -0.45593999997E+02  0.45594000000E+02  0.51100000000E-03 0.  1.
    9900012    2    1    2    0    0 -0.74828290552E+00  0.92478940658E-01  0.90802150061E+00  0.90007753116E+02  0.90000014657E+02 0.  0.
        -12    1    1    2    0    0  0.74828290552E+00 -0.92478940658E-01 -0.90802150061E+00  0.11802468838E+01  0.00000000000E+00 0.  1.
         11    1    3    3    0    0 -0.13292752823E+02 -0.17769375905E+02  0.32816807466E+02  0.39615537989E+02  0.51100000000E-03 0. -1.
        -11    1    3    3    0    0 -0.91260997307E+00 -0.57042119798E+01  0.27295710448E+01  0.63891665829E+01  0.51100000000E-03 0.  1.
        -12    1    3    3    0    0  0.13457079890E+02  0.23566066825E+02 -0.34638357010E+02  0.44003048544E+02  0.00000000000E+00 0.  1.
</event>
<event>
 7    1  0.4195243E-015  0.9000780E+02  0.7816164E-02  0.1186339E+00
        -11   -1    0    0    0    0  0.00000000000E+00  0.00000000000E+00  0.45593999997E+02  0.45594000000E+02  0.51100000000E-03 0.  1.
         11   -1    0    0    0    0 -0.00000000000E+00 -0.00000000000E+00 -0.45593999997E+02  0.45594000000E+02  0.51100000000E-03 0. -1.
    9900012    2    1    2    0    0 -0.42943003896E+00  0.82249513359E+00 -0.72935748280E+00  0.90007800550E+02  0.90000062718E+02 0.  0.
        -12    1    1    2    0    0  0.42943003896E+00 -0.82249513359E+00  0.72935748280E+00  0.11801994496E+01  0.00000000000E+00 0.  1.
         11    1    3    3    0    0  0.22016265343E+00  0.32458281380E+01  0.88360650045E+01  0.94159395134E+01  0.51100000000E-03 0. -1.
        -11    1    3    3    0    0 -0.69732158269E+01  0.27362233978E+02  0.22697964685E+02  0.36228651484E+02  0.51100000000E-03 0.  1.
         12    1    3    3    0    0  0.63236231345E+01 -0.29785566983E+02 -0.32263387172E+02  0.44363209553E+02  0.00000000000E+00 0. -1.
</event>
<event>
 7    1  0.4195243E-015  0.9000774E+02  0.7816164E-02  0.1186339E+00
        -11   -1    0    0    0    0  0.00000000000E+00  0.00000000000E+00  0.45593999997E+02  0.45594000000E+02  0.51100000000E-03 0. -1.
         11   -1    0    0    0    0 -0.00000000000E+00 -0.00000000000E+00 -0.45593999997E+02  0.45594000000E+02  0.51100000000E-03 0.  1.
    9900012    2    1    2    0    0 -0.74569550420E+00 -0.54803760346E+00  0.73253528107E+00  0.90007739462E+02  0.90000000823E+02 0.  0.
        -12    1    1    2    0    0  0.74569550420E+00  0.54803760346E+00 -0.73253528107E+00  0.11802605381E+01  0.00000000000E+00 0.  1.
         11    1    3    3    0    0 -0.55250532762E+01  0.56480717321E+01  0.45703897003E+01  0.91277264568E+01  0.51100000000E-03 0. -1.
        -11    1    3    3    0    0  0.80120577414E+01  0.20203237109E+02  0.30496935669E+02  0.37448991233E+02  0.51100000000E-03 0.  1.
         12    1    3    3    0    0 -0.32326999694E+01 -0.26399346444E+02 -0.34334790088E+02  0.43431021772E+02  0.00000000000E+00 0. -1.
</event>
<event>
 7    1  0.4195243E-015  0.9000776E+02  0.7816164E-02  0.1186339E+00
        -11   -1    0    0    0    0  0.00000000000E+00  0.00000000000E+00  0.45593999997E+02  0.45594000000E+02  0.51100000000E-03 0. -1.
         11   -1    0    0    0    0 -0.00000000000E+00 -0.00000000000E+00 -0.45593999997E+02  0.45594000000E+02  0.51100000000E-03 0.  1.
    9900012    2    1    2    0    0  0.56244684123E+00 -0.74593535794E+00  0.72125506191E+00  0.90007756435E+02  0.90000018020E+02 0.  0.
        -12    1    1    2    0    0 -0.56244684123E+00  0.74593535794E+00 -0.72125506191E+00  0.11802435646E+01  0.00000000000E+00 0.  1.
         11    1    3    3    0    0 -0.16186086173E+02  0.15202267502E+02  0.38295382806E+02  0.44267761039E+02  0.51100000000E-03 0. -1.
        -11    1    3    3    0    0  0.74645799784E+01 -0.25370975149E+01 -0.50716686980E+01  0.93743608688E+01  0.51100000000E-03 0.  1.
        -12    1    3    3    0    0  0.92839530362E+01 -0.13411105346E+02 -0.32502459046E+02  0.36365634528E+02  0.00000000000E+00 0.  1.
</event>
<event>
 7    1  0.4195243E-015  0.9000777E+02  0.7816164E-02  0.1186339E+00
        -11   -1    0    0    0    0  0.00000000000E+00  0.00000000000E+00  0.45593999997E+02  0.45594000000E+02  0.51100000000E-03 0.  1.
         11   -1    0    0    0    0 -0.00000000000E+00 -0.00000000000E+00 -0.45593999997E+02  0.45594000000E+02  0.51100000000E-03 0. -1.
    9900012    2    1    2    0    0  0.63815084031E+00 -0.88179678940E+00 -0.45621238993E+00  0.90007774675E+02  0.90000036501E+02 0.  0.
        -12    1    1    2    0    0 -0.63815084031E+00  0.88179678940E+00  0.45621238993E+00  0.11802253249E+01  0.00000000000E+00 0.  1.
         11    1    3    3    0    0 -0.34477204488E+02 -0.78683868488E+01 -0.11453995625E+02  0.37172343980E+02  0.51100000000E-03 0. -1.
        -11    1    3    3    0    0 -0.74917144694E+01 -0.32984626342E+00  0.54063762149E+01  0.92446464663E+01  0.51100000000E-03 0.  1.
        -12    1    3    3    0    0  0.42607069798E+02  0.73164363228E+01  0.55914070199E+01  0.43590784229E+02  0.00000000000E+00 0.  1.
</event>
<event>
 7    1  0.4195243E-015  0.9000776E+02  0.7816164E-02  0.1186339E+00
        -11   -1    0    0    0    0  0.00000000000E+00  0.00000000000E+00  0.45593999997E+02  0.45594000000E+02  0.51100000000E-03 0.  1.
         11   -1    0    0    0    0 -0.00000000000E+00 -0.00000000000E+00 -0.45593999997E+02  0.45594000000E+02  0.51100000000E-03 0. -1.
    9900012    2    1    2    0    0 -0.84166242192E+00 -0.12641791201E+00 -0.81766731039E+00  0.90007764027E+02  0.90000025712E+02 0.  0.
        -12    1    1    2    0    0  0.84166242192E+00  0.12641791201E+00  0.81766731039E+00  0.11802359728E+01  0.00000000000E+00 0.  1.
         11    1    3    3    0    0 -0.14666811265E+02 -0.14290500538E+02 -0.36676112423E+02  0.42005606543E+02  0.51100000000E-03 0. -1.
        -11    1    3    3    0    0  0.80466674521E+01 -0.94558645739E+00 -0.59160123779E+00  0.81236065339E+01  0.51100000000E-03 0.  1.
        -12    1    3    3    0    0  0.57784813907E+01  0.15109669083E+02  0.36450046350E+02  0.39878550951E+02  0.00000000000E+00 0.  1.
</event>
<event>
 7    1  0.6979307E-015  0.9000781E+02  0.7816164E-02  0.1186339E+00
        -11   -1    0    0    0    0  0.00000000000E+00  0.00000000000E+00  0.45593999997E+02  0.45594000000E+02  0.51100000000E-03 0.  1.
         11   -1    0    0    0    0 -0.00000000000E+00 -0.00000000000E+00 -0.45593999997E+02  0.45594000000E+02  0.51100000000E-03 0. -1.
    9900012    2    1    2    0    0  0.13542757172E+00  0.34327313150E+00 -0.11210091207E+01  0.90007814202E+02  0.90000076549E+02 0.  0.
        -12    1    1    2    0    0 -0.13542757172E+00 -0.34327313150E+00  0.11210091207E+01  0.11801857984E+01  0.00000000000E+00 0.  1.
         11    1    3    3    0    0 -0.10686443156E+02  0.54899216034E+01 -0.34046977656E+02  0.36104514874E+02  0.51100000000E-03 0. -1.
        -11    1    3    3    0    0 -0.40499618019E+01 -0.34169471504E+01 -0.84095944979E+01  0.99397685237E+01  0.51100000000E-03 0.  1.
        -12    1    3    3    0    0  0.14871832529E+02 -0.17297013216E+01  0.41335563033E+02  0.43963530804E+02  0.00000000000E+00 0.  1.
</event>
<event>
 7    1  0.4195243E-015  0.9000767E+02  0.7816164E-02  0.1186339E+00
        -11   -1    0    0    0    0  0.00000000000E+00  0.00000000000E+00  0.45593999997E+02  0.45594000000E+02  0.51100000000E-03 0. -1.
         11   -1    0    0    0    0 -0.00000000000E+00 -0.00000000000E+00 -0.45593999997E+02  0.45594000000E+02  0.51100000000E-03 0.  1.
    9900012    2    1    2    0    0 -0.78112211750E+00 -0.36420157594E+00  0.80647064779E+00  0.90007665532E+02  0.89999925917E+02 0.  0.
        -12    1    1    2    0    0  0.78112211750E+00  0.36420157594E+00 -0.80647064779E+00  0.11803344679E+01  0.00000000000E+00 0.  1.
         11    1    3    3    0    0 -0.23153525020E+01  0.77520964707E+01  0.48774780744E+01  0.94469915596E+01  0.51100000000E-03 0. -1.
        -11    1    3    3    0    0 -0.21540244203E+02  0.20496907964E+02 -0.24482089283E+02  0.38515945430E+02  0.51100000000E-03 0.  1.
         12    1    3    3    0    0  0.23074474588E+02 -0.28613206010E+02  0.20411081856E+02  0.42044728543E+02  0.00000000000E+00 0. -1.
</event>
<event>
 7    1  0.4195243E-015  0.9000753E+02  0.7816164E-02  0.1186339E+00
        -11   -1    0    0    0    0  0.00000000000E+00  0.00000000000E+00  0.45593999997E+02  0.45594000000E+02  0.51100000000E-03 0.  1.
         11   -1    0    0    0    0 -0.00000000000E+00 -0.00000000000E+00 -0.45593999997E+02  0.45594000000E+02  0.51100000000E-03 0. -1.
    9900012    2    1    2    0    0  0.37946068344E+00  0.29424989937E+00  0.10783927406E+01  0.90007532162E+02  0.89999790786E+02 0.  0.
        -12    1    1    2    0    0 -0.37946068344E+00 -0.29424989937E+00 -0.10783927406E+01  0.11804678380E+01  0.00000000000E+00 0.  1.
         11    1    3    3    0    0  0.23134064504E+02 -0.18477478186E+01 -0.32422037433E+02  0.39872140951E+02  0.51100000000E-03 0. -1.
        -11    1    3    3    0    0  0.12219345341E+01 -0.74226381794E+01 -0.39105047419E+00  0.75327021899E+01  0.51100000000E-03 0.  1.
        -12    1    3    3    0    0 -0.23976538354E+02  0.95646358973E+01  0.33891480648E+02  0.42602689021E+02  0.00000000000E+00 0.  1.
</event>
<event>
 7    1  0.4195243E-015  0.9000770E+02  0.7816164E-02  0.1186339E+00
        -11   -1    0    0    0    0  0.00000000000E+00  0.00000000000E+00  0.45593999997E+02  0.45594000000E+02  0.51100000000E-03 0. -1.
         11   -1    0    0    0    0 -0.00000000000E+00 -0.00000000000E+00 -0.45593999997E+02  0.45594000000E+02  0.51100000000E-03 0.  1.
    9900012    2    1    2    0    0 -0.39761949036E+00 -0.10494339861E+01  0.36564143443E+00  0.90007700627E+02  0.89999961476E+02 0.  0.
        -12    1    1    2    0    0  0.39761949036E+00  0.10494339861E+01 -0.36564143443E+00  0.11802993725E+01  0.00000000000E+00 0.  1.
         11    1    3    3    0    0  0.10774226671E+02  0.44934520163E+00  0.33357897792E+02  0.35057598560E+02  0.51100000000E-03 0. -1.
        -11    1    3    3    0    0  0.31477406222E+01  0.20468522770E+01  0.93691706292E+01  0.10093524350E+02  0.51100000000E-03 0.  1.
        -12    1    3    3    0    0 -0.14319586783E+02 -0.35456314647E+01 -0.42361426987E+02  0.44856577717E+02  0.00000000000E+00 0.  1.
</event>
<event>
 7    1  0.4195243E-015  0.9000771E+02  0.7816164E-02  0.1186339E+00
        -11   -1    0    0    0    0  0.00000000000E+00  0.00000000000E+00  0.45593999997E+02  0.45594000000E+02  0.51100000000E-03 0. -1.
         11   -1    0    0    0    0 -0.00000000000E+00 -0.00000000000E+00 -0.45593999997E+02  0.45594000000E+02  0.51100000000E-03 0.  1.
    9900012    2    1    2    0    0  0.99168631946E+00  0.50832307841E+00 -0.38890002753E+00  0.90007713027E+02  0.89999974039E+02 0.  0.
        -12    1    1    2    0    0 -0.99168631946E+00 -0.50832307841E+00  0.38890002753E+00  0.11802869734E+01  0.00000000000E+00 0.  1.
         11    1    3    3    0    0 -0.23369968820E+01 -0.25565841314E+01 -0.84324144575E+01  0.91161006298E+01  0.51100000000E-03 0. -1.
        -11    1    3    3    0    0 -0.98883291271E+01 -0.25528307363E+02 -0.23671585672E+02  0.36191400888E+02  0.51100000000E-03 0.  1.
         12    1    3    3    0    0  0.13217012329E+02  0.28593214572E+02  0.31715100102E+02  0.44700211509E+02  0.00000000000E+00 0. -1.
</event>
<event>
 7    1  0.4195243E-015  0.9000769E+02  0.7816164E-02  0.1186339E+00
        -11   -1    0    0    0    0  0.00000000000E+00  0.00000000000E+00  0.45593999997E+02  0.45594000000E+02  0.51100000000E-03 0.  1.
         11   -1    0    0    0    0 -0.00000000000E+00 -0.00000000000E+00 -0.45593999997E+02  0.45594000000E+02  0.51100000000E-03 0. -1.
    9900012    2    1    2    0    0 -0.29308468492E-01  0.49620522056E+00 -0.10705403302E+01  0.90007688513E+02  0.89999949202E+02 0.  0.
        -12    1    1    2    0    0  0.29308468492E-01 -0.49620522056E+00  0.10705403302E+01  0.11803114867E+01  0.00000000000E+00 0.  1.
         11    1    3    3    0    0  0.20938032736E+02  0.33524676086E+02 -0.14824921119E+02  0.42214729752E+02  0.51100000000E-03 0. -1.
        -11    1    3    3    0    0 -0.15782434972E+01 -0.57008295726E+01 -0.63811052626E+01  0.87010812538E+01  0.51100000000E-03 0.  1.
        -12    1    3    3    0    0 -0.19389097707E+02 -0.27327641293E+02  0.20135486052E+02  0.39091877508E+02  0.00000000000E+00 0.  1.
</event>
<event>
 7    1  0.4195243E-015  0.9000760E+02  0.7816164E-02  0.1186339E+00
        -11   -1    0    0    0    0  0.00000000000E+00  0.00000000000E+00  0.45593999997E+02  0.45594000000E+02  0.51100000000E-03 0. -1.
         11   -1    0    0    0    0 -0.00000000000E+00 -0.00000000000E+00 -0.45593999997E+02  0.45594000000E+02  0.51100000000E-03 0.  1.
    9900012    2    1    2    0    0 -0.28483038606E+00  0.66792038750E+00  0.93064857075E+00  0.90007596359E+02  0.89999855831E+02 0.  0.
        -12    1    1    2    0    0  0.28483038606E+00 -0.66792038750E+00 -0.93064857075E+00  0.11804036408E+01  0.00000000000E+00 0.  1.
         11    1    3    3    0    0 -0.99062872154E+01 -0.23540828511E+02  0.30164594964E+02  0.39524776065E+02  0.51100000000E-03 0. -1.
        -11    1    3    3    0    0  0.77284350651E+01 -0.55996562167E+01 -0.13819000271E+01  0.96433659189E+01  0.51100000000E-03 0.  1.
        -12    1    3    3    0    0  0.18930217642E+01  0.29808405115E+02 -0.27852046366E+02  0.40839454375E+02  0.00000000000E+00 0.  1.
</event>
<event>
 7    1  0.4195243E-015  0.9000776E+02  0.7816164E-02  0.1186339E+00
        -11   -1    0    0    0    0  0.00000000000E+00  0.00000000000E+00  0.45593999997E+02  0.45594000000E+02  0.51100000000E-03 0. -1.
         11   -1    0    0    0    0 -0.00000000000E+00 -0.00000000000E+00 -0.45593999997E+02  0.45594000000E+02  0.51100000000E-03 0.  1.
    9900012    2    1    2    0    0  0.20421298324E+00  0.10575678365E+01  0.48251672419E+00  0.90007756355E+02  0.90000017939E+02 0.  0.
        -12    1    1    2    0    0 -0.20421298324E+00 -0.10575678365E+01 -0.48251672419E+00  0.11802436445E+01  0.00000000000E+00 0.  1.
         11    1    3    3    0    0 -0.89322724362E+01  0.38286926284E+02  0.58904731529E+01  0.39753891500E+02  0.51100000000E-03 0. -1.
        -11    1    3    3    0    0  0.95828995545E+01  0.26620535799E+01 -0.24938063647E+01  0.10253660984E+02  0.51100000000E-03 0.  1.
        -12    1    3    3    0    0 -0.44641413511E+00 -0.39891412028E+02 -0.29141500640E+01  0.40000203871E+02  0.00000000000E+00 0.  1.
</event>
<event>
 7    1  0.4195243E-015  0.9000770E+02  0.7816164E-02  0.1186339E+00
        -11   -1    0    0    0    0  0.00000000000E+00  0.00000000000E+00  0.45593999997E+02  0.45594000000E+02  0.51100000000E-03 0. -1.
         11   -1    0    0    0    0 -0.00000000000E+00 -0.00000000000E+00 -0.45593999997E+02  0.45594000000E+02  0.51100000000E-03 0.  1.
    9900012    2    1    2    0    0  0.51330592858E+00  0.55429600710E-01  0.10613911467E+01  0.90007700638E+02  0.89999961487E+02 0.  0.
        -12    1    1    2    0    0 -0.51330592858E+00 -0.55429600710E-01 -0.10613911467E+01  0.11802993617E+01  0.00000000000E+00 0.  1.
         11    1    3    3    0    0  0.32576943680E+02  0.28177224234E+02 -0.76999906186E+01  0.43755034920E+02  0.51100000000E-03 0. -1.
        -11    1    3    3    0    0 -0.75643057688E+01 -0.34778576497E+01  0.79228554274E+01  0.11492861001E+02  0.51100000000E-03 0.  1.
        -12    1    3    3    0    0 -0.24499331982E+02 -0.24643936983E+02  0.83852633783E+00  0.34759804718E+02  0.00000000000E+00 0.  1.
</event>
<event>
 7    1  0.4195243E-015  0.9000781E+02  0.7816164E-02  0.1186339E+00
        -11   -1    0    0    0    0  0.00000000000E+00  0.00000000000E+00  0.45593999997E+02  0.45594000000E+02  0.51100000000E-03 0. -1.
         11   -1    0    0    0    0 -0.00000000000E+00 -0.00000000000E+00 -0.45593999997E+02  0.45594000000E+02  0.51100000000E-03 0.  1.
    9900012    2    1    2    0    0 -0.67827360836E-01 -0.67532009253E+00  0.96550294396E+00  0.90007807764E+02  0.90000070027E+02 0.  0.
        -12    1    1    2    0    0  0.67827360836E-01  0.67532009253E+00 -0.96550294396E+00  0.11801922356E+01  0.00000000000E+00 0.  1.
         11    1    3    3    0    0  0.11807733827E+01 -0.84152320691E+01 -0.36427487103E+01  0.92455381122E+01  0.51100000000E-03 0. -1.
        -11    1    3    3    0    0 -0.34887449694E+02  0.29185218057E+01 -0.18568302751E+02  0.39628698982E+02  0.51100000000E-03 0.  1.
         12    1    3    3    0    0  0.33638848951E+02  0.48213901709E+01  0.23176554406E+02  0.41133570670E+02  0.00000000000E+00 0. -1.
</event>
<event>
 7    1  0.4195243E-015  0.9000763E+02  0.7816164E-02  0.1186339E+00
        -11   -1    0    0    0    0  0.00000000000E+00  0.00000000000E+00  0.45593999997E+02  0.45594000000E+02  0.51100000000E-03 0.  1.
         11   -1    0    0    0    0 -0.00000000000E+00 -0.00000000000E+00 -0.45593999997E+02  0.45594000000E+02  0.51100000000E-03 0. -1.
    9900012    2    1    2    0    0 -0.99080236233E+00 -0.53649926925E+00 -0.35179061404E+00  0.90007628269E+02  0.89999888162E+02 0.  0.
        -12    1    1    2    0    0  0.99080236233E+00  0.53649926925E+00  0.35179061404E+00  0.11803717310E+01  0.00000000000E+00 0.  1.
         11    1    3    3    0    0 -0.76206816486E+01 -0.33739192759E+01  0.47033298236E+01  0.95697142988E+01  0.51100000000E-03 0. -1.
        -11    1    3    3    0    0 -0.24168459578E+02 -0.91532656913E+01  0.24859923653E+02  0.35859622356E+02  0.51100000000E-03 0.  1.
         12    1    3    3    0    0  0.30798338864E+02  0.11990685698E+02 -0.29915044091E+02  0.44578291615E+02  0.00000000000E+00 0. -1.
</event>
<event>
 7    1  0.4195243E-015  0.9000773E+02  0.7816164E-02  0.1186339E+00
        -11   -1    0    0    0    0  0.00000000000E+00  0.00000000000E+00  0.45593999997E+02  0.45594000000E+02  0.51100000000E-03 0.  1.
         11   -1    0    0    0    0 -0.00000000000E+00 -0.00000000000E+00 -0.45593999997E+02  0.45594000000E+02  0.51100000000E-03 0. -1.
    9900012    2    1    2    0    0  0.46972606902E+00  0.70119870489E+00 -0.82505791017E+00  0.90007727676E+02  0.89999988881E+02 0.  0.
        -12    1    1    2    0    0 -0.46972606902E+00 -0.70119870489E+00  0.82505791017E+00  0.11802723240E+01  0.00000000000E+00 0.  1.
         11    1    3    3    0    0  0.43506766592E+01 -0.37229656948E+01 -0.37297521911E+02  0.37734520030E+02  0.51100000000E-03 0. -1.
        -11    1    3    3    0    0  0.47623503516E+01  0.41677218809E+01 -0.61248879944E+01  0.88070505706E+01  0.51100000000E-03 0.  1.
        -12    1    3    3    0    0 -0.86433009417E+01  0.25644251875E+00  0.42597351995E+02  0.43466157075E+02  0.00000000000E+00 0.  1.
</event>
<event>
 7    1  0.4195243E-015  0.9000770E+02  0.7816164E-02  0.1186339E+00
        -11   -1    0    0    0    0  0.00000000000E+00  0.00000000000E+00  0.45593999997E+02  0.45594000000E+02  0.51100000000E-03 0.  1.
         11   -1    0    0    0    0 -0.00000000000E+00 -0.00000000000E+00 -0.45593999997E+02  0.45594000000E+02  0.51100000000E-03 0. -1.
    9900012    2    1    2    0    0 -0.17883891025E+00 -0.47843934293E+00 -0.10640572867E+01  0.90007701110E+02  0.89999961965E+02 0.  0.
        -12    1    1    2    0    0  0.17883891025E+00  0.47843934293E+00  0.10640572867E+01  0.11802988901E+01  0.00000000000E+00 0.  1.
         11    1    3    3    0    0  0.23630697024E+02 -0.12724160880E+02 -0.31322891688E+02  0.41248486710E+02  0.51100000000E-03 0. -1.
        -11    1    3    3    0    0 -0.27286927615E+01  0.10884219334E+00 -0.51328890609E+01  0.58141346031E+01  0.51100000000E-03 0.  1.
        -12    1    3    3    0    0 -0.21080843173E+02  0.12136879344E+02  0.35391723462E+02  0.42945079796E+02  0.00000000000E+00 0.  1.
</event>
<event>
 7    1  0.8860559E-015  0.9000781E+02  0.7816164E-02  0.1186339E+00
        -11   -1    0    0    0    0  0.00000000000E+00  0.00000000000E+00  0.45593999997E+02  0.45594000000E+02  0.51100000000E-03 0.  1.
         11   -1    0    0    0    0 -0.00000000000E+00 -0.00000000000E+00 -0.45593999997E+02  0.45594000000E+02  0.51100000000E-03 0. -1.
    9900012    2    1    2    0    0  0.75980403421E-01  0.10789083901E+01 -0.47225932229E+00  0.90007811370E+02  0.90000073680E+02 0.  0.
        -12    1    1    2    0    0 -0.75980403421E-01 -0.10789083901E+01  0.47225932229E+00  0.11801886304E+01  0.00000000000E+00 0.  1.
         11    1    3    3    0    0 -0.21450726646E+02  0.13591342407E+02 -0.29878684188E+02  0.39212166877E+02  0.51100000000E-03 0. -1.
        -11    1    3    3    0    0  0.68724513001E+01  0.50882311330E+01 -0.46660124068E+01  0.97412707065E+01  0.51100000000E-03 0.  1.
        -12    1    3    3    0    0  0.14654255749E+02 -0.17600665150E+02  0.34072437273E+02  0.41054373786E+02  0.00000000000E+00 0.  1.
</event>
<event>
 7    1  0.4195243E-015  0.9000771E+02  0.7816164E-02  0.1186339E+00
        -11   -1    0    0    0    0  0.00000000000E+00  0.00000000000E+00  0.45593999997E+02  0.45594000000E+02  0.51100000000E-03 0.  1.
         11   -1    0    0    0    0 -0.00000000000E+00 -0.00000000000E+00 -0.45593999997E+02  0.45594000000E+02  0.51100000000E-03 0. -1.
    9900012    2    1    2    0    0 -0.10590919562E+01  0.45940999126E+00 -0.24567462466E+00  0.90007707946E+02  0.89999968891E+02 0.  0.
        -12    1    1    2    0    0  0.10590919562E+01 -0.45940999126E+00  0.24567462466E+00  0.11802920541E+01  0.00000000000E+00 0.  1.
         11    1    3    3    0    0 -0.73537265929E+01  0.25642860551E+02 -0.22836610374E+02  0.35116155337E+02  0.51100000000E-03 0. -1.
        -11    1    3    3    0    0 -0.53091434703E+01  0.63234491122E+01 -0.64669321270E+01  0.10487813140E+02  0.51100000000E-03 0.  1.
        -12    1    3    3    0    0  0.11603778107E+02 -0.31506899672E+02  0.29057867876E+02  0.44403739469E+02  0.00000000000E+00 0.  1.
</event>
<event>
 7    1  0.4195243E-015  0.9000776E+02  0.7816164E-02  0.1186339E+00
        -11   -1    0    0    0    0  0.00000000000E+00  0.00000000000E+00  0.45593999997E+02  0.45594000000E+02  0.51100000000E-03 0.  1.
         11   -1    0    0    0    0 -0.00000000000E+00 -0.00000000000E+00 -0.45593999997E+02  0.45594000000E+02  0.51100000000E-03 0. -1.
    9900012    2    1    2    0    0  0.70766890762E+00 -0.94362772372E+00 -0.41622347253E-01  0.90007762319E+02  0.90000023982E+02 0.  0.
        -12    1    1    2    0    0 -0.70766890762E+00  0.94362772372E+00  0.41622347253E-01  0.11802376810E+01  0.00000000000E+00 0.  1.
         11    1    3    3    0    0  0.34684696525E+01  0.64991153625E+01 -0.54987026429E+01  0.91926336402E+01  0.51100000000E-03 0. -1.
        -11    1    3    3    0    0  0.22419971487E+02  0.22102413217E+02 -0.17191957810E+02  0.35871091496E+02  0.51100000000E-03 0.  1.
         12    1    3    3    0    0 -0.25180772232E+02 -0.29545156304E+02  0.22649038106E+02  0.44944037183E+02  0.00000000000E+00 0. -1.
</event>
<event>
 7    1  0.4195243E-015  0.9000817E+02  0.7816164E-02  0.1186338E+00
        -11   -1    0    0    0    0  0.00000000000E+00  0.00000000000E+00  0.45593999997E+02  0.45594000000E+02  0.51100000000E-03 0.  1.
         11   -1    0    0    0    0 -0.00000000000E+00 -0.00000000000E+00 -0.45593999997E+02  0.45594000000E+02  0.51100000000E-03 0. -1.
    9900012    2    1    2    0    0 -0.43383919414E+00  0.53618058630E+00 -0.95722662695E+00  0.90008174215E+02  0.90000441314E+02 0.  0.
        -12    1    1    2    0    0  0.43383919414E+00 -0.53618058630E+00  0.95722662695E+00  0.11798257849E+01  0.00000000000E+00 0.  1.
         11    1    3    3    0    0  0.24843310302E+02  0.18428832357E+02 -0.24499761424E+02  0.39459475907E+02  0.51100000000E-03 0. -1.
        -11    1    3    3    0    0 -0.68300683279E+01  0.13656509920E+01 -0.70868252639E+01  0.99366960595E+01  0.51100000000E-03 0.  1.
        -12    1    3    3    0    0 -0.18447081168E+02 -0.19258302763E+02  0.30629360061E+02  0.40612002249E+02  0.00000000000E+00 0.  1.
</event>
<event>
 7    1  0.4195243E-015  0.9000799E+02  0.7816164E-02  0.1186339E+00
        -11   -1    0    0    0    0  0.00000000000E+00  0.00000000000E+00  0.45593999997E+02  0.45594000000E+02  0.51100000000E-03 0.  1.
         11   -1    0    0    0    0 -0.00000000000E+00 -0.00000000000E+00 -0.45593999997E+02  0.45594000000E+02  0.51100000000E-03 0. -1.
    9900012    2    1    2    0    0 -0.83929299516E-01 -0.84198814662E+00 -0.82245297064E+00  0.90007992773E+02  0.90000257477E+02 0.  0.
        -12    1    1    2    0    0  0.83929299516E-01  0.84198814662E+00  0.82245297064E+00  0.11800072268E+01  0.00000000000E+00 0.  1.
         11    1    3    3    0    0 -0.35145301787E+01  0.61586747963E+01  0.82339859149E+01  0.10866449371E+02  0.51100000000E-03 0. -1.
        -11    1    3    3    0    0  0.16265971488E+02 -0.14132942997E+02  0.30273882618E+02  0.37159519308E+02  0.51100000000E-03 0.  1.
         12    1    3    3    0    0 -0.12835370608E+02  0.71322800536E+01 -0.39330321504E+02  0.41982024094E+02  0.00000000000E+00 0. -1.
</event>
<event>
 7    1  0.4370453E-015  0.9000786E+02  0.7816164E-02  0.1186339E+00
        -11   -1    0    0    0    0  0.00000000000E+00  0.00000000000E+00  0.45593999997E+02  0.45594000000E+02  0.51100000000E-03 0.  1.
         11   -1    0    0    0    0 -0.00000000000E+00 -0.00000000000E+00 -0.45593999997E+02  0.45594000000E+02  0.51100000000E-03 0. -1.
    9900012    2    1    2    0    0 -0.38447490819E+00  0.58396970121E+00 -0.95073331210E+00  0.90007857891E+02  0.90000120815E+02 0.  0.
        -12    1    1    2    0    0  0.38447490819E+00 -0.58396970121E+00  0.95073331210E+00  0.11801421091E+01  0.00000000000E+00 0.  1.
         11    1    3    3    0    0 -0.17901108421E+02  0.12764204784E+02 -0.37532657495E+02  0.43497988291E+02  0.51100000000E-03 0. -1.
        -11    1    3    3    0    0  0.93272232457E+01  0.71496919739E+00  0.33521573799E+01  0.99370636401E+01  0.51100000000E-03 0.  1.
        -12    1    3    3    0    0  0.81894102675E+01 -0.12895204280E+02  0.33229766803E+02  0.36572805959E+02  0.00000000000E+00 0.  1.
</event>
<event>
 7    1  0.4195243E-015  0.9000772E+02  0.7816164E-02  0.1186339E+00
        -11   -1    0    0    0    0  0.00000000000E+00  0.00000000000E+00  0.45593999997E+02  0.45594000000E+02  0.51100000000E-03 0.  1.
         11   -1    0    0    0    0 -0.00000000000E+00 -0.00000000000E+00 -0.45593999997E+02  0.45594000000E+02  0.51100000000E-03 0. -1.
    9900012    2    1    2    0    0 -0.85992735782E+00 -0.12379710103E+00 -0.79891557137E+00  0.90007717460E+02  0.89999978531E+02 0.  0.
        -12    1    1    2    0    0  0.85992735782E+00  0.12379710103E+00  0.79891557137E+00  0.11802825395E+01  0.00000000000E+00 0.  1.
         11    1    3    3    0    0 -0.31677945536E+02  0.16802587383E+02  0.35414459198E+01  0.36032776962E+02  0.51100000000E-03 0. -1.
        -11    1    3    3    0    0 -0.62359694083E+01  0.65085981349E+01  0.30452758292E+01  0.95143507019E+01  0.51100000000E-03 0.  1.
        -12    1    3    3    0    0  0.37053987587E+02 -0.23434982619E+02 -0.73856373204E+01  0.44460589796E+02  0.00000000000E+00 0.  1.
</event>
<event>
 7    1  0.4195243E-015  0.9000765E+02  0.7816164E-02  0.1186339E+00
        -11   -1    0    0    0    0  0.00000000000E+00  0.00000000000E+00  0.45593999997E+02  0.45594000000E+02  0.51100000000E-03 0.  1.
         11   -1    0    0    0    0 -0.00000000000E+00 -0.00000000000E+00 -0.45593999997E+02  0.45594000000E+02  0.51100000000E-03 0. -1.
    9900012    2    1    2    0    0  0.17453724212E-01  0.10991614523E+01  0.42982996856E+00  0.90007654994E+02  0.89999915240E+02 0.  0.
        -12    1    1    2    0    0 -0.17453724212E-01 -0.10991614523E+01 -0.42982996856E+00  0.11803450057E+01  0.00000000000E+00 0.  1.
         11    1    3    3    0    0  0.87628004520E+01  0.45100860311E+01  0.17004917328E+01  0.10000960962E+02  0.51100000000E-03 0. -1.
        -11    1    3    3    0    0  0.19987696671E+02 -0.10603191427E+02  0.29578471066E+02  0.37240054209E+02  0.51100000000E-03 0.  1.
         12    1    3    3    0    0 -0.28733043399E+02  0.71922668485E+01 -0.30849132830E+02  0.42766639823E+02  0.00000000000E+00 0. -1.
</event>
<event>
 7    1  0.4270298E-015  0.9000781E+02  0.7816164E-02  0.1186339E+00
        -11   -1    0    0    0    0  0.00000000000E+00  0.00000000000E+00  0.45593999997E+02  0.45594000000E+02  0.51100000000E-03 0.  1.
         11   -1    0    0    0    0 -0.00000000000E+00 -0.00000000000E+00 -0.45593999997E+02  0.45594000000E+02  0.51100000000E-03 0. -1.
    9900012    2    1    2    0    0 -0.91919543486E+00  0.53119450964E+00 -0.51551312210E+00  0.90007812882E+02  0.90000075212E+02 0.  0.
        -12    1    1    2    0    0  0.91919543486E+00 -0.53119450964E+00  0.51551312210E+00  0.11801871180E+01  0.00000000000E+00 0.  1.
         11    1    3    3    0    0  0.24254340052E+02  0.21907175765E+02 -0.13686450138E+02  0.35433265147E+02  0.51100000000E-03 0. -1.
        -11    1    3    3    0    0  0.63114397966E+01  0.47501071860E+01 -0.54768490766E+01  0.96121624338E+01  0.51100000000E-03 0.  1.
        -12    1    3    3    0    0 -0.31484975283E+02 -0.26126088441E+02  0.18647786092E+02  0.44962385301E+02  0.00000000000E+00 0.  1.
</event>
<event>
 7    1  0.4195243E-015  0.9000776E+02  0.7816164E-02  0.1186339E+00
        -11   -1    0    0    0    0  0.00000000000E+00  0.00000000000E+00  0.45593999997E+02  0.45594000000E+02  0.51100000000E-03 0.  1.
         11   -1    0    0    0    0 -0.00000000000E+00 -0.00000000000E+00 -0.45593999997E+02  0.45594000000E+02  0.51100000000E-03 0. -1.
    9900012    2    1    2    0    0 -0.73189594563E+00 -0.45667182829E+00 -0.80544672823E+00  0.90007760505E+02  0.90000022143E+02 0.  0.
        -12    1    1    2    0    0  0.73189594563E+00  0.45667182829E+00  0.80544672823E+00  0.11802394952E+01  0.00000000000E+00 0.  1.
         11    1    3    3    0    0  0.31851794886E+01  0.44061926318E+01 -0.81520366249E+01  0.97987551902E+01  0.51100000000E-03 0. -1.
        -11    1    3    3    0    0 -0.29780259858E+02 -0.69924209124E+01 -0.24454362191E+02  0.39163422448E+02  0.51100000000E-03 0.  1.
         12    1    3    3    0    0  0.25863184424E+02  0.21295564523E+01  0.31800952087E+02  0.41045582867E+02  0.00000000000E+00 0. -1.
</event>
<event>
 7    1  0.4195243E-015  0.9000774E+02  0.7816164E-02  0.1186339E+00
        -11   -1    0    0    0    0  0.00000000000E+00  0.00000000000E+00  0.45593999997E+02  0.45594000000E+02  0.51100000000E-03 0.  1.
         11   -1    0    0    0    0 -0.00000000000E+00 -0.00000000000E+00 -0.45593999997E+02  0.45594000000E+02  0.51100000000E-03 0. -1.
    9900012    2    1    2    0    0 -0.43376467982E+00 -0.18457979278E+00 -0.10820272306E+01  0.90007743915E+02  0.90000005335E+02 0.  0.
        -12    1    1    2    0    0  0.43376467982E+00  0.18457979278E+00  0.10820272306E+01  0.11802560846E+01  0.00000000000E+00 0.  1.
         11    1    3    3    0    0  0.14912277006E+02  0.31254677275E+02 -0.26672174749E+02  0.43710819750E+02  0.51100000000E-03 0. -1.
        -11    1    3    3    0    0 -0.83932719692E+01 -0.31981712222E+01  0.29986561614E+01  0.94692794103E+01  0.51100000000E-03 0.  1.
        -12    1    3    3    0    0 -0.69527697171E+01 -0.28241085845E+02  0.22591491357E+02  0.36827644755E+02  0.00000000000E+00 0.  1.
</event>
<event>
 7    1  0.4195243E-015  0.9000774E+02  0.7816164E-02  0.1186339E+00
        -11   -1    0    0    0    0  0.00000000000E+00  0.00000000000E+00  0.45593999997E+02  0.45594000000E+02  0.51100000000E-03 0.  1.
         11   -1    0    0    0    0 -0.00000000000E+00 -0.00000000000E+00 -0.45593999997E+02  0.45594000000E+02  0.51100000000E-03 0. -1.
    9900012    2    1    2    0    0  0.11791723693E+01 -0.50000625476E-01  0.81656057915E-02  0.90007739768E+02  0.90000001133E+02 0.  0.
        -12    1    1    2    0    0 -0.11791723693E+01  0.50000625476E-01 -0.81656057915E-02  0.11802602324E+01  0.00000000000E+00 0.  1.
         11    1    3    3    0    0  0.10896184550E+02  0.74856515334E+00 -0.37437805322E+02  0.38998416060E+02  0.51100000000E-03 0. -1.
        -11    1    3    3    0    0 -0.72182578507E+01 -0.29886082534E+01 -0.44438550952E+01  0.89879293532E+01  0.51100000000E-03 0.  1.
        -12    1    3    3    0    0 -0.24987543302E+01  0.21900424745E+01  0.41889826023E+02  0.42021394355E+02  0.00000000000E+00 0.  1.
</event>
<event>
 7    1  0.4195243E-015  0.9000761E+02  0.7816164E-02  0.1186339E+00
        -11   -1    0    0    0    0  0.00000000000E+00  0.00000000000E+00  0.45593999997E+02  0.45594000000E+02  0.51100000000E-03 0.  1.
         11   -1    0    0    0    0 -0.00000000000E+00 -0.00000000000E+00 -0.45593999997E+02  0.45594000000E+02  0.51100000000E-03 0. -1.
    9900012    2    1    2    0    0  0.44853002658E+00  0.10783199045E+01 -0.17138241626E+00  0.90007608144E+02  0.89999867771E+02 0.  0.
        -12    1    1    2    0    0 -0.44853002658E+00 -0.10783199045E+01  0.17138241626E+00  0.11803918560E+01  0.00000000000E+00 0.  1.
         11    1    3    3    0    0 -0.28260223590E+02  0.71284536122E+01 -0.30031927214E+02  0.41849393552E+02  0.51100000000E-03 0. -1.
        -11    1    3    3    0    0  0.89587868015E+00 -0.91385266540E+01  0.38631183404E+01  0.99618749033E+01  0.51100000000E-03 0.  1.
        -12    1    3    3    0    0  0.27812874936E+02  0.30883929463E+01  0.25997426457E+02  0.38196339689E+02  0.00000000000E+00 0.  1.
</event>
<event>
 7    1  0.4195243E-015  0.9000773E+02  0.7816164E-02  0.1186339E+00
        -11   -1    0    0    0    0  0.00000000000E+00  0.00000000000E+00  0.45593999997E+02  0.45594000000E+02  0.51100000000E-03 0. -1.
         11   -1    0    0    0    0 -0.00000000000E+00 -0.00000000000E+00 -0.45593999997E+02  0.45594000000E+02  0.51100000000E-03 0.  1.
    9900012    2    1    2    0    0 -0.11770516854E+01 -0.32164869562E-01 -0.80998121269E-01  0.90007726326E+02  0.89999987514E+02 0.  0.
        -12    1    1    2    0    0  0.11770516854E+01  0.32164869562E-01  0.80998121269E-01  0.11802736736E+01  0.00000000000E+00 0.  1.
         11    1    3    3    0    0 -0.30121468922E+00  0.17253610490E+02  0.72970692880E+01  0.18735661869E+02  0.51100000000E-03 0. -1.
        -11    1    3    3    0    0 -0.21864655368E+02  0.15481109097E+02  0.10078040059E+02  0.28623325888E+02  0.51100000000E-03 0.  1.
         12    1    3    3    0    0  0.20988818372E+02 -0.32766884456E+02 -0.17456107469E+02  0.42648738569E+02  0.00000000000E+00 0. -1.
</event>
<event>
 7    1  0.4195243E-015  0.9000770E+02  0.7816164E-02  0.1186339E+00
        -11   -1    0    0    0    0  0.00000000000E+00  0.00000000000E+00  0.45593999997E+02  0.45594000000E+02  0.51100000000E-03 0.  1.
         11   -1    0    0    0    0 -0.00000000000E+00 -0.00000000000E+00 -0.45593999997E+02  0.45594000000E+02  0.51100000000E-03 0. -1.
    9900012    2    1    2    0    0 -0.75774533013E+00 -0.25224426944E+00 -0.86908149173E+00  0.90007700125E+02  0.89999960966E+02 0.  0.
        -12    1    1    2    0    0  0.75774533013E+00  0.25224426944E+00  0.86908149173E+00  0.11802998755E+01  0.00000000000E+00 0.  1.
         11    1    3    3    0    0 -0.11322044821E+02 -0.24044911335E+02 -0.23143906185E+02  0.35241833859E+02  0.51100000000E-03 0. -1.
        -11    1    3    3    0    0 -0.70260734230E+01 -0.41462245219E+01 -0.69169868594E+01  0.10695868034E+02  0.51100000000E-03 0.  1.
        -12    1    3    3    0    0  0.17590372914E+02  0.27938891587E+02  0.29191811553E+02  0.44069998231E+02  0.00000000000E+00 0.  1.
</event>
<event>
 7    1  0.4195243E-015  0.9000771E+02  0.7816164E-02  0.1186339E+00
        -11   -1    0    0    0    0  0.00000000000E+00  0.00000000000E+00  0.45593999997E+02  0.45594000000E+02  0.51100000000E-03 0.  1.
         11   -1    0    0    0    0 -0.00000000000E+00 -0.00000000000E+00 -0.45593999997E+02  0.45594000000E+02  0.51100000000E-03 0. -1.
    9900012    2    1    2    0    0 -0.63871056454E+00 -0.83161070831E+00 -0.54180741052E+00  0.90007710703E+02  0.89999971684E+02 0.  0.
        -12    1    1    2    0    0  0.63871056454E+00  0.83161070831E+00  0.54180741052E+00  0.11802892974E+01  0.00000000000E+00 0.  1.
         11    1    3    3    0    0 -0.74719308999E+00 -0.33009296918E+02 -0.12113389398E+02  0.35169677046E+02  0.51100000000E-03 0. -1.
        -11    1    3    3    0    0  0.37899310466E+01 -0.83166627806E+01 -0.55789374997E+01  0.10707707553E+02  0.51100000000E-03 0.  1.
        -12    1    3    3    0    0 -0.36814485212E+01  0.40494348990E+02  0.17150519487E+02  0.44130326104E+02  0.00000000000E+00 0.  1.
</event>
<event>
 7    1  0.4195243E-015  0.9000773E+02  0.7816164E-02  0.1186339E+00
        -11   -1    0    0    0    0  0.00000000000E+00  0.00000000000E+00  0.45593999997E+02  0.45594000000E+02  0.51100000000E-03 0.  1.
         11   -1    0    0    0    0 -0.00000000000E+00 -0.00000000000E+00 -0.45593999997E+02  0.45594000000E+02  0.51100000000E-03 0. -1.
    9900012    2    1    2    0    0 -0.83013984789E+00 -0.83864331576E+00  0.24252351424E-01  0.90007727593E+02  0.89999988797E+02 0.  0.
        -12    1    1    2    0    0  0.83013984789E+00  0.83864331576E+00 -0.24252351424E-01  0.11802724070E+01  0.00000000000E+00 0.  1.
         11    1    3    3    0    0 -0.24615837232E+02  0.79098304814E+01 -0.10017453820E+02  0.27728221042E+02  0.51100000000E-03 0. -1.
        -11    1    3    3    0    0 -0.10427377931E+02  0.15548641996E+02  0.77254711234E+01  0.20252737662E+02  0.51100000000E-03 0.  1.
        -12    1    3    3    0    0  0.34213075316E+02 -0.24297115793E+02  0.23162350480E+01  0.42026768889E+02  0.00000000000E+00 0.  1.
</event>
<event>
 7    1  0.4195243E-015  0.9000775E+02  0.7816164E-02  0.1186339E+00
        -11   -1    0    0    0    0  0.00000000000E+00  0.00000000000E+00  0.45593999997E+02  0.45594000000E+02  0.51100000000E-03 0.  1.
         11   -1    0    0    0    0 -0.00000000000E+00 -0.00000000000E+00 -0.45593999997E+02  0.45594000000E+02  0.51100000000E-03 0. -1.
    9900012    2    1    2    0    0 -0.82278491003E-01  0.53321645614E+00 -0.10497097589E+01  0.90007754213E+02  0.90000015769E+02 0.  0.
        -12    1    1    2    0    0  0.82278491003E-01 -0.53321645614E+00  0.10497097589E+01  0.11802457868E+01  0.00000000000E+00 0.  1.
         11    1    3    3    0    0  0.46324846725E+01 -0.72415123895E+01  0.57304797363E+01  0.10331399431E+02  0.51100000000E-03 0. -1.
        -11    1    3    3    0    0 -0.16239196261E+01  0.39363302306E+02  0.13919523417E+02  0.41783487358E+02  0.51100000000E-03 0.  1.
         12    1    3    3    0    0 -0.30908435374E+01 -0.31588573460E+02 -0.20699712912E+02  0.37892867425E+02  0.00000000000E+00 0. -1.
</event>
<event>
 7    1  0.4195243E-015  0.9000772E+02  0.7816164E-02  0.1186339E+00
        -11   -1    0    0    0    0  0.00000000000E+00  0.00000000000E+00  0.45593999997E+02  0.45594000000E+02  0.51100000000E-03 0. -1.
         11   -1    0    0    0    0 -0.00000000000E+00 -0.00000000000E+00 -0.45593999997E+02  0.45594000000E+02  0.51100000000E-03 0.  1.
    9900012    2    1    2    0    0  0.82374762064E+00  0.79262551382E+00  0.29368185002E+00  0.90007718518E+02  0.89999979602E+02 0.  0.
        -12    1    1    2    0    0 -0.82374762064E+00 -0.79262551382E+00 -0.29368185002E+00  0.11802814820E+01  0.00000000000E+00 0.  1.
         11    1    3    3    0    0 -0.43614379940E+01  0.79339890085E+01 -0.13988126263E+02  0.16662472793E+02  0.51100000000E-03 0. -1.
        -11    1    3    3    0    0  0.12041391961E+02 -0.29004997768E+02 -0.16100018765E+02  0.35291580021E+02  0.51100000000E-03 0.  1.
         12    1    3    3    0    0 -0.68562063468E+01  0.21863634273E+02  0.30381826878E+02  0.38053665704E+02  0.00000000000E+00 0. -1.
</event>
<event>
 7    1  0.4195243E-015  0.9000754E+02  0.7816164E-02  0.1186339E+00
        -11   -1    0    0    0    0  0.00000000000E+00  0.00000000000E+00  0.45593999997E+02  0.45594000000E+02  0.51100000000E-03 0. -1.
         11   -1    0    0    0    0 -0.00000000000E+00 -0.00000000000E+00 -0.45593999997E+02  0.45594000000E+02  0.51100000000E-03 0.  1.
    9900012    2    1    2    0    0  0.88200119668E-01 -0.93433062671E+00  0.71605904726E+00  0.90007536726E+02  0.89999795411E+02 0.  0.
        -12    1    1    2    0    0 -0.88200119668E-01  0.93433062671E+00 -0.71605904726E+00  0.11804632736E+01  0.00000000000E+00 0.  1.
         11    1    3    3    0    0  0.68157053991E+01 -0.25946566618E+01  0.60022438455E+01  0.94452641425E+01  0.51100000000E-03 0. -1.
        -11    1    3    3    0    0  0.11266741848E+02 -0.36399854515E+02 -0.52432952819E+01  0.38462722554E+02  0.51100000000E-03 0.  1.
         12    1    3    3    0    0 -0.17994247127E+02  0.38060180550E+02 -0.42889516304E-01  0.42099550030E+02  0.00000000000E+00 0. -1.
</event>
<event>
 7    1  0.4195243E-015  0.9000774E+02  0.7816164E-02  0.1186339E+00
        -11   -1    0    0    0    0  0.00000000000E+00  0.00000000000E+00  0.45593999997E+02  0.45594000000E+02  0.51100000000E-03 0.  1.
         11   -1    0    0    0    0 -0.00000000000E+00 -0.00000000000E+00 -0.45593999997E+02  0.45594000000E+02  0.51100000000E-03 0. -1.
    9900012    2    1    2    0    0  0.11090351867E+01  0.25844157142E+00 -0.31025365804E+00  0.90007742222E+02  0.90000003619E+02 0.  0.
        -12    1    1    2    0    0 -0.11090351867E+01 -0.25844157142E+00  0.31025365804E+00  0.11802577784E+01  0.00000000000E+00 0.  1.
         11    1    3    3    0    0  0.46138596481E+01 -0.71980697558E+01  0.55997194464E+01  0.10220409346E+02  0.51100000000E-03 0. -1.
        -11    1    3    3    0    0  0.19207523216E+02 -0.16591600224E+02  0.24191279894E+02  0.35063202495E+02  0.51100000000E-03 0.  1.
         12    1    3    3    0    0 -0.22712347677E+02  0.24048111551E+02 -0.30101252999E+02  0.44724130380E+02  0.00000000000E+00 0. -1.
</event>
<event>
 7    1  0.4195243E-015  0.9000770E+02  0.7816164E-02  0.1186339E+00
        -11   -1    0    0    0    0  0.00000000000E+00  0.00000000000E+00  0.45593999997E+02  0.45594000000E+02  0.51100000000E-03 0. -1.
         11   -1    0    0    0    0 -0.00000000000E+00 -0.00000000000E+00 -0.45593999997E+02  0.45594000000E+02  0.51100000000E-03 0.  1.
    9900012    2    1    2    0    0  0.97813934879E+00 -0.65605640034E+00 -0.77012671895E-01  0.90007704470E+02  0.89999965369E+02 0.  0.
        -12    1    1    2    0    0 -0.97813934879E+00  0.65605640034E+00  0.77012671895E-01  0.11802955298E+01  0.00000000000E+00 0.  1.
         11    1    3    3    0    0 -0.86461734128E+01  0.34932564305E+01  0.51817965472E+01  0.10668184986E+02  0.51100000000E-03 0. -1.
        -11    1    3    3    0    0  0.35146196376E+02 -0.22439197356E+02  0.12156375460E+02  0.43434435213E+02  0.51100000000E-03 0.  1.
         12    1    3    3    0    0 -0.25521883614E+02  0.18289884525E+02 -0.17415184680E+02  0.35905084272E+02  0.00000000000E+00 0. -1.
</event>
<event>
 7    1  0.4195243E-015  0.9000782E+02  0.7816164E-02  0.1186339E+00
        -11   -1    0    0    0    0  0.00000000000E+00  0.00000000000E+00  0.45593999997E+02  0.45594000000E+02  0.51100000000E-03 0.  1.
         11   -1    0    0    0    0 -0.00000000000E+00 -0.00000000000E+00 -0.45593999997E+02  0.45594000000E+02  0.51100000000E-03 0. -1.
    9900012    2    1    2    0    0 -0.63526190245E+00 -0.96908066684E+00 -0.22392835935E+00  0.90007822499E+02  0.90000084956E+02 0.  0.
        -12    1    1    2    0    0  0.63526190245E+00  0.96908066684E+00  0.22392835935E+00  0.11801775009E+01  0.00000000000E+00 0.  1.
         11    1    3    3    0    0 -0.12616126557E+02 -0.67656999335E+01  0.92401618580E+01  0.17038836120E+02  0.51100000000E-03 0. -1.
        -11    1    3    3    0    0 -0.31119420304E+01 -0.16319292301E+02  0.24573449901E+02  0.29662399173E+02  0.51100000000E-03 0.  1.
         12    1    3    3    0    0  0.15092806685E+02  0.22115911568E+02 -0.34037540119E+02  0.43306587206E+02  0.00000000000E+00 0. -1.
</event>
<event>
 7    1  0.4195243E-015  0.9000758E+02  0.7816164E-02  0.1186339E+00
        -11   -1    0    0    0    0  0.00000000000E+00  0.00000000000E+00  0.45593999997E+02  0.45594000000E+02  0.51100000000E-03 0.  1.
         11   -1    0    0    0    0 -0.00000000000E+00 -0.00000000000E+00 -0.45593999997E+02  0.45594000000E+02  0.51100000000E-03 0. -1.
    9900012    2    1    2    0    0  0.93444278045E+00  0.14350084985E+00 -0.70684001458E+00  0.90007576936E+02  0.89999836151E+02 0.  0.
        -12    1    1    2    0    0 -0.93444278045E+00 -0.14350084985E+00  0.70684001458E+00  0.11804230640E+01  0.00000000000E+00 0.  1.
         11    1    3    3    0    0  0.10128914325E+02  0.18914126377E+02 -0.33901044946E+02  0.40120068927E+02  0.51100000000E-03 0. -1.
        -11    1    3    3    0    0  0.67444356307E+01 -0.37122916474E+00 -0.20452926889E+01  0.70575098663E+01  0.51100000000E-03 0.  1.
        -12    1    3    3    0    0 -0.15938907175E+02 -0.18399396362E+02  0.35239497620E+02  0.42829998143E+02  0.00000000000E+00 0.  1.
</event>
<event>
 7    1  0.4195243E-015  0.9000766E+02  0.7816164E-02  0.1186339E+00
        -11   -1    0    0    0    0  0.00000000000E+00  0.00000000000E+00  0.45593999997E+02  0.45594000000E+02  0.51100000000E-03 0.  1.
         11   -1    0    0    0    0 -0.00000000000E+00 -0.00000000000E+00 -0.45593999997E+02  0.45594000000E+02  0.51100000000E-03 0. -1.
    9900012    2    1    2    0    0  0.10095352295E+01 -0.59050339201E+00  0.15923147628E+00  0.90007656703E+02  0.89999916972E+02 0.  0.
        -12    1    1    2    0    0 -0.10095352295E+01  0.59050339201E+00 -0.15923147628E+00  0.11803432969E+01  0.00000000000E+00 0.  1.
         11    1    3    3    0    0 -0.16046876189E+02 -0.90912294651E+01 -0.24926356506E+02  0.31007675462E+02  0.51100000000E-03 0. -1.
        -11    1    3    3    0    0  0.36069289152E+00 -0.47459549099E+00 -0.14814363495E+02  0.14826351752E+02  0.51100000000E-03 0.  1.
        -12    1    3    3    0    0  0.16695718527E+02  0.89753215641E+01  0.39899951478E+02  0.44173629489E+02  0.00000000000E+00 0.  1.
</event>
<event>
 7    1  0.4195243E-015  0.9000776E+02  0.7816164E-02  0.1186339E+00
        -11   -1    0    0    0    0  0.00000000000E+00  0.00000000000E+00  0.45593999997E+02  0.45594000000E+02  0.51100000000E-03 0. -1.
         11   -1    0    0    0    0 -0.00000000000E+00 -0.00000000000E+00 -0.45593999997E+02  0.45594000000E+02  0.51100000000E-03 0.  1.
    9900012    2    1    2    0    0  0.42960286790E+00 -0.10527029528E+01 -0.31656914708E+00  0.90007763517E+02  0.90000025195E+02 0.  0.
        -12    1    1    2    0    0 -0.42960286790E+00  0.10527029528E+01  0.31656914708E+00  0.11802364830E+01  0.00000000000E+00 0.  1.
         11    1    3    3    0    0  0.25085753725E+01 -0.16514998612E+02  0.30716514045E+02  0.34964873301E+02  0.51100000000E-03 0. -1.
        -11    1    3    3    0    0 -0.19082361122E+01 -0.20126148596E+01  0.10034988920E+02  0.10411195249E+02  0.51100000000E-03 0.  1.
        -12    1    3    3    0    0 -0.17073639244E+00  0.17474910519E+02 -0.41068072113E+02  0.44631694967E+02  0.00000000000E+00 0.  1.
</event>
<event>
 7    1  0.4195243E-015  0.9000770E+02  0.7816164E-02  0.1186339E+00
        -11   -1    0    0    0    0  0.00000000000E+00  0.00000000000E+00  0.45593999997E+02  0.45594000000E+02  0.51100000000E-03 0.  1.
         11   -1    0    0    0    0 -0.00000000000E+00 -0.00000000000E+00 -0.45593999997E+02  0.45594000000E+02  0.51100000000E-03 0. -1.
    9900012    2    1    2    0    0  0.66821466847E+00 -0.78557893040E+00 -0.57399206469E+00  0.90007698348E+02  0.89999959166E+02 0.  0.
        -12    1    1    2    0    0 -0.66821466847E+00  0.78557893040E+00  0.57399206469E+00  0.11803016519E+01  0.00000000000E+00 0.  1.
         11    1    3    3    0    0 -0.34308744081E+02  0.23187381227E+02  0.74284130167E+01  0.42070487147E+02  0.51100000000E-03 0. -1.
        -11    1    3    3    0    0  0.29849640950E+00 -0.89023400762E+01  0.12905802374E+01  0.90003531347E+01  0.51100000000E-03 0.  1.
        -12    1    3    3    0    0  0.34678462340E+02 -0.15070620081E+02 -0.92929853188E+01  0.38936858066E+02  0.00000000000E+00 0.  1.
</event>
<event>
 7    1  0.4195243E-015  0.9000777E+02  0.7816164E-02  0.1186339E+00
        -11   -1    0    0    0    0  0.00000000000E+00  0.00000000000E+00  0.45593999997E+02  0.45594000000E+02  0.51100000000E-03 0.  1.
         11   -1    0    0    0    0 -0.00000000000E+00 -0.00000000000E+00 -0.45593999997E+02  0.45594000000E+02  0.51100000000E-03 0. -1.
    9900012    2    1    2    0    0  0.10004782798E+00 -0.87554480074E+00 -0.78508944316E+00  0.90007765405E+02  0.90000027108E+02 0.  0.
        -12    1    1    2    0    0 -0.10004782798E+00  0.87554480074E+00  0.78508944316E+00  0.11802345952E+01  0.00000000000E+00 0.  1.
         11    1    3    3    0    0 -0.32514768830E+01 -0.40953990828E+02 -0.49160860205E+01  0.41375951574E+02  0.51100000000E-03 0. -1.
        -11    1    3    3    0    0 -0.90999540860E+01  0.37914467144E+01 -0.10737348540E+01  0.99165084255E+01  0.51100000000E-03 0.  1.
        -12    1    3    3    0    0  0.12451478797E+02  0.36286999313E+02  0.52047314314E+01  0.38715305405E+02  0.00000000000E+00 0.  1.
</event>
<event>
 7    1  0.4195243E-015  0.9000770E+02  0.7816164E-02  0.1186339E+00
        -11   -1    0    0    0    0  0.00000000000E+00  0.00000000000E+00  0.45593999997E+02  0.45594000000E+02  0.51100000000E-03 0. -1.
         11   -1    0    0    0    0 -0.00000000000E+00 -0.00000000000E+00 -0.45593999997E+02  0.45594000000E+02  0.51100000000E-03 0.  1.
    9900012    2    1    2    0    0 -0.71472615965E+00  0.93880228165E+00  0.30502777871E-01  0.90007697655E+02  0.89999958464E+02 0.  0.
        -12    1    1    2    0    0  0.71472615965E+00 -0.93880228165E+00 -0.30502777871E-01  0.11803023455E+01  0.00000000000E+00 0.  1.
         11    1    3    3    0    0 -0.81066674842E+01 -0.88910158476E+01  0.62652474326E+01  0.13565454145E+02  0.51100000000E-03 0. -1.
        -11    1    3    3    0    0 -0.21551951915E+02 -0.68709424835E+01 -0.28426232385E+02  0.36328324622E+02  0.51100000000E-03 0.  1.
         12    1    3    3    0    0  0.28943893239E+02  0.16700760613E+02  0.22191487730E+02  0.40113918888E+02  0.00000000000E+00 0. -1.
</event>
<event>
 7    1  0.4195243E-015  0.9000772E+02  0.7816164E-02  0.1186339E+00
        -11   -1    0    0    0    0  0.00000000000E+00  0.00000000000E+00  0.45593999997E+02  0.45594000000E+02  0.51100000000E-03 0.  1.
         11   -1    0    0    0    0 -0.00000000000E+00 -0.00000000000E+00 -0.45593999997E+02  0.45594000000E+02  0.51100000000E-03 0. -1.
    9900012    2    1    2    0    0 -0.55343800522E+00  0.49793743236E+00 -0.91587783167E+00  0.90007717189E+02  0.89999978256E+02 0.  0.
        -12    1    1    2    0    0  0.55343800522E+00 -0.49793743236E+00  0.91587783167E+00  0.11802828113E+01  0.00000000000E+00 0.  1.
         11    1    3    3    0    0 -0.33671954181E+02  0.24346066988E+02 -0.37381370037E+01  0.41719361748E+02  0.51100000000E-03 0. -1.
        -11    1    3    3    0    0 -0.23666080691E+01 -0.37037409423E+00 -0.45154603939E+01  0.51114962146E+01  0.51100000000E-03 0.  1.
        -12    1    3    3    0    0  0.35485124245E+02 -0.23477755462E+02  0.73377195659E+01  0.43176859226E+02  0.00000000000E+00 0.  1.
</event>
<event>
 7    1  0.4195243E-015  0.9000772E+02  0.7816164E-02  0.1186339E+00
        -11   -1    0    0    0    0  0.00000000000E+00  0.00000000000E+00  0.45593999997E+02  0.45594000000E+02  0.51100000000E-03 0. -1.
         11   -1    0    0    0    0 -0.00000000000E+00 -0.00000000000E+00 -0.45593999997E+02  0.45594000000E+02  0.51100000000E-03 0.  1.
    9900012    2    1    2    0    0  0.88735164894E+00  0.21685892662E+00 -0.74741707843E+00  0.90007723324E+02  0.89999984472E+02 0.  0.
        -12    1    1    2    0    0 -0.88735164894E+00 -0.21685892662E+00  0.74741707843E+00  0.11802766761E+01  0.00000000000E+00 0.  1.
         11    1    3    3    0    0  0.76601184821E+01 -0.40650185693E+01 -0.47995418708E+01  0.99114778696E+01  0.51100000000E-03 0. -1.
        -11    1    3    3    0    0  0.46440330356E+01 -0.17581862983E+01 -0.36860374113E+02  0.37193352119E+02  0.51100000000E-03 0.  1.
         12    1    3    3    0    0 -0.11416799869E+02  0.60400637943E+01  0.40912498905E+02  0.42902893335E+02  0.00000000000E+00 0. -1.
</event>
<event>
 7    1  0.4195243E-015  0.9000754E+02  0.7816164E-02  0.1186339E+00
        -11   -1    0    0    0    0  0.00000000000E+00  0.00000000000E+00  0.45593999997E+02  0.45594000000E+02  0.51100000000E-03 0. -1.
         11   -1    0    0    0    0 -0.00000000000E+00 -0.00000000000E+00 -0.45593999997E+02  0.45594000000E+02  0.51100000000E-03 0.  1.
    9900012    2    1    2    0    0  0.31651726771E+00 -0.59561382563E-01  0.11356726886E+01  0.90007541108E+02  0.89999799851E+02 0.  0.
        -12    1    1    2    0    0 -0.31651726771E+00  0.59561382563E-01 -0.11356726886E+01  0.11804588915E+01  0.00000000000E+00 0.  1.
         11    1    3    3    0    0 -0.29358707928E+02  0.26632674516E+02 -0.99699251896E+01  0.40873371425E+02  0.51100000000E-03 0. -1.
        -11    1    3    3    0    0 -0.20818283093E+01 -0.12393337864E+02  0.60292345566E+01  0.13938454080E+02  0.51100000000E-03 0.  1.
        -12    1    3    3    0    0  0.31757053505E+02 -0.14298898034E+02  0.50763633217E+01  0.35195715604E+02  0.00000000000E+00 0.  1.
</event>
<event>
 7    1  0.4195243E-015  0.9000774E+02  0.7816164E-02  0.1186339E+00
        -11   -1    0    0    0    0  0.00000000000E+00  0.00000000000E+00  0.45593999997E+02  0.45594000000E+02  0.51100000000E-03 0. -1.
         11   -1    0    0    0    0 -0.00000000000E+00 -0.00000000000E+00 -0.45593999997E+02  0.45594000000E+02  0.51100000000E-03 0.  1.
    9900012    2    1    2    0    0 -0.10036047502E+01  0.58222699670E+00 -0.21634706323E+00  0.90007738664E+02  0.90000000014E+02 0.  0.
        -12    1    1    2    0    0  0.10036047502E+01 -0.58222699670E+00  0.21634706323E+00  0.11802613364E+01  0.00000000000E+00 0.  1.
         11    1    3    3    0    0 -0.48913262515E+01 -0.77769190766E+01 -0.49407581015E+01  0.10431521159E+02  0.51100000000E-03 0. -1.
        -11    1    3    3    0    0  0.12924317022E+02 -0.37049176849E+01 -0.34782995133E+02  0.37291032920E+02  0.51100000000E-03 0.  1.
         12    1    3    3    0    0 -0.90365955212E+01  0.12064063758E+02  0.39507406171E+02  0.42285184584E+02  0.00000000000E+00 0. -1.
</event>
<event>
 7    1  0.4195243E-015  0.9000767E+02  0.7816164E-02  0.1186339E+00
        -11   -1    0    0    0    0  0.00000000000E+00  0.00000000000E+00  0.45593999997E+02  0.45594000000E+02  0.51100000000E-03 0. -1.
         11   -1    0    0    0    0 -0.00000000000E+00 -0.00000000000E+00 -0.45593999997E+02  0.45594000000E+02  0.51100000000E-03 0.  1.
    9900012    2    1    2    0    0  0.47829297456E+00 -0.36405867371E+00  0.10158100795E+01  0.90007672501E+02  0.89999932978E+02 0.  0.
        -12    1    1    2    0    0 -0.47829297456E+00  0.36405867371E+00 -0.10158100795E+01  0.11803274991E+01  0.00000000000E+00 0.  1.
         11    1    3    3    0    0 -0.29911515952E+02 -0.25800380756E+02 -0.29245926778E+01  0.39609489726E+02  0.51100000000E-03 0. -1.
        -11    1    3    3    0    0 -0.53096587376E+01  0.45188445444E+01 -0.43245957557E+01  0.82045451207E+01  0.51100000000E-03 0.  1.
        -12    1    3    3    0    0  0.35699467665E+02  0.20917477538E+02  0.82649985131E+01  0.42193637654E+02  0.00000000000E+00 0.  1.
</event>
<event>
 7    1  0.4195243E-015  0.9000775E+02  0.7816164E-02  0.1186339E+00
        -11   -1    0    0    0    0  0.00000000000E+00  0.00000000000E+00  0.45593999997E+02  0.45594000000E+02  0.51100000000E-03 0. -1.
         11   -1    0    0    0    0 -0.00000000000E+00 -0.00000000000E+00 -0.45593999997E+02  0.45594000000E+02  0.51100000000E-03 0.  1.
    9900012    2    1    2    0    0  0.36744278624E+00  0.94081064028E+00 -0.61061087800E+00  0.90007752354E+02  0.90000013885E+02 0.  0.
        -12    1    1    2    0    0 -0.36744278624E+00 -0.94081064028E+00  0.61061087800E+00  0.11802476462E+01  0.00000000000E+00 0.  1.
         11    1    3    3    0    0  0.37063298802E+01  0.72436282441E+01 -0.30409681588E+01  0.86864560623E+01  0.51100000000E-03 0. -1.
        -11    1    3    3    0    0 -0.17081302156E+02  0.26617711186E+02 -0.21608511561E+02  0.38304062504E+02  0.51100000000E-03 0.  1.
         12    1    3    3    0    0  0.13742415062E+02 -0.32920528790E+02  0.24038868842E+02  0.43017233788E+02  0.00000000000E+00 0. -1.
</event>
<event>
 7    1  0.4195243E-015  0.9000702E+02  0.7816164E-02  0.1186340E+00
        -11   -1    0    0    0    0  0.00000000000E+00  0.00000000000E+00  0.45593999997E+02  0.45594000000E+02  0.51100000000E-03 0.  1.
         11   -1    0    0    0    0 -0.00000000000E+00 -0.00000000000E+00 -0.45593999997E+02  0.45594000000E+02  0.51100000000E-03 0. -1.
    9900012    2    1    2    0    0  0.69745066678E+00 -0.43090807898E+00 -0.85005624057E+00  0.90007019553E+02  0.89999271408E+02 0.  0.
        -12    1    1    2    0    0 -0.69745066678E+00  0.43090807898E+00  0.85005624057E+00  0.11809804475E+01  0.00000000000E+00 0.  1.
         11    1    3    3    0    0  0.77150889231E+01  0.58798035397E+01 -0.50940604674E+01  0.10956465628E+02  0.51100000000E-03 0. -1.
        -11    1    3    3    0    0  0.30311993863E+02  0.16590768146E+02 -0.29006402750E+01  0.34676855018E+02  0.51100000000E-03 0.  1.
         12    1    3    3    0    0 -0.37329632120E+02 -0.22901479765E+02  0.71446445018E+01  0.44373698907E+02  0.00000000000E+00 0. -1.
</event>
<event>
 7    1  0.4195243E-015  0.9000767E+02  0.7816164E-02  0.1186339E+00
        -11   -1    0    0    0    0  0.00000000000E+00  0.00000000000E+00  0.45593999997E+02  0.45594000000E+02  0.51100000000E-03 0.  1.
         11   -1    0    0    0    0 -0.00000000000E+00 -0.00000000000E+00 -0.45593999997E+02  0.45594000000E+02  0.51100000000E-03 0. -1.
    9900012    2    1    2    0    0 -0.36990783966E+00  0.87507640562E+00  0.70042652186E+00  0.90007666218E+02  0.89999926612E+02 0.  0.
        -12    1    1    2    0    0  0.36990783966E+00 -0.87507640562E+00 -0.70042652186E+00  0.11803337825E+01  0.00000000000E+00 0.  1.
         11    1    3    3    0    0 -0.75389236048E+01  0.28979606086E+01  0.91451685736E+01  0.12201133280E+02  0.51100000000E-03 0. -1.
        -11    1    3    3    0    0 -0.16435278476E+02 -0.33627126997E+02 -0.84037467540E+01  0.38360461526E+02  0.51100000000E-03 0.  1.
         12    1    3    3    0    0  0.23604294242E+02  0.31604242794E+02 -0.40995297729E-01  0.39446071412E+02  0.00000000000E+00 0. -1.
</event>
<event>
 7    1  0.5530025E-015  0.9000783E+02  0.7816164E-02  0.1186339E+00
        -11   -1    0    0    0    0  0.00000000000E+00  0.00000000000E+00  0.45593999997E+02  0.45594000000E+02  0.51100000000E-03 0.  1.
         11   -1    0    0    0    0 -0.00000000000E+00 -0.00000000000E+00 -0.45593999997E+02  0.45594000000E+02  0.51100000000E-03 0. -1.
    9900012    2    1    2    0    0 -0.97438261094E+00 -0.64115117260E+00 -0.17975390501E+00  0.90007827231E+02  0.90000089750E+02 0.  0.
        -12    1    1    2    0    0  0.97438261094E+00  0.64115117260E+00  0.17975390501E+00  0.11801727691E+01  0.00000000000E+00 0.  1.
         11    1    3    3    0    0 -0.49948207652E+01  0.34242569592E+02 -0.21033522889E+02  0.40495813266E+02  0.51100000000E-03 0. -1.
        -11    1    3    3    0    0  0.81761820919E+01 -0.31854314245E+01 -0.33720366290E+01  0.94004020259E+01  0.51100000000E-03 0.  1.
        -12    1    3    3    0    0 -0.41557439376E+01 -0.31698289340E+02  0.24225805613E+02  0.40111611939E+02  0.00000000000E+00 0.  1.
</event>
<event>
 7    1  0.4195243E-015  0.9000770E+02  0.7816164E-02  0.1186339E+00
        -11   -1    0    0    0    0  0.00000000000E+00  0.00000000000E+00  0.45593999997E+02  0.45594000000E+02  0.51100000000E-03 0. -1.
         11   -1    0    0    0    0 -0.00000000000E+00 -0.00000000000E+00 -0.45593999997E+02  0.45594000000E+02  0.51100000000E-03 0.  1.
    9900012    2    1    2    0    0  0.75444709321E-01 -0.49638969809E+00  0.10681845957E+01  0.90007697934E+02  0.89999958747E+02 0.  0.
        -12    1    1    2    0    0 -0.75444709321E-01  0.49638969809E+00 -0.10681845957E+01  0.11803020660E+01  0.00000000000E+00 0.  1.
         11    1    3    3    0    0  0.52754590439E+01  0.91444653808E+01  0.14449351633E+01  0.10655494034E+02  0.51100000000E-03 0. -1.
        -11    1    3    3    0    0 -0.23655028817E+02  0.25633289731E+02 -0.13549183851E+02  0.37419330754E+02  0.51100000000E-03 0.  1.
         12    1    3    3    0    0  0.18455014483E+02 -0.35274144810E+02  0.13172433284E+02  0.41932873146E+02  0.00000000000E+00 0. -1.
</event>
<event>
 7    1  0.4195243E-015  0.9000780E+02  0.7816164E-02  0.1186339E+00
        -11   -1    0    0    0    0  0.00000000000E+00  0.00000000000E+00  0.45593999997E+02  0.45594000000E+02  0.51100000000E-03 0. -1.
         11   -1    0    0    0    0 -0.00000000000E+00 -0.00000000000E+00 -0.45593999997E+02  0.45594000000E+02  0.51100000000E-03 0.  1.
    9900012    2    1    2    0    0  0.33034053478E+00 -0.11074824280E+01  0.23923271439E+00  0.90007798963E+02  0.90000061109E+02 0.  0.
        -12    1    1    2    0    0 -0.33034053478E+00  0.11074824280E+01 -0.23923271439E+00  0.11802010375E+01  0.00000000000E+00 0.  1.
         11    1    3    3    0    0  0.82265692188E+01  0.34438681298E+02 -0.10275794759E+02  0.36868566135E+02  0.51100000000E-03 0. -1.
        -11    1    3    3    0    0  0.49275661074E+01  0.64518375856E+01  0.73822115483E+00  0.81518149334E+01  0.51100000000E-03 0.  1.
        -12    1    3    3    0    0 -0.12823794792E+02 -0.41998001311E+02  0.97768063190E+01  0.44987417894E+02  0.00000000000E+00 0.  1.
</event>
<event>
 7    1  0.4195243E-015  0.9000775E+02  0.7816164E-02  0.1186339E+00
        -11   -1    0    0    0    0  0.00000000000E+00  0.00000000000E+00  0.45593999997E+02  0.45594000000E+02  0.51100000000E-03 0.  1.
         11   -1    0    0    0    0 -0.00000000000E+00 -0.00000000000E+00 -0.45593999997E+02  0.45594000000E+02  0.51100000000E-03 0. -1.
    9900012    2    1    2    0    0  0.10125025836E+01  0.14891920722E+00 -0.58791816714E+00  0.90007751643E+02  0.90000013165E+02 0.  0.
        -12    1    1    2    0    0 -0.10125025836E+01 -0.14891920722E+00  0.58791816714E+00  0.11802483566E+01  0.00000000000E+00 0.  1.
         11    1    3    3    0    0 -0.26669758106E+02 -0.25595798997E+02  0.11758103906E+02  0.38790126727E+02  0.51100000000E-03 0. -1.
        -11    1    3    3    0    0  0.37050126364E+01 -0.32470885586E+01  0.72751166491E+01  0.87862406786E+01  0.51100000000E-03 0.  1.
        -12    1    3    3    0    0  0.23977248054E+02  0.28991806763E+02 -0.19621138722E+02  0.42431384238E+02  0.00000000000E+00 0.  1.
</event>
<event>
 7    1  0.4195243E-015  0.9000806E+02  0.7816164E-02  0.1186338E+00
        -11   -1    0    0    0    0  0.00000000000E+00  0.00000000000E+00  0.45593999997E+02  0.45594000000E+02  0.51100000000E-03 0.  1.
         11   -1    0    0    0    0 -0.00000000000E+00 -0.00000000000E+00 -0.45593999997E+02  0.45594000000E+02  0.51100000000E-03 0. -1.
    9900012    2    1    2    0    0 -0.10448269665E+01 -0.54258738838E+00  0.78678876867E-01  0.90008061514E+02  0.90000327126E+02 0.  0.
        -12    1    1    2    0    0  0.10448269665E+01  0.54258738838E+00 -0.78678876867E-01  0.11799384855E+01  0.00000000000E+00 0.  1.
         11    1    3    3    0    0  0.46854154702E+01  0.66760490254E+01  0.11871911804E+01  0.82420975412E+01  0.51100000000E-03 0. -1.
        -11    1    3    3    0    0  0.27494164756E+02 -0.30042173130E+02 -0.59921872373E+01  0.41162696342E+02  0.51100000000E-03 0.  1.
         12    1    3    3    0    0 -0.33224407192E+02  0.22823536716E+02  0.48836749338E+01  0.40603267632E+02  0.00000000000E+00 0. -1.
</event>
<event>
 7    1  0.4195243E-015  0.9000768E+02  0.7816164E-02  0.1186339E+00
        -11   -1    0    0    0    0  0.00000000000E+00  0.00000000000E+00  0.45593999997E+02  0.45594000000E+02  0.51100000000E-03 0.  1.
         11   -1    0    0    0    0 -0.00000000000E+00 -0.00000000000E+00 -0.45593999997E+02  0.45594000000E+02  0.51100000000E-03 0. -1.
    9900012    2    1    2    0    0 -0.76357764742E+00 -0.60244242967E+00 -0.66870601611E+00  0.90007679941E+02  0.89999940517E+02 0.  0.
        -12    1    1    2    0    0  0.76357764742E+00  0.60244242967E+00  0.66870601611E+00  0.11803200586E+01  0.00000000000E+00 0.  1.
         11    1    3    3    0    0  0.62699678208E+01  0.61398849814E+01 -0.42919518564E+01  0.97689065436E+01  0.51100000000E-03 0. -1.
        -11    1    3    3    0    0 -0.38609912043E+02  0.94501979947E+01  0.15723354537E+02  0.42746408367E+02  0.51100000000E-03 0.  1.
         12    1    3    3    0    0  0.31576366575E+02 -0.16192525406E+02 -0.12100108697E+02  0.37492365031E+02  0.00000000000E+00 0. -1.
</event>
<event>
 7    1  0.4195243E-015  0.9000778E+02  0.7816164E-02  0.1186339E+00
        -11   -1    0    0    0    0  0.00000000000E+00  0.00000000000E+00  0.45593999997E+02  0.45594000000E+02  0.51100000000E-03 0. -1.
         11   -1    0    0    0    0 -0.00000000000E+00 -0.00000000000E+00 -0.45593999997E+02  0.45594000000E+02  0.51100000000E-03 0.  1.
    9900012    2    1    2    0    0 -0.28641857070E+00  0.76499403798E+00  0.85185788852E+00  0.90007782504E+02  0.90000044433E+02 0.  0.
        -12    1    1    2    0    0  0.28641857070E+00 -0.76499403798E+00 -0.85185788852E+00  0.11802174961E+01  0.00000000000E+00 0.  1.
         11    1    3    3    0    0  0.10921068225E+02 -0.17397659267E+02  0.14331404946E+02  0.25046705315E+02  0.51100000000E-03 0. -1.
        -11    1    3    3    0    0  0.17323385943E+02  0.27854750080E+02 -0.25244413766E+01  0.32899234141E+02  0.51100000000E-03 0.  1.
         12    1    3    3    0    0 -0.28530872739E+02 -0.96920967749E+01 -0.10955105680E+02  0.32061843048E+02  0.00000000000E+00 0. -1.
</event>
<event>
 7    1  0.4195243E-015  0.9000785E+02  0.7816164E-02  0.1186339E+00
        -11   -1    0    0    0    0  0.00000000000E+00  0.00000000000E+00  0.45593999997E+02  0.45594000000E+02  0.51100000000E-03 0. -1.
         11   -1    0    0    0    0 -0.00000000000E+00 -0.00000000000E+00 -0.45593999997E+02  0.45594000000E+02  0.51100000000E-03 0.  1.
    9900012    2    1    2    0    0  0.18409137541E+00 -0.11106496539E+01 -0.35399571160E+00  0.90007853716E+02  0.90000116585E+02 0.  0.
        -12    1    1    2    0    0 -0.18409137541E+00  0.11106496539E+01  0.35399571160E+00  0.11801462842E+01  0.00000000000E+00 0.  1.
         11    1    3    3    0    0  0.35446189493E+01 -0.13907738664E+01  0.76920923821E+01  0.85829401092E+01  0.51100000000E-03 0. -1.
        -11    1    3    3    0    0 -0.54729435411E+01  0.39875502286E+02 -0.10813961925E+02  0.41676738912E+02  0.51100000000E-03 0.  1.
         12    1    3    3    0    0  0.21124159672E+01 -0.39595378074E+02  0.27678738309E+01  0.39748174695E+02  0.00000000000E+00 0. -1.
</event>
<event>
 7    1  0.4195243E-015  0.9000832E+02  0.7816164E-02  0.1186338E+00
        -11   -1    0    0    0    0  0.00000000000E+00  0.00000000000E+00  0.45593999997E+02  0.45594000000E+02  0.51100000000E-03 0. -1.
         11   -1    0    0    0    0 -0.00000000000E+00 -0.00000000000E+00 -0.45593999997E+02  0.45594000000E+02  0.51100000000E-03 0.  1.
    9900012    2    1    2    0    0  0.27863921216E+00 -0.81658754217E+00  0.80447828964E+00  0.90008321932E+02  0.90000590980E+02 0.  0.
        -12    1    1    2    0    0 -0.27863921216E+00  0.81658754217E+00 -0.80447828964E+00  0.11796780676E+01  0.00000000000E+00 0.  1.
         11    1    3    3    0    0  0.32756819028E+02 -0.16873934179E+02 -0.10330482240E+02  0.38268233708E+02  0.51100000000E-03 0. -1.
        -11    1    3    3    0    0  0.36856574001E+01 -0.59550225687E+01 -0.22208556017E+01  0.73470105573E+01  0.51100000000E-03 0.  1.
        -12    1    3    3    0    0 -0.36163837216E+02  0.22012369205E+02  0.13355816132E+02  0.44393077667E+02  0.00000000000E+00 0.  1.
</event>
<event>
 7    1  0.4195243E-015  0.9000774E+02  0.7816164E-02  0.1186339E+00
        -11   -1    0    0    0    0  0.00000000000E+00  0.00000000000E+00  0.45593999997E+02  0.45594000000E+02  0.51100000000E-03 0.  1.
         11   -1    0    0    0    0 -0.00000000000E+00 -0.00000000000E+00 -0.45593999997E+02  0.45594000000E+02  0.51100000000E-03 0. -1.
    9900012    2    1    2    0    0  0.20291180825E+00  0.85733447622E+00 -0.78538322994E+00  0.90007736291E+02  0.89999997610E+02 0.  0.
        -12    1    1    2    0    0 -0.20291180825E+00 -0.85733447622E+00  0.78538322994E+00  0.11802637095E+01  0.00000000000E+00 0.  1.
         11    1    3    3    0    0  0.34324234324E+02  0.18162618229E+02 -0.52500740595E+00  0.38836959148E+02  0.51100000000E-03 0. -1.
        -11    1    3    3    0    0  0.43617101721E+00  0.44516746601E+01 -0.84136119981E+01  0.95287207721E+01  0.51100000000E-03 0.  1.
        -12    1    3    3    0    0 -0.34557493532E+02 -0.21756958413E+02  0.81532361741E+01  0.41642056370E+02  0.00000000000E+00 0.  1.
</event>
<event>
 7    1  0.4195243E-015  0.9000786E+02  0.7816164E-02  0.1186339E+00
        -11   -1    0    0    0    0  0.00000000000E+00  0.00000000000E+00  0.45593999997E+02  0.45594000000E+02  0.51100000000E-03 0.  1.
         11   -1    0    0    0    0 -0.00000000000E+00 -0.00000000000E+00 -0.45593999997E+02  0.45594000000E+02  0.51100000000E-03 0. -1.
    9900012    2    1    2    0    0 -0.87400096338E+00 -0.52856265035E+00  0.59116338090E+00  0.90007860050E+02  0.90000123002E+02 0.  0.
        -12    1    1    2    0    0  0.87400096338E+00  0.52856265035E+00 -0.59116338090E+00  0.11801399503E+01  0.00000000000E+00 0.  1.
         11    1    3    3    0    0  0.12446068955E+02 -0.37479937920E+02  0.11760574980E+02  0.41206328434E+02  0.51100000000E-03 0. -1.
        -11    1    3    3    0    0 -0.93269901962E+01  0.10659323668E+01 -0.83853837487E+01  0.12587438930E+02  0.51100000000E-03 0.  1.
        -12    1    3    3    0    0 -0.39930797217E+01  0.35885442903E+02 -0.27840278508E+01  0.36214092686E+02  0.00000000000E+00 0.  1.
</event>
<event>
 7    1  0.4195243E-015  0.9000757E+02  0.7816164E-02  0.1186339E+00
        -11   -1    0    0    0    0  0.00000000000E+00  0.00000000000E+00  0.45593999997E+02  0.45594000000E+02  0.51100000000E-03 0.  1.
         11   -1    0    0    0    0 -0.00000000000E+00 -0.00000000000E+00 -0.45593999997E+02  0.45594000000E+02  0.51100000000E-03 0. -1.
    9900012    2    1    2    0    0 -0.87080399755E+00  0.17827800659E+00 -0.77674934614E+00  0.90007566945E+02  0.89999826029E+02 0.  0.
        -12    1    1    2    0    0  0.87080399755E+00 -0.17827800659E+00  0.77674934614E+00  0.11804330546E+01  0.00000000000E+00 0.  1.
         11    1    3    3    0    0 -0.52840444113E+01 -0.82095770334E-01 -0.92095486822E+01  0.10618081383E+02  0.51100000000E-03 0. -1.
        -11    1    3    3    0    0  0.38384166498E+02 -0.14775808796E+02  0.95452775960E+01  0.42222992410E+02  0.51100000000E-03 0.  1.
         12    1    3    3    0    0 -0.33970926085E+02  0.15036182573E+02 -0.11124782600E+01  0.37166493153E+02  0.00000000000E+00 0. -1.
</event>
<event>
 7    1  0.4195243E-015  0.9000766E+02  0.7816164E-02  0.1186339E+00
        -11   -1    0    0    0    0  0.00000000000E+00  0.00000000000E+00  0.45593999997E+02  0.45594000000E+02  0.51100000000E-03 0.  1.
         11   -1    0    0    0    0 -0.00000000000E+00 -0.00000000000E+00 -0.45593999997E+02  0.45594000000E+02  0.51100000000E-03 0. -1.
    9900012    2    1    2    0    0  0.24899367533E+00  0.25853610755E+00 -0.11244424928E+01  0.90007656961E+02  0.89999917233E+02 0.  0.
        -12    1    1    2    0    0 -0.24899367533E+00 -0.25853610755E+00  0.11244424928E+01  0.11803430386E+01  0.00000000000E+00 0.  1.
         11    1    3    3    0    0  0.37597361742E+01 -0.80401906718E+01 -0.78874613848E+01  0.11874019096E+02  0.51100000000E-03 0. -1.
        -11    1    3    3    0    0 -0.17976708602E+02  0.26391841002E+02 -0.23769419443E+02  0.39807996993E+02  0.51100000000E-03 0.  1.
         12    1    3    3    0    0  0.14465966104E+02 -0.18093114223E+02  0.30532438335E+02  0.38325640872E+02  0.00000000000E+00 0. -1.
</event>
<event>
 7    1  0.4195243E-015  0.9000787E+02  0.7816164E-02  0.1186339E+00
        -11   -1    0    0    0    0  0.00000000000E+00  0.00000000000E+00  0.45593999997E+02  0.45594000000E+02  0.51100000000E-03 0.  1.
         11   -1    0    0    0    0 -0.00000000000E+00 -0.00000000000E+00 -0.45593999997E+02  0.45594000000E+02  0.51100000000E-03 0. -1.
    9900012    2    1    2    0    0  0.36794080631E+00 -0.44344573247E+00 -0.10298975243E+01  0.90007867183E+02  0.90000130230E+02 0.  0.
        -12    1    1    2    0    0 -0.36794080631E+00  0.44344573247E+00  0.10298975243E+01  0.11801328168E+01  0.00000000000E+00 0.  1.
         11    1    3    3    0    0  0.21659591077E+01 -0.29232363036E+02 -0.18733038966E+02  0.34787198460E+02  0.51100000000E-03 0. -1.
        -11    1    3    3    0    0  0.35166241735E+01 -0.10018619216E+02 -0.28393895308E+01  0.10990974013E+02  0.51100000000E-03 0.  1.
        -12    1    3    3    0    0 -0.53146424749E+01  0.38807536520E+02  0.20542530972E+02  0.44229694710E+02  0.00000000000E+00 0.  1.
</event>
<event>
 7    1  0.4195243E-015  0.9000773E+02  0.7816164E-02  0.1186339E+00
        -11   -1    0    0    0    0  0.00000000000E+00  0.00000000000E+00  0.45593999997E+02  0.45594000000E+02  0.51100000000E-03 0.  1.
         11   -1    0    0    0    0 -0.00000000000E+00 -0.00000000000E+00 -0.45593999997E+02  0.45594000000E+02  0.51100000000E-03 0. -1.
    9900012    2    1    2    0    0 -0.10359793712E+01  0.51655424049E+00  0.23012539692E+00  0.90007729167E+02  0.89999990392E+02 0.  0.
        -12    1    1    2    0    0  0.10359793712E+01 -0.51655424049E+00 -0.23012539692E+00  0.11802708330E+01  0.00000000000E+00 0.  1.
         11    1    3    3    0    0 -0.14008654908E+02 -0.11242255566E+00  0.46184709048E+01  0.14750773706E+02  0.51100000000E-03 0. -1.
        -11    1    3    3    0    0  0.21632302926E+02  0.30598060414E+02  0.12851361243E+02  0.39615089512E+02  0.51100000000E-03 0.  1.
         12    1    3    3    0    0 -0.86596273886E+01 -0.29969083618E+02 -0.17239706751E+02  0.35641865948E+02  0.00000000000E+00 0. -1.
</event>
<event>
 7    1  0.4195243E-015  0.9000783E+02  0.7816164E-02  0.1186339E+00
        -11   -1    0    0    0    0  0.00000000000E+00  0.00000000000E+00  0.45593999997E+02  0.45594000000E+02  0.51100000000E-03 0.  1.
         11   -1    0    0    0    0 -0.00000000000E+00 -0.00000000000E+00 -0.45593999997E+02  0.45594000000E+02  0.51100000000E-03 0. -1.
    9900012    2    1    2    0    0 -0.88171915105E+00 -0.24875553814E+00 -0.74397275477E+00  0.90007829064E+02  0.90000091607E+02 0.  0.
        -12    1    1    2    0    0  0.88171915105E+00  0.24875553814E+00  0.74397275477E+00  0.11801709363E+01  0.00000000000E+00 0.  1.
         11    1    3    3    0    0 -0.71290724029E+01 -0.38906080928E+01  0.33428455586E+01  0.87826602660E+01  0.51100000000E-03 0. -1.
        -11    1    3    3    0    0 -0.33182248119E+02 -0.59338028810E-01 -0.19775197351E+02  0.38628014986E+02  0.51100000000E-03 0.  1.
         12    1    3    3    0    0  0.39429601371E+02  0.37011905835E+01  0.15688379037E+02  0.42597153812E+02  0.00000000000E+00 0. -1.
</event>
<event>
 7    1  0.4195243E-015  0.9000786E+02  0.7816164E-02  0.1186339E+00
        -11   -1    0    0    0    0  0.00000000000E+00  0.00000000000E+00  0.45593999997E+02  0.45594000000E+02  0.51100000000E-03 0. -1.
         11   -1    0    0    0    0 -0.00000000000E+00 -0.00000000000E+00 -0.45593999997E+02  0.45594000000E+02  0.51100000000E-03 0.  1.
    9900012    2    1    2    0    0 -0.88103611951E+00 -0.78465098767E+00  0.28712798453E-01  0.90007861770E+02  0.90000124746E+02 0.  0.
        -12    1    1    2    0    0  0.88103611951E+00  0.78465098767E+00 -0.28712798453E-01  0.11801382297E+01  0.00000000000E+00 0.  1.
         11    1    3    3    0    0  0.29894141222E+01 -0.72836598107E+01 -0.45411284799E+01  0.90890123316E+01  0.51100000000E-03 0. -1.
        -11    1    3    3    0    0 -0.16155979914E+01 -0.32874719881E+02 -0.15822969826E+02  0.36520182618E+02  0.51100000000E-03 0.  1.
         12    1    3    3    0    0 -0.22548522504E+01  0.39373728704E+02  0.20392811104E+02  0.44398666820E+02  0.00000000000E+00 0. -1.
</event>
<event>
 7    1  0.4195243E-015  0.9000770E+02  0.7816164E-02  0.1186339E+00
        -11   -1    0    0    0    0  0.00000000000E+00  0.00000000000E+00  0.45593999997E+02  0.45594000000E+02  0.51100000000E-03 0.  1.
         11   -1    0    0    0    0 -0.00000000000E+00 -0.00000000000E+00 -0.45593999997E+02  0.45594000000E+02  0.51100000000E-03 0. -1.
    9900012    2    1    2    0    0  0.94963540715E+00  0.36315957420E+00 -0.59951192584E+00  0.90007700533E+02  0.89999961380E+02 0.  0.
        -12    1    1    2    0    0 -0.94963540715E+00 -0.36315957420E+00  0.59951192584E+00  0.11802994671E+01  0.00000000000E+00 0.  1.
         11    1    3    3    0    0  0.56578830592E+01 -0.20533151768E+01 -0.67351940299E+01  0.90327505672E+01  0.51100000000E-03 0. -1.
        -11    1    3    3    0    0  0.19950851031E+01 -0.29046373304E+02  0.29321602574E+02  0.41321042393E+02  0.51100000000E-03 0.  1.
         12    1    3    3    0    0 -0.67033327551E+01  0.31462848055E+02 -0.23185920470E+02  0.39653907573E+02  0.00000000000E+00 0. -1.
</event>
<event>
 7    1  0.4195243E-015  0.9000769E+02  0.7816164E-02  0.1186339E+00
        -11   -1    0    0    0    0  0.00000000000E+00  0.00000000000E+00  0.45593999997E+02  0.45594000000E+02  0.51100000000E-03 0.  1.
         11   -1    0    0    0    0 -0.00000000000E+00 -0.00000000000E+00 -0.45593999997E+02  0.45594000000E+02  0.51100000000E-03 0. -1.
    9900012    2    1    2    0    0  0.57925593224E+00  0.16860284511E+00 -0.10144846003E+01  0.90007685060E+02  0.89999945702E+02 0.  0.
        -12    1    1    2    0    0 -0.57925593224E+00 -0.16860284511E+00  0.10144846003E+01  0.11803149405E+01  0.00000000000E+00 0.  1.
         11    1    3    3    0    0  0.14246282571E+01 -0.41574118713E+02 -0.56055108979E+01  0.41974500178E+02  0.51100000000E-03 0. -1.
        -11    1    3    3    0    0 -0.72359352056E+01  0.50282638973E+01  0.61315076255E+01  0.10734876904E+02  0.51100000000E-03 0.  1.
        -12    1    3    3    0    0  0.63905628807E+01  0.36714457661E+02 -0.15404813279E+01  0.37298307978E+02  0.00000000000E+00 0.  1.
</event>
<event>
 7    1  0.4195243E-015  0.9000782E+02  0.7816164E-02  0.1186339E+00
        -11   -1    0    0    0    0  0.00000000000E+00  0.00000000000E+00  0.45593999997E+02  0.45594000000E+02  0.51100000000E-03 0. -1.
         11   -1    0    0    0    0 -0.00000000000E+00 -0.00000000000E+00 -0.45593999997E+02  0.45594000000E+02  0.51100000000E-03 0.  1.
    9900012    2    1    2    0    0 -0.10311625380E+01  0.44582321402E+00 -0.36162839760E+00  0.90007817973E+02  0.90000080371E+02 0.  0.
        -12    1    1    2    0    0  0.10311625380E+01 -0.44582321402E+00  0.36162839760E+00  0.11801820266E+01  0.00000000000E+00 0.  1.
         11    1    3    3    0    0 -0.10088511815E+02  0.28014039928E+02  0.25930404775E+02  0.39483545887E+02  0.51100000000E-03 0. -1.
        -11    1    3    3    0    0  0.51218929297E+01  0.68202684892E+01 -0.53930430671E+01  0.10091321184E+02  0.51100000000E-03 0.  1.
        -12    1    3    3    0    0  0.39354563475E+01 -0.34388485204E+02 -0.20898990106E+02  0.40432950903E+02  0.00000000000E+00 0.  1.
</event>
<event>
 7    1  0.4195243E-015  0.9000776E+02  0.7816164E-02  0.1186339E+00
        -11   -1    0    0    0    0  0.00000000000E+00  0.00000000000E+00  0.45593999997E+02  0.45594000000E+02  0.51100000000E-03 0. -1.
         11   -1    0    0    0    0 -0.00000000000E+00 -0.00000000000E+00 -0.45593999997E+02  0.45594000000E+02  0.51100000000E-03 0.  1.
    9900012    2    1    2    0    0 -0.70045012965E+00 -0.22755119935E+00  0.92225070645E+00  0.90007764304E+02  0.90000025993E+02 0.  0.
        -12    1    1    2    0    0  0.70045012965E+00  0.22755119935E+00 -0.92225070645E+00  0.11802356959E+01  0.00000000000E+00 0.  1.
         11    1    3    3    0    0 -0.18767345486E+02 -0.23933506910E+01  0.31943292812E+02  0.37125669557E+02  0.51100000000E-03 0. -1.
        -11    1    3    3    0    0  0.77681299855E+01 -0.17984884610E+02 -0.10001014811E+02  0.21995913607E+02  0.51100000000E-03 0.  1.
        -12    1    3    3    0    0  0.10298765371E+02  0.20150684102E+02 -0.21020027295E+02  0.30886181140E+02  0.00000000000E+00 0.  1.
</event>
<event>
 7    1  0.4195243E-015  0.9000774E+02  0.7816164E-02  0.1186339E+00
        -11   -1    0    0    0    0  0.00000000000E+00  0.00000000000E+00  0.45593999997E+02  0.45594000000E+02  0.51100000000E-03 0.  1.
         11   -1    0    0    0    0 -0.00000000000E+00 -0.00000000000E+00 -0.45593999997E+02  0.45594000000E+02  0.51100000000E-03 0. -1.
    9900012    2    1    2    0    0  0.63116941490E-01  0.11376058840E+01  0.30803900657E+00  0.90007737773E+02  0.89999999111E+02 0.  0.
        -12    1    1    2    0    0 -0.63116941490E-01 -0.11376058840E+01 -0.30803900657E+00  0.11802622273E+01  0.00000000000E+00 0.  1.
         11    1    3    3    0    0 -0.30207342870E+01 -0.17155442728E+01 -0.11952816932E+02  0.12447399755E+02  0.51100000000E-03 0. -1.
        -11    1    3    3    0    0  0.12777393452E+02  0.33893927489E+02  0.23472536234E+02  0.43162716105E+02  0.51100000000E-03 0.  1.
         12    1    3    3    0    0 -0.96935422240E+01 -0.31040777332E+02 -0.11211680295E+02  0.34397621913E+02  0.00000000000E+00 0. -1.
</event>
<event>
 7    1  0.4195243E-015  0.9000775E+02  0.7816164E-02  0.1186339E+00
        -11   -1    0    0    0    0  0.00000000000E+00  0.00000000000E+00  0.45593999997E+02  0.45594000000E+02  0.51100000000E-03 0. -1.
         11   -1    0    0    0    0 -0.00000000000E+00 -0.00000000000E+00 -0.45593999997E+02  0.45594000000E+02  0.51100000000E-03 0.  1.
    9900012    2    1    2    0    0 -0.14241756900E-01 -0.11646906953E+01 -0.19049486829E+00  0.90007747680E+02  0.90000009150E+02 0.  0.
        -12    1    1    2    0    0  0.14241756900E-01  0.11646906953E+01  0.19049486829E+00  0.11802523197E+01  0.00000000000E+00 0.  1.
         11    1    3    3    0    0 -0.10213840691E+02 -0.62705097082E-01  0.35194938302E+01  0.10803393479E+02  0.51100000000E-03 0. -1.
        -11    1    3    3    0    0 -0.84666121912E+01  0.32312720770E+02 -0.18484493418E+02  0.38176850875E+02  0.51100000000E-03 0.  1.
         12    1    3    3    0    0  0.18666211125E+02 -0.33414706368E+02  0.14774504719E+02  0.41027503326E+02  0.00000000000E+00 0. -1.
</event>
<event>
 7    1  0.4195243E-015  0.9000763E+02  0.7816164E-02  0.1186339E+00
        -11   -1    0    0    0    0  0.00000000000E+00  0.00000000000E+00  0.45593999997E+02  0.45594000000E+02  0.51100000000E-03 0.  1.
         11   -1    0    0    0    0 -0.00000000000E+00 -0.00000000000E+00 -0.45593999997E+02  0.45594000000E+02  0.51100000000E-03 0. -1.
    9900012    2    1    2    0    0 -0.79820838793E+00  0.25446879965E+00 -0.83150012054E+00  0.90007625716E+02  0.89999885575E+02 0.  0.
        -12    1    1    2    0    0  0.79820838793E+00 -0.25446879965E+00  0.83150012054E+00  0.11803742843E+01  0.00000000000E+00 0.  1.
         11    1    3    3    0    0 -0.75650657132E+01  0.54226038335E+01  0.12656686056E+01  0.93934428651E+01  0.51100000000E-03 0. -1.
        -11    1    3    3    0    0  0.93436158847E+01 -0.37596469869E+02  0.17636898512E+02  0.42565924092E+02  0.51100000000E-03 0.  1.
         12    1    3    3    0    0 -0.25767585594E+01  0.32428334835E+02 -0.19734067238E+02  0.38048258759E+02  0.00000000000E+00 0. -1.
</event>
<event>
 7    1  0.4195243E-015  0.9000822E+02  0.7816164E-02  0.1186338E+00
        -11   -1    0    0    0    0  0.00000000000E+00  0.00000000000E+00  0.45593999997E+02  0.45594000000E+02  0.51100000000E-03 0.  1.
         11   -1    0    0    0    0 -0.00000000000E+00 -0.00000000000E+00 -0.45593999997E+02  0.45594000000E+02  0.51100000000E-03 0. -1.
    9900012    2    1    2    0    0 -0.66495789287E+00 -0.82608585277E+00 -0.51701155930E+00  0.90008217059E+02  0.90000484723E+02 0.  0.
        -12    1    1    2    0    0  0.66495789287E+00  0.82608585277E+00  0.51701155930E+00  0.11797829410E+01  0.00000000000E+00 0.  1.
         11    1    3    3    0    0 -0.18131915792E+01  0.87816784490E+01  0.16990535840E+01  0.91264628102E+01  0.51100000000E-03 0. -1.
        -11    1    3    3    0    0  0.38132127615E+02  0.34972133705E+01 -0.12568261214E+02  0.40301995583E+02  0.51100000000E-03 0.  1.
         12    1    3    3    0    0 -0.36983893928E+02 -0.13104977672E+02  0.10352196071E+02  0.40579758666E+02  0.00000000000E+00 0. -1.
</event>
<event>
 7    1  0.4195243E-015  0.9000772E+02  0.7816164E-02  0.1186339E+00
        -11   -1    0    0    0    0  0.00000000000E+00  0.00000000000E+00  0.45593999997E+02  0.45594000000E+02  0.51100000000E-03 0.  1.
         11   -1    0    0    0    0 -0.00000000000E+00 -0.00000000000E+00 -0.45593999997E+02  0.45594000000E+02  0.51100000000E-03 0. -1.
    9900012    2    1    2    0    0  0.18445305348E-01  0.43958510242E+00 -0.10952076210E+01  0.90007722480E+02  0.89999983617E+02 0.  0.
        -12    1    1    2    0    0 -0.18445305348E-01 -0.43958510242E+00  0.10952076210E+01  0.11802775201E+01  0.00000000000E+00 0.  1.
         11    1    3    3    0    0  0.60225281472E+01 -0.32581264785E+02 -0.20053031387E+02  0.38728977890E+02  0.51100000000E-03 0. -1.
        -11    1    3    3    0    0 -0.86358469982E+01 -0.39288806933E+01 -0.37300772693E+00  0.94948982039E+01  0.51100000000E-03 0.  1.
        -12    1    3    3    0    0  0.26317641563E+01  0.36949730581E+02  0.19330831493E+02  0.41783846386E+02  0.00000000000E+00 0.  1.
</event>
<event>
 7    1  0.4195243E-015  0.9000706E+02  0.7816164E-02  0.1186340E+00
        -11   -1    0    0    0    0  0.00000000000E+00  0.00000000000E+00  0.45593999997E+02  0.45594000000E+02  0.51100000000E-03 0.  1.
         11   -1    0    0    0    0 -0.00000000000E+00 -0.00000000000E+00 -0.45593999997E+02  0.45594000000E+02  0.51100000000E-03 0. -1.
    9900012    2    1    2    0    0 -0.46101869089E+00  0.97026970221E+00 -0.49056974827E+00  0.90007059609E+02  0.89999311994E+02 0.  0.
        -12    1    1    2    0    0  0.46101869089E+00 -0.97026970221E+00  0.49056974827E+00  0.11809403907E+01  0.00000000000E+00 0.  1.
         11    1    3    3    0    0 -0.84006099657E+01  0.11484833464E+01  0.44216804863E+01  0.95624536797E+01  0.51100000000E-03 0. -1.
        -11    1    3    3    0    0  0.61097012765E+01 -0.35121155758E+02  0.16648343962E+02  0.39344521707E+02  0.51100000000E-03 0.  1.
         12    1    3    3    0    0  0.18298899984E+01  0.34942942113E+02 -0.21560594197E+02  0.41100084222E+02  0.00000000000E+00 0. -1.
</event>
<event>
 7    1  0.4195243E-015  0.9000789E+02  0.7816164E-02  0.1186339E+00
        -11   -1    0    0    0    0  0.00000000000E+00  0.00000000000E+00  0.45593999997E+02  0.45594000000E+02  0.51100000000E-03 0. -1.
         11   -1    0    0    0    0 -0.00000000000E+00 -0.00000000000E+00 -0.45593999997E+02  0.45594000000E+02  0.51100000000E-03 0.  1.
    9900012    2    1    2    0    0 -0.42384463092E+00  0.82264978719E+00  0.73230090620E+00  0.90007889174E+02  0.90000152511E+02 0.  0.
        -12    1    1    2    0    0  0.42384463092E+00 -0.82264978719E+00 -0.73230090620E+00  0.11801108256E+01  0.00000000000E+00 0.  1.
         11    1    3    3    0    0 -0.56591166354E+01 -0.43989653859E+01  0.10021486418E+02  0.12320985669E+02  0.51100000000E-03 0. -1.
        -11    1    3    3    0    0 -0.98209463904E+01 -0.33350783886E+02  0.18246098674E+01  0.34814579924E+02  0.51100000000E-03 0.  1.
         12    1    3    3    0    0  0.15056218395E+02  0.38572399059E+02 -0.11113795380E+02  0.42872323582E+02  0.00000000000E+00 0. -1.
</event>
<event>
 7    1  0.4195243E-015  0.9000759E+02  0.7816164E-02  0.1186339E+00
        -11   -1    0    0    0    0  0.00000000000E+00  0.00000000000E+00  0.45593999997E+02  0.45594000000E+02  0.51100000000E-03 0. -1.
         11   -1    0    0    0    0 -0.00000000000E+00 -0.00000000000E+00 -0.45593999997E+02  0.45594000000E+02  0.51100000000E-03 0.  1.
    9900012    2    1    2    0    0  0.11199964003E+01  0.21038351072E+00  0.30777474068E+00  0.90007585476E+02  0.89999844804E+02 0.  0.
        -12    1    1    2    0    0 -0.11199964003E+01 -0.21038351072E+00 -0.30777474068E+00  0.11804145244E+01  0.00000000000E+00 0.  1.
         11    1    3    3    0    0 -0.29523125619E+02  0.19185341076E+02  0.10100274752E+02  0.36629329899E+02  0.51100000000E-03 0. -1.
        -11    1    3    3    0    0 -0.90501230017E+01 -0.29724335324E+01 -0.24642967205E+00  0.95289461797E+01  0.51100000000E-03 0.  1.
        -12    1    3    3    0    0  0.39693245021E+02 -0.16002524033E+02 -0.95460703397E+01  0.43849309397E+02  0.00000000000E+00 0.  1.
</event>
<event>
 7    1  0.4195243E-015  0.9000774E+02  0.7816164E-02  0.1186339E+00
        -11   -1    0    0    0    0  0.00000000000E+00  0.00000000000E+00  0.45593999997E+02  0.45594000000E+02  0.51100000000E-03 0. -1.
         11   -1    0    0    0    0 -0.00000000000E+00 -0.00000000000E+00 -0.45593999997E+02  0.45594000000E+02  0.51100000000E-03 0.  1.
    9900012    2    1    2    0    0 -0.16825200686E+00  0.11184871547E+01 -0.33718681959E+00  0.90007738502E+02  0.89999999850E+02 0.  0.
        -12    1    1    2    0    0  0.16825200686E+00 -0.11184871547E+01  0.33718681959E+00  0.11802614983E+01  0.00000000000E+00 0.  1.
         11    1    3    3    0    0  0.12044693685E+02  0.36988328174E+02 -0.12358299621E+02  0.40815911565E+02  0.51100000000E-03 0. -1.
        -11    1    3    3    0    0 -0.57693461957E+01 -0.76076748458E+01 -0.92060629476E+01  0.13263244978E+02  0.51100000000E-03 0.  1.
        -12    1    3    3    0    0 -0.64435994961E+01 -0.28262166174E+02  0.21227175749E+02  0.35928581959E+02  0.00000000000E+00 0.  1.
</event>
<event>
 7    1  0.4195243E-015  0.9000765E+02  0.7816164E-02  0.1186339E+00
        -11   -1    0    0    0    0  0.00000000000E+00  0.00000000000E+00  0.45593999997E+02  0.45594000000E+02  0.51100000000E-03 0. -1.
         11   -1    0    0    0    0 -0.00000000000E+00 -0.00000000000E+00 -0.45593999997E+02  0.45594000000E+02  0.51100000000E-03 0.  1.
    9900012    2    1    2    0    0  0.36148298185E+00 -0.77555682815E+00  0.81306520138E+00  0.90007646934E+02  0.89999907073E+02 0.  0.
        -12    1    1    2    0    0 -0.36148298185E+00  0.77555682815E+00 -0.81306520138E+00  0.11803530665E+01  0.00000000000E+00 0.  1.
         11    1    3    3    0    0 -0.62970940705E+00 -0.32744670692E+02  0.16668916240E+02  0.36748642990E+02  0.51100000000E-03 0. -1.
        -11    1    3    3    0    0  0.22226607486E+01 -0.80573088862E+01  0.31502647516E+01  0.89322234386E+01  0.51100000000E-03 0.  1.
        -12    1    3    3    0    0 -0.12314683597E+01  0.40026422751E+02 -0.19006115790E+02  0.44326780505E+02  0.00000000000E+00 0.  1.
</event>
<event>
 7    1  0.4195243E-015  0.9000778E+02  0.7816164E-02  0.1186339E+00
        -11   -1    0    0    0    0  0.00000000000E+00  0.00000000000E+00  0.45593999997E+02  0.45594000000E+02  0.51100000000E-03 0.  1.
         11   -1    0    0    0    0 -0.00000000000E+00 -0.00000000000E+00 -0.45593999997E+02  0.45594000000E+02  0.51100000000E-03 0. -1.
    9900012    2    1    2    0    0  0.83833732144E+00  0.95708996686E-01 -0.82519208778E+00  0.90007783216E+02  0.90000045154E+02 0.  0.
        -12    1    1    2    0    0 -0.83833732144E+00 -0.95708996686E-01  0.82519208778E+00  0.11802167844E+01  0.00000000000E+00 0.  1.
         11    1    3    3    0    0  0.79363226703E+01  0.33814079112E+01 -0.33910821881E+01  0.92692273495E+01  0.51100000000E-03 0. -1.
        -11    1    3    3    0    0  0.34515921045E+02  0.68668400770E+01 -0.90884062042E+01  0.36346958962E+02  0.51100000000E-03 0.  1.
         12    1    3    3    0    0 -0.41613906394E+02 -0.10152538992E+02  0.11654296305E+02  0.44391596904E+02  0.00000000000E+00 0. -1.
</event>
<event>
 7    1  0.4195243E-015  0.9000774E+02  0.7816164E-02  0.1186339E+00
        -11   -1    0    0    0    0  0.00000000000E+00  0.00000000000E+00  0.45593999997E+02  0.45594000000E+02  0.51100000000E-03 0.  1.
         11   -1    0    0    0    0 -0.00000000000E+00 -0.00000000000E+00 -0.45593999997E+02  0.45594000000E+02  0.51100000000E-03 0. -1.
    9900012    2    1    2    0    0  0.89008284663E+00  0.42932746416E+00 -0.64532002022E+00  0.90007742624E+02  0.90000004027E+02 0.  0.
        -12    1    1    2    0    0 -0.89008284663E+00 -0.42932746416E+00  0.64532002022E+00  0.11802573761E+01  0.00000000000E+00 0.  1.
         11    1    3    3    0    0  0.18867263408E+02 -0.26448610055E+02  0.24510742691E+02  0.40697409129E+02  0.51100000000E-03 0. -1.
        -11    1    3    3    0    0  0.69532849499E+01  0.53473482128E+01 -0.18664734043E+01  0.89680559618E+01  0.51100000000E-03 0.  1.
        -12    1    3    3    0    0 -0.24930465511E+02  0.21530589306E+02 -0.23289589307E+02  0.40342277533E+02  0.00000000000E+00 0.  1.
</event>
<event>
 7    1  0.4270148E-015  0.9000781E+02  0.7816164E-02  0.1186339E+00
        -11   -1    0    0    0    0  0.00000000000E+00  0.00000000000E+00  0.45593999997E+02  0.45594000000E+02  0.51100000000E-03 0.  1.
         11   -1    0    0    0    0 -0.00000000000E+00 -0.00000000000E+00 -0.45593999997E+02  0.45594000000E+02  0.51100000000E-03 0. -1.
    9900012    2    1    2    0    0  0.62716597717E+00  0.99917416076E+00 -0.34153579049E-01  0.90007808222E+02  0.90000070490E+02 0.  0.
        -12    1    1    2    0    0 -0.62716597717E+00 -0.99917416076E+00  0.34153579049E-01  0.11801917782E+01  0.00000000000E+00 0.  1.
         11    1    3    3    0    0 -0.49414801669E+01  0.23481598157E+02 -0.30167919366E+02  0.38547464733E+02  0.51100000000E-03 0. -1.
        -11    1    3    3    0    0 -0.49038297821E+01 -0.51903110645E+01 -0.64759555914E+01  0.96397550052E+01  0.51100000000E-03 0.  1.
        -12    1    3    3    0    0  0.10472475926E+02 -0.17292112931E+02  0.36609721379E+02  0.41820588483E+02  0.00000000000E+00 0.  1.
</event>
<event>
 7    1  0.4195243E-015  0.9000776E+02  0.7816164E-02  0.1186339E+00
        -11   -1    0    0    0    0  0.00000000000E+00  0.00000000000E+00  0.45593999997E+02  0.45594000000E+02  0.51100000000E-03 0.  1.
         11   -1    0    0    0    0 -0.00000000000E+00 -0.00000000000E+00 -0.45593999997E+02  0.45594000000E+02  0.51100000000E-03 0. -1.
    9900012    2    1    2    0    0 -0.11189238813E+01  0.35478482543E+00  0.12289914716E+00  0.90007759717E+02  0.90000021346E+02 0.  0.
        -12    1    1    2    0    0  0.11189238813E+01 -0.35478482543E+00 -0.12289914716E+00  0.11802402827E+01  0.00000000000E+00 0.  1.
         11    1    3    3    0    0  0.37686340918E+02  0.52823595008E+01  0.12273779690E+02  0.39985113252E+02  0.51100000000E-03 0. -1.
        -11    1    3    3    0    0 -0.45001135861E+01  0.53536919439E+01  0.65841831176E+01  0.96054415466E+01  0.51100000000E-03 0.  1.
        -12    1    3    3    0    0 -0.34305151213E+02 -0.10281266619E+02 -0.18735063660E+02  0.40417204918E+02  0.00000000000E+00 0.  1.
</event>
<event>
 7    1  0.4195243E-015  0.9000771E+02  0.7816164E-02  0.1186339E+00
        -11   -1    0    0    0    0  0.00000000000E+00  0.00000000000E+00  0.45593999997E+02  0.45594000000E+02  0.51100000000E-03 0.  1.
         11   -1    0    0    0    0 -0.00000000000E+00 -0.00000000000E+00 -0.45593999997E+02  0.45594000000E+02  0.51100000000E-03 0. -1.
    9900012    2    1    2    0    0 -0.51697327023E+00 -0.10585256992E+01  0.73041766108E-01  0.90007714815E+02  0.89999975851E+02 0.  0.
        -12    1    1    2    0    0  0.51697327023E+00  0.10585256992E+01 -0.73041766108E-01  0.11802851849E+01  0.00000000000E+00 0.  1.
         11    1    3    3    0    0 -0.92797568182E+01 -0.48432867271E+01 -0.22356576704E+00  0.10470018856E+02  0.51100000000E-03 0. -1.
        -11    1    3    3    0    0 -0.30524169800E+02 -0.75803630266E+01 -0.16271776185E+02  0.35411262983E+02  0.51100000000E-03 0.  1.
         12    1    3    3    0    0  0.39286953348E+02  0.11365124055E+02  0.16568383718E+02  0.44126432976E+02  0.00000000000E+00 0. -1.
</event>
<event>
 7    1  0.4195243E-015  0.9000773E+02  0.7816164E-02  0.1186339E+00
        -11   -1    0    0    0    0  0.00000000000E+00  0.00000000000E+00  0.45593999997E+02  0.45594000000E+02  0.51100000000E-03 0. -1.
         11   -1    0    0    0    0 -0.00000000000E+00 -0.00000000000E+00 -0.45593999997E+02  0.45594000000E+02  0.51100000000E-03 0.  1.
    9900012    2    1    2    0    0  0.68095217395E+00 -0.48324290992E+00 -0.83415646016E+00  0.90007730296E+02  0.89999991536E+02 0.  0.
        -12    1    1    2    0    0 -0.68095217395E+00  0.48324290992E+00  0.83415646016E+00  0.11802697036E+01  0.00000000000E+00 0.  1.
         11    1    3    3    0    0  0.12346957661E+01  0.85775206323E+01 -0.18185554034E+01  0.88546867731E+01  0.51100000000E-03 0. -1.
        -11    1    3    3    0    0  0.37800118184E+01  0.34998813296E+02 -0.77060993540E+01  0.36035945791E+02  0.51100000000E-03 0.  1.
         12    1    3    3    0    0 -0.43337554106E+01 -0.44059576839E+02  0.86904982973E+01  0.45117097733E+02  0.00000000000E+00 0. -1.
</event>
<event>
 7    1  0.4195243E-015  0.9000793E+02  0.7816164E-02  0.1186339E+00
        -11   -1    0    0    0    0  0.00000000000E+00  0.00000000000E+00  0.45593999997E+02  0.45594000000E+02  0.51100000000E-03 0.  1.
         11   -1    0    0    0    0 -0.00000000000E+00 -0.00000000000E+00 -0.45593999997E+02  0.45594000000E+02  0.51100000000E-03 0. -1.
    9900012    2    1    2    0    0  0.87173238035E+00  0.72871206316E+00  0.31878446773E+00  0.90007931294E+02  0.90000195187E+02 0.  0.
        -12    1    1    2    0    0 -0.87173238035E+00 -0.72871206316E+00 -0.31878446773E+00  0.11800687060E+01  0.00000000000E+00 0.  1.
         11    1    3    3    0    0 -0.17290226053E+02 -0.34885429093E+02  0.92574488013E+00  0.38946143375E+02  0.51100000000E-03 0. -1.
        -11    1    3    3    0    0 -0.25283605822E+01 -0.43691707285E+01 -0.31845759319E+01  0.59685663451E+01  0.51100000000E-03 0.  1.
        -12    1    3    3    0    0  0.20690319015E+02  0.39983311884E+02  0.25776155195E+01  0.45093221574E+02  0.00000000000E+00 0.  1.
</event>
<event>
 7    1  0.4195243E-015  0.9000788E+02  0.7816164E-02  0.1186339E+00
        -11   -1    0    0    0    0  0.00000000000E+00  0.00000000000E+00  0.45593999997E+02  0.45594000000E+02  0.51100000000E-03 0.  1.
         11   -1    0    0    0    0 -0.00000000000E+00 -0.00000000000E+00 -0.45593999997E+02  0.45594000000E+02  0.51100000000E-03 0. -1.
    9900012    2    1    2    0    0 -0.69415478704E+00  0.47375012627E+00 -0.82848655188E+00  0.90007881355E+02  0.90000144588E+02 0.  0.
        -12    1    1    2    0    0  0.69415478704E+00 -0.47375012627E+00  0.82848655188E+00  0.11801186454E+01  0.00000000000E+00 0.  1.
         11    1    3    3    0    0  0.91995832978E+00  0.85275672276E+01 -0.37001597565E+01  0.93411406495E+01  0.51100000000E-03 0. -1.
        -11    1    3    3    0    0 -0.21840587790E+02 -0.48837460685E+01  0.35607119194E+02  0.42056262177E+02  0.51100000000E-03 0.  1.
         12    1    3    3    0    0  0.20226474673E+02 -0.31700710328E+01 -0.32735445990E+02  0.38610478529E+02  0.00000000000E+00 0. -1.
</event>
<event>
 7    1  0.4195243E-015  0.9000750E+02  0.7816164E-02  0.1186340E+00
        -11   -1    0    0    0    0  0.00000000000E+00  0.00000000000E+00  0.45593999997E+02  0.45594000000E+02  0.51100000000E-03 0.  1.
         11   -1    0    0    0    0 -0.00000000000E+00 -0.00000000000E+00 -0.45593999997E+02  0.45594000000E+02  0.51100000000E-03 0. -1.
    9900012    2    1    2    0    0 -0.53601919660E+00 -0.22023473567E+00 -0.10284754904E+01  0.90007499364E+02  0.89999757555E+02 0.  0.
        -12    1    1    2    0    0  0.53601919660E+00  0.22023473567E+00  0.10284754904E+01  0.11805006363E+01  0.00000000000E+00 0.  1.
         11    1    3    3    0    0 -0.97647206731E+01  0.30675513834E+02 -0.13419427677E+02  0.34877183921E+02  0.51100000000E-03 0. -1.
        -11    1    3    3    0    0 -0.48210577118E+01  0.95934112569E+01  0.98971425177E+00  0.10782192336E+02  0.51100000000E-03 0.  1.
        -12    1    3    3    0    0  0.14049759188E+02 -0.40489159826E+02  0.11401237934E+02  0.44348123107E+02  0.00000000000E+00 0.  1.
</event>
<event>
 7    1  0.4195243E-015  0.9000773E+02  0.7816164E-02  0.1186339E+00
        -11   -1    0    0    0    0  0.00000000000E+00  0.00000000000E+00  0.45593999997E+02  0.45594000000E+02  0.51100000000E-03 0. -1.
         11   -1    0    0    0    0 -0.00000000000E+00 -0.00000000000E+00 -0.45593999997E+02  0.45594000000E+02  0.51100000000E-03 0.  1.
    9900012    2    1    2    0    0 -0.30520985775E+00  0.28971607106E+00  0.11027011606E+01  0.90007729561E+02  0.89999990791E+02 0.  0.
        -12    1    1    2    0    0  0.30520985775E+00 -0.28971607106E+00 -0.11027011606E+01  0.11802704388E+01  0.00000000000E+00 0.  1.
         11    1    3    3    0    0  0.20118571955E+02 -0.28749045173E+02 -0.73593772029E+01  0.35852823723E+02  0.51100000000E-03 0. -1.
        -11    1    3    3    0    0  0.90348018509E+01 -0.37205327816E-01 -0.53742505425E+01  0.10512449661E+02  0.51100000000E-03 0.  1.
        -12    1    3    3    0    0 -0.29458583663E+02  0.29075966572E+02  0.13836328906E+02  0.43642456177E+02  0.00000000000E+00 0.  1.
</event>
<event>
 7    1  0.4195243E-015  0.9000773E+02  0.7816164E-02  0.1186339E+00
        -11   -1    0    0    0    0  0.00000000000E+00  0.00000000000E+00  0.45593999997E+02  0.45594000000E+02  0.51100000000E-03 0. -1.
         11   -1    0    0    0    0 -0.00000000000E+00 -0.00000000000E+00 -0.45593999997E+02  0.45594000000E+02  0.51100000000E-03 0.  1.
    9900012    2    1    2    0    0  0.10365796608E+01 -0.46359876739E+00 -0.32189297558E+00  0.90007730413E+02  0.89999991654E+02 0.  0.
        -12    1    1    2    0    0 -0.10365796608E+01  0.46359876739E+00  0.32189297558E+00  0.11802695870E+01  0.00000000000E+00 0.  1.
         11    1    3    3    0    0 -0.11994023809E+02 -0.21237248915E+02  0.33321484383E+02  0.41294051271E+02  0.51100000000E-03 0. -1.
        -11    1    3    3    0    0 -0.50592310441E+01  0.11267131330E+02 -0.45542034592E+01  0.13163769846E+02  0.51100000000E-03 0.  1.
        -12    1    3    3    0    0  0.18089834514E+02  0.95065188181E+01 -0.29089173900E+02  0.35549909296E+02  0.00000000000E+00 0.  1.
</event>
<event>
 7    1  0.4195243E-015  0.9000782E+02  0.7816164E-02  0.1186339E+00
        -11   -1    0    0    0    0  0.00000000000E+00  0.00000000000E+00  0.45593999997E+02  0.45594000000E+02  0.51100000000E-03 0.  1.
         11   -1    0    0    0    0 -0.00000000000E+00 -0.00000000000E+00 -0.45593999997E+02  0.45594000000E+02  0.51100000000E-03 0. -1.
    9900012    2    1    2    0    0  0.11310013886E+01  0.64875230696E-01  0.33082599423E+00  0.90007822566E+02  0.90000085024E+02 0.  0.
        -12    1    1    2    0    0 -0.11310013886E+01 -0.64875230696E-01 -0.33082599423E+00  0.11801774337E+01  0.00000000000E+00 0.  1.
         11    1    3    3    0    0 -0.11173029377E+02 -0.36899098672E+02  0.44000828019E+00  0.38556110745E+02  0.51100000000E-03 0. -1.
        -11    1    3    3    0    0 -0.46248543280E+01 -0.33599280099E+01 -0.48040772484E+01  0.74670979809E+01  0.51100000000E-03 0.  1.
        -12    1    3    3    0    0  0.16928885094E+02  0.40323901912E+02  0.46948949624E+01  0.43984613840E+02  0.00000000000E+00 0.  1.
</event>
<event>
 7    1  0.4195243E-015  0.9000765E+02  0.7816164E-02  0.1186339E+00
        -11   -1    0    0    0    0  0.00000000000E+00  0.00000000000E+00  0.45593999997E+02  0.45594000000E+02  0.51100000000E-03 0.  1.
         11   -1    0    0    0    0 -0.00000000000E+00 -0.00000000000E+00 -0.45593999997E+02  0.45594000000E+02  0.51100000000E-03 0. -1.
    9900012    2    1    2    0    0  0.32782201492E+00  0.60189684449E+00 -0.96097224259E+00  0.90007654823E+02  0.89999915067E+02 0.  0.
        -12    1    1    2    0    0 -0.32782201492E+00 -0.60189684449E+00  0.96097224259E+00  0.11803451766E+01  0.00000000000E+00 0.  1.
         11    1    3    3    0    0  0.98590093310E+01 -0.33953460378E+02  0.60108850269E+01  0.35863188309E+02  0.51100000000E-03 0. -1.
        -11    1    3    3    0    0 -0.18870394552E+01 -0.87864132143E+01  0.20522549618E+01  0.92181194268E+01  0.51100000000E-03 0.  1.
        -12    1    3    3    0    0 -0.76441478610E+01  0.43341770436E+02 -0.90241122313E+01  0.44926347088E+02  0.00000000000E+00 0.  1.
</event>
<event>
 7    1  0.4195243E-015  0.9000767E+02  0.7816164E-02  0.1186339E+00
        -11   -1    0    0    0    0  0.00000000000E+00  0.00000000000E+00  0.45593999997E+02  0.45594000000E+02  0.51100000000E-03 0.  1.
         11   -1    0    0    0    0 -0.00000000000E+00 -0.00000000000E+00 -0.45593999997E+02  0.45594000000E+02  0.51100000000E-03 0. -1.
    9900012    2    1    2    0    0 -0.59875979382E+00  0.66199634211E+00 -0.77227952939E+00  0.90007674571E+02  0.89999935075E+02 0.  0.
        -12    1    1    2    0    0  0.59875979382E+00 -0.66199634211E+00  0.77227952939E+00  0.11803254294E+01  0.00000000000E+00 0.  1.
         11    1    3    3    0    0 -0.23499563473E+01 -0.52125584828E+01  0.75515529070E+01  0.94720120533E+01  0.51100000000E-03 0. -1.
        -11    1    3    3    0    0 -0.15958166813E+02 -0.67573880343E+01  0.31046391622E+02  0.35555643913E+02  0.51100000000E-03 0.  1.
         12    1    3    3    0    0  0.17709363366E+02  0.12631942859E+02 -0.39370224058E+02  0.44980018604E+02  0.00000000000E+00 0. -1.
</event>
<event>
 7    1  0.4195243E-015  0.9000783E+02  0.7816164E-02  0.1186339E+00
        -11   -1    0    0    0    0  0.00000000000E+00  0.00000000000E+00  0.45593999997E+02  0.45594000000E+02  0.51100000000E-03 0. -1.
         11   -1    0    0    0    0 -0.00000000000E+00 -0.00000000000E+00 -0.45593999997E+02  0.45594000000E+02  0.51100000000E-03 0.  1.
    9900012    2    1    2    0    0  0.84911225071E+00 -0.38342215003E+00  0.72442488071E+00  0.90007832399E+02  0.90000094986E+02 0.  0.
        -12    1    1    2    0    0 -0.84911225071E+00  0.38342215003E+00 -0.72442488071E+00  0.11801676013E+01  0.00000000000E+00 0.  1.
         11    1    3    3    0    0  0.21105711295E+02 -0.17114426418E+02 -0.31382634773E+02  0.41511738176E+02  0.51100000000E-03 0. -1.
        -11    1    3    3    0    0  0.58326252298E+01  0.20390575005E+01  0.76623786833E+01  0.98432372677E+01  0.51100000000E-03 0.  1.
        -12    1    3    3    0    0 -0.26089224274E+02  0.14691946767E+02  0.24444680970E+02  0.38652856955E+02  0.00000000000E+00 0.  1.
</event>
<event>
 7    1  0.4195243E-015  0.9000778E+02  0.7816164E-02  0.1186339E+00
        -11   -1    0    0    0    0  0.00000000000E+00  0.00000000000E+00  0.45593999997E+02  0.45594000000E+02  0.51100000000E-03 0. -1.
         11   -1    0    0    0    0 -0.00000000000E+00 -0.00000000000E+00 -0.45593999997E+02  0.45594000000E+02  0.51100000000E-03 0.  1.
    9900012    2    1    2    0    0  0.44377762459E+00 -0.10936061506E+01  0.36993445042E-02  0.90007776853E+02  0.90000038707E+02 0.  0.
        -12    1    1    2    0    0 -0.44377762459E+00  0.10936061506E+01 -0.36993445042E-02  0.11802231475E+01  0.00000000000E+00 0.  1.
         11    1    3    3    0    0 -0.50861287636E+01 -0.11765721471E+02  0.81406195283E+00  0.12843815814E+02  0.51100000000E-03 0. -1.
        -11    1    3    3    0    0  0.13952047778E+02  0.17744376922E+02 -0.34777505430E+02  0.41460793935E+02  0.51100000000E-03 0.  1.
         12    1    3    3    0    0 -0.84221413895E+01 -0.70722616015E+01  0.33967142822E+02  0.35703167104E+02  0.00000000000E+00 0. -1.
</event>
<event>
 7    1  0.4195243E-015  0.9000787E+02  0.7816164E-02  0.1186339E+00
        -11   -1    0    0    0    0  0.00000000000E+00  0.00000000000E+00  0.45593999997E+02  0.45594000000E+02  0.51100000000E-03 0.  1.
         11   -1    0    0    0    0 -0.00000000000E+00 -0.00000000000E+00 -0.45593999997E+02  0.45594000000E+02  0.51100000000E-03 0. -1.
    9900012    2    1    2    0    0 -0.10299856910E+01  0.57409990815E+00  0.47490029123E-01  0.90007865884E+02  0.90000128914E+02 0.  0.
        -12    1    1    2    0    0  0.10299856910E+01 -0.57409990815E+00 -0.47490029123E-01  0.11801341157E+01  0.00000000000E+00 0.  1.
         11    1    3    3    0    0  0.25315441004E+02  0.30069130628E+02 -0.17900301065E+02  0.43190797034E+02  0.51100000000E-03 0. -1.
        -11    1    3    3    0    0  0.15398082269E+01 -0.55478934797E+01  0.56263301280E+01  0.80502001471E+01  0.51100000000E-03 0.  1.
        -12    1    3    3    0    0 -0.27885234922E+02 -0.23947137241E+02  0.12321460967E+02  0.38766868703E+02  0.00000000000E+00 0.  1.
</event>
<event>
 7    1  0.4195243E-015  0.9000775E+02  0.7816164E-02  0.1186339E+00
        -11   -1    0    0    0    0  0.00000000000E+00  0.00000000000E+00  0.45593999997E+02  0.45594000000E+02  0.51100000000E-03 0. -1.
         11   -1    0    0    0    0 -0.00000000000E+00 -0.00000000000E+00 -0.45593999997E+02  0.45594000000E+02  0.51100000000E-03 0.  1.
    9900012    2    1    2    0    0 -0.20910146750E+00 -0.80225831932E+00  0.84002654888E+00  0.90007751536E+02  0.90000013056E+02 0.  0.
        -12    1    1    2    0    0  0.20910146750E+00  0.80225831932E+00 -0.84002654888E+00  0.11802484643E+01  0.00000000000E+00 0.  1.
         11    1    3    3    0    0  0.61472613786E+00 -0.13539820072E+02  0.33154113864E+02  0.35817591797E+02  0.51100000000E-03 0. -1.
        -11    1    3    3    0    0  0.56921941598E+01 -0.26781750692E+01  0.82117765614E+01  0.10344417364E+02  0.51100000000E-03 0.  1.
        -12    1    3    3    0    0 -0.65160217652E+01  0.15415736822E+02 -0.40525863876E+02  0.43845742374E+02  0.00000000000E+00 0.  1.
</event>
<event>
 7    1  0.4195243E-015  0.9000769E+02  0.7816164E-02  0.1186339E+00
        -11   -1    0    0    0    0  0.00000000000E+00  0.00000000000E+00  0.45593999997E+02  0.45594000000E+02  0.51100000000E-03 0. -1.
         11   -1    0    0    0    0 -0.00000000000E+00 -0.00000000000E+00 -0.45593999997E+02  0.45594000000E+02  0.51100000000E-03 0.  1.
    9900012    2    1    2    0    0  0.11571542731E+01  0.16962005479E+00 -0.15925247514E+00  0.90007687192E+02  0.89999947863E+02 0.  0.
        -12    1    1    2    0    0 -0.11571542731E+01 -0.16962005479E+00  0.15925247514E+00  0.11803128083E+01  0.00000000000E+00 0.  1.
         11    1    3    3    0    0 -0.76203575121E+01  0.32208763363E+01 -0.27429437588E+01  0.87159413554E+01  0.51100000000E-03 0. -1.
        -11    1    3    3    0    0 -0.36309867863E+01 -0.40384676018E+02 -0.60983847418E+01  0.41003614704E+02  0.51100000000E-03 0.  1.
         12    1    3    3    0    0  0.12408498571E+02  0.37333419736E+02  0.86820760255E+01  0.40288131132E+02  0.00000000000E+00 0. -1.
</event>
<event>
 7    1  0.4195243E-015  0.9000769E+02  0.7816164E-02  0.1186339E+00
        -11   -1    0    0    0    0  0.00000000000E+00  0.00000000000E+00  0.45593999997E+02  0.45594000000E+02  0.51100000000E-03 0.  1.
         11   -1    0    0    0    0 -0.00000000000E+00 -0.00000000000E+00 -0.45593999997E+02  0.45594000000E+02  0.51100000000E-03 0. -1.
    9900012    2    1    2    0    0 -0.24598566667E+00 -0.25666281501E+00 -0.11254994031E+01  0.90007689170E+02  0.89999949867E+02 0.  0.
        -12    1    1    2    0    0  0.24598566667E+00  0.25666281501E+00  0.11254994031E+01  0.11803108299E+01  0.00000000000E+00 0.  1.
         11    1    3    3    0    0 -0.17688443446E+02 -0.39999320231E+02 -0.97780987787E+01  0.44815598473E+02  0.51100000000E-03 0. -1.
        -11    1    3    3    0    0  0.47873472997E+01  0.59682062237E+01  0.45254894391E+01  0.88892201357E+01  0.51100000000E-03 0.  1.
        -12    1    3    3    0    0  0.12655110480E+02  0.33774451192E+02  0.41271099365E+01  0.36302870562E+02  0.00000000000E+00 0.  1.
</event>
<event>
 7    1  0.4195243E-015  0.9000780E+02  0.7816164E-02  0.1186339E+00
        -11   -1    0    0    0    0  0.00000000000E+00  0.00000000000E+00  0.45593999997E+02  0.45594000000E+02  0.51100000000E-03 0. -1.
         11   -1    0    0    0    0 -0.00000000000E+00 -0.00000000000E+00 -0.45593999997E+02  0.45594000000E+02  0.51100000000E-03 0.  1.
    9900012    2    1    2    0    0  0.11314243098E+01 -0.27177065522E+00 -0.19723786402E+00  0.90007795343E+02  0.90000057441E+02 0.  0.
        -12    1    1    2    0    0 -0.11314243098E+01  0.27177065522E+00  0.19723786402E+00  0.11802046571E+01  0.00000000000E+00 0.  1.
         11    1    3    3    0    0  0.69415872484E+01 -0.82951991928E+00 -0.55559702707E+01  0.89298680132E+01  0.51100000000E-03 0. -1.
        -11    1    3    3    0    0  0.98964879145E+01  0.38176367480E+02  0.79430629876E+01  0.40230184649E+02  0.51100000000E-03 0.  1.
         12    1    3    3    0    0 -0.15706650853E+02 -0.37618618216E+02 -0.25843305810E+01  0.40847742680E+02  0.00000000000E+00 0. -1.
</event>
<event>
 7    1  0.4195243E-015  0.9000774E+02  0.7816164E-02  0.1186339E+00
        -11   -1    0    0    0    0  0.00000000000E+00  0.00000000000E+00  0.45593999997E+02  0.45594000000E+02  0.51100000000E-03 0.  1.
         11   -1    0    0    0    0 -0.00000000000E+00 -0.00000000000E+00 -0.45593999997E+02  0.45594000000E+02  0.51100000000E-03 0. -1.
    9900012    2    1    2    0    0 -0.11673804015E+01 -0.84439992401E-02  0.17367370255E+00  0.90007741190E+02  0.90000002574E+02 0.  0.
        -12    1    1    2    0    0  0.11673804015E+01  0.84439992401E-02 -0.17367370255E+00  0.11802588097E+01  0.00000000000E+00 0.  1.
         11    1    3    3    0    0 -0.31519626020E+02  0.10833680392E+02 -0.23659288331E+02  0.40873186563E+02  0.51100000000E-03 0. -1.
        -11    1    3    3    0    0  0.40487317979E+01  0.78509218311E+01 -0.30130948263E+00  0.88385513765E+01  0.51100000000E-03 0.  1.
        -12    1    3    3    0    0  0.26303513820E+02 -0.18693046222E+02  0.24134271516E+02  0.40296003250E+02  0.00000000000E+00 0.  1.
</event>
<event>
 7    1  0.4195243E-015  0.9000776E+02  0.7816164E-02  0.1186339E+00
        -11   -1    0    0    0    0  0.00000000000E+00  0.00000000000E+00  0.45593999997E+02  0.45594000000E+02  0.51100000000E-03 0.  1.
         11   -1    0    0    0    0 -0.00000000000E+00 -0.00000000000E+00 -0.45593999997E+02  0.45594000000E+02  0.51100000000E-03 0. -1.
    9900012    2    1    2    0    0  0.10695257361E+01 -0.23281681411E+00  0.44145225471E+00  0.90007758897E+02  0.90000020514E+02 0.  0.
        -12    1    1    2    0    0 -0.10695257361E+01  0.23281681411E+00 -0.44145225471E+00  0.11802411034E+01  0.00000000000E+00 0.  1.
         11    1    3    3    0    0  0.21805302560E+01 -0.60869999054E+01  0.57620156062E+01  0.86606641866E+01  0.51100000000E-03 0. -1.
        -11    1    3    3    0    0  0.24460265289E+02 -0.19387895961E+02  0.20285914291E+02  0.37225171681E+02  0.51100000000E-03 0.  1.
         12    1    3    3    0    0 -0.25571269809E+02  0.25242079053E+02 -0.25606477642E+02  0.44121923029E+02  0.00000000000E+00 0. -1.
</event>
<event>
 7    1  0.4195243E-015  0.9000751E+02  0.7816164E-02  0.1186340E+00
        -11   -1    0    0    0    0  0.00000000000E+00  0.00000000000E+00  0.45593999997E+02  0.45594000000E+02  0.51100000000E-03 0.  1.
         11   -1    0    0    0    0 -0.00000000000E+00 -0.00000000000E+00 -0.45593999997E+02  0.45594000000E+02  0.51100000000E-03 0. -1.
    9900012    2    1    2    0    0  0.28490387543E+00 -0.11431227529E+01  0.75259701808E-01  0.90007506938E+02  0.89999765229E+02 0.  0.
        -12    1    1    2    0    0 -0.28490387543E+00  0.11431227529E+01 -0.75259701808E-01  0.11804930619E+01  0.00000000000E+00 0.  1.
         11    1    3    3    0    0 -0.78631536525E+00 -0.16429916129E+02 -0.31062126925E+02  0.35148487381E+02  0.51100000000E-03 0. -1.
        -11    1    3    3    0    0 -0.15607576955E+00 -0.23096066428E+01 -0.99128117283E+01  0.10179512715E+02  0.51100000000E-03 0.  1.
        -12    1    3    3    0    0  0.12272950102E+01  0.17596400019E+02  0.41050198355E+02  0.44679506842E+02  0.00000000000E+00 0.  1.
</event>
<event>
 7    1  0.4195243E-015  0.9000782E+02  0.7816164E-02  0.1186339E+00
        -11   -1    0    0    0    0  0.00000000000E+00  0.00000000000E+00  0.45593999997E+02  0.45594000000E+02  0.51100000000E-03 0.  1.
         11   -1    0    0    0    0 -0.00000000000E+00 -0.00000000000E+00 -0.45593999997E+02  0.45594000000E+02  0.51100000000E-03 0. -1.
    9900012    2    1    2    0    0  0.65346082499E+00 -0.78790839556E+00 -0.58737668969E+00  0.90007821172E+02  0.90000083612E+02 0.  0.
        -12    1    1    2    0    0 -0.65346082499E+00  0.78790839556E+00  0.58737668969E+00  0.11801788276E+01  0.00000000000E+00 0.  1.
         11    1    3    3    0    0 -0.24091887513E+01 -0.11051296071E+02  0.59982043734E+01  0.12802882146E+02  0.51100000000E-03 0. -1.
        -11    1    3    3    0    0  0.20787999662E+02  0.33022777683E+02  0.14334073895E+02  0.41570547874E+02  0.51100000000E-03 0.  1.
         12    1    3    3    0    0 -0.17725350086E+02 -0.22759390008E+02 -0.20919654958E+02  0.35634391152E+02  0.00000000000E+00 0. -1.
</event>
<event>
 7    1  0.4195243E-015  0.9000784E+02  0.7816164E-02  0.1186339E+00
        -11   -1    0    0    0    0  0.00000000000E+00  0.00000000000E+00  0.45593999997E+02  0.45594000000E+02  0.51100000000E-03 0.  1.
         11   -1    0    0    0    0 -0.00000000000E+00 -0.00000000000E+00 -0.45593999997E+02  0.45594000000E+02  0.51100000000E-03 0. -1.
    9900012    2    1    2    0    0 -0.31773296396E+00 -0.11361759800E+01 -0.30481312123E-01  0.90007839331E+02  0.90000102010E+02 0.  0.
        -12    1    1    2    0    0  0.31773296396E+00  0.11361759800E+01  0.30481312123E-01  0.11801606689E+01  0.00000000000E+00 0.  1.
         11    1    3    3    0    0  0.29087611280E+02 -0.28512223602E+02  0.17124567639E+02  0.44184690129E+02  0.51100000000E-03 0. -1.
        -11    1    3    3    0    0 -0.66832551107E+01  0.47816805045E+00 -0.10389078660E+00  0.67011444631E+01  0.51100000000E-03 0.  1.
        -12    1    3    3    0    0 -0.22722089133E+02  0.26897879572E+02 -0.17051158165E+02  0.39122004739E+02  0.00000000000E+00 0.  1.
</event>
<event>
 7    1  0.4195243E-015  0.9000745E+02  0.7816164E-02  0.1186340E+00
        -11   -1    0    0    0    0  0.00000000000E+00  0.00000000000E+00  0.45593999997E+02  0.45594000000E+02  0.51100000000E-03 0.  1.
         11   -1    0    0    0    0 -0.00000000000E+00 -0.00000000000E+00 -0.45593999997E+02  0.45594000000E+02  0.51100000000E-03 0. -1.
    9900012    2    1    2    0    0  0.53984775802E+00 -0.84879242451E+00 -0.61791054843E+00  0.90007450286E+02  0.89999707829E+02 0.  0.
        -12    1    1    2    0    0 -0.53984775802E+00  0.84879242451E+00  0.61791054843E+00  0.11805497142E+01  0.00000000000E+00 0.  1.
         11    1    3    3    0    0  0.87712527720E+01 -0.52951057901E+00  0.28218120134E+01  0.92291863099E+01  0.51100000000E-03 0. -1.
        -11    1    3    3    0    0 -0.73050928813E+01 -0.37007056046E+02  0.13884398439E+02  0.40195311909E+02  0.51100000000E-03 0.  1.
         12    1    3    3    0    0 -0.92631213263E+00  0.36687774201E+02 -0.17324121001E+02  0.40582952066E+02  0.00000000000E+00 0. -1.
</event>
<event>
 7    1  0.4195243E-015  0.9000786E+02  0.7816164E-02  0.1186339E+00
        -11   -1    0    0    0    0  0.00000000000E+00  0.00000000000E+00  0.45593999997E+02  0.45594000000E+02  0.51100000000E-03 0. -1.
         11   -1    0    0    0    0 -0.00000000000E+00 -0.00000000000E+00 -0.45593999997E+02  0.45594000000E+02  0.51100000000E-03 0.  1.
    9900012    2    1    2    0    0 -0.43571623760E+00 -0.10185313533E+01  0.40679419549E+00  0.90007857519E+02  0.90000120438E+02 0.  0.
        -12    1    1    2    0    0  0.43571623760E+00  0.10185313533E+01 -0.40679419549E+00  0.11801424807E+01  0.00000000000E+00 0.  1.
         11    1    3    3    0    0 -0.20811309964E+02 -0.15886624523E+02  0.29339483068E+02  0.39323030505E+02  0.51100000000E-03 0. -1.
        -11    1    3    3    0    0  0.23411920486E+01 -0.77221168320E+01  0.20357897051E+01  0.83220615571E+01  0.51100000000E-03 0.  1.
        -12    1    3    3    0    0  0.18034401678E+02  0.22590210001E+02 -0.30968478578E+02  0.42362765457E+02  0.00000000000E+00 0.  1.
</event>
<event>
 7    1  0.4195243E-015  0.9000773E+02  0.7816164E-02  0.1186339E+00
        -11   -1    0    0    0    0  0.00000000000E+00  0.00000000000E+00  0.45593999997E+02  0.45594000000E+02  0.51100000000E-03 0.  1.
         11   -1    0    0    0    0 -0.00000000000E+00 -0.00000000000E+00 -0.45593999997E+02  0.45594000000E+02  0.51100000000E-03 0. -1.
    9900012    2    1    2    0    0  0.87991096860E-01  0.79024536876E+00 -0.87224373885E+00  0.90007729135E+02  0.89999990359E+02 0.  0.
        -12    1    1    2    0    0 -0.87991096860E-01 -0.79024536876E+00  0.87224373885E+00  0.11802708655E+01  0.00000000000E+00 0.  1.
         11    1    3    3    0    0 -0.67553109243E+01 -0.17791046898E+01 -0.66580644761E+01  0.96503503569E+01  0.51100000000E-03 0. -1.
        -11    1    3    3    0    0  0.31817489010E+02 -0.20203644024E+02  0.21163395059E+02  0.43225329720E+02  0.51100000000E-03 0.  1.
         12    1    3    3    0    0 -0.24974186989E+02  0.22772994082E+02 -0.15377574321E+02  0.37132049058E+02  0.00000000000E+00 0. -1.
</event>
<event>
 7    1  0.4195243E-015  0.9000774E+02  0.7816164E-02  0.1186339E+00
        -11   -1    0    0    0    0  0.00000000000E+00  0.00000000000E+00  0.45593999997E+02  0.45594000000E+02  0.51100000000E-03 0. -1.
         11   -1    0    0    0    0 -0.00000000000E+00 -0.00000000000E+00 -0.45593999997E+02  0.45594000000E+02  0.51100000000E-03 0.  1.
    9900012    2    1    2    0    0 -0.55315088459E+00 -0.53668700045E+00  0.89387441512E+00  0.90007737187E+02  0.89999998518E+02 0.  0.
        -12    1    1    2    0    0  0.55315088459E+00  0.53668700045E+00 -0.89387441512E+00  0.11802628129E+01  0.00000000000E+00 0.  1.
         11    1    3    3    0    0  0.21902942135E+02 -0.27505257794E+02  0.86218430809E-01  0.35160852014E+02  0.51100000000E-03 0. -1.
        -11    1    3    3    0    0  0.39948537679E+01 -0.83712959198E+01 -0.46366114494E+01  0.10369938187E+02  0.51100000000E-03 0.  1.
        -12    1    3    3    0    0 -0.26450946788E+02  0.35339866713E+02  0.54442674337E+01  0.44476946986E+02  0.00000000000E+00 0.  1.
</event>
<event>
 7    1  0.4195243E-015  0.9000771E+02  0.7816164E-02  0.1186339E+00
        -11   -1    0    0    0    0  0.00000000000E+00  0.00000000000E+00  0.45593999997E+02  0.45594000000E+02  0.51100000000E-03 0. -1.
         11   -1    0    0    0    0 -0.00000000000E+00 -0.00000000000E+00 -0.45593999997E+02  0.45594000000E+02  0.51100000000E-03 0.  1.
    9900012    2    1    2    0    0 -0.95657730624E+00  0.25620376838E+00  0.64217799972E+00  0.90007714824E+02  0.89999975860E+02 0.  0.
        -12    1    1    2    0    0  0.95657730624E+00 -0.25620376838E+00 -0.64217799972E+00  0.11802851762E+01  0.00000000000E+00 0.  1.
         11    1    3    3    0    0  0.89610643080E+01 -0.92759629589E+01 -0.60695415933E+00  0.12911721650E+02  0.51100000000E-03 0. -1.
        -11    1    3    3    0    0 -0.63778472574E+01 -0.75842311433E+01 -0.35256031811E+02  0.36622196507E+02  0.51100000000E-03 0.  1.
         12    1    3    3    0    0 -0.35397943568E+01  0.17116397871E+02  0.36505163970E+02  0.40473796667E+02  0.00000000000E+00 0. -1.
</event>
<event>
 7    1  0.4195243E-015  0.9000777E+02  0.7816164E-02  0.1186339E+00
        -11   -1    0    0    0    0  0.00000000000E+00  0.00000000000E+00  0.45593999997E+02  0.45594000000E+02  0.51100000000E-03 0.  1.
         11   -1    0    0    0    0 -0.00000000000E+00 -0.00000000000E+00 -0.45593999997E+02  0.45594000000E+02  0.51100000000E-03 0. -1.
    9900012    2    1    2    0    0  0.28764339004E+00  0.86096575993E+00 -0.75428562881E+00  0.90007768002E+02  0.90000029739E+02 0.  0.
        -12    1    1    2    0    0 -0.28764339004E+00 -0.86096575993E+00  0.75428562881E+00  0.11802319981E+01  0.00000000000E+00 0.  1.
         11    1    3    3    0    0  0.15641034992E+02 -0.38566373287E+02  0.10669058813E+02  0.42963192856E+02  0.51100000000E-03 0. -1.
        -11    1    3    3    0    0  0.19193815854E+01  0.76083739588E+01 -0.71005881778E+01  0.10582520149E+02  0.51100000000E-03 0.  1.
        -12    1    3    3    0    0 -0.17272773188E+02  0.31818965088E+02 -0.43227562637E+01  0.36462054997E+02  0.00000000000E+00 0.  1.
</event>
<event>
 7    1  0.4195243E-015  0.9000767E+02  0.7816164E-02  0.1186339E+00
        -11   -1    0    0    0    0  0.00000000000E+00  0.00000000000E+00  0.45593999997E+02  0.45594000000E+02  0.51100000000E-03 0.  1.
         11   -1    0    0    0    0 -0.00000000000E+00 -0.00000000000E+00 -0.45593999997E+02  0.45594000000E+02  0.51100000000E-03 0. -1.
    9900012    2    1    2    0    0 -0.23515711088E+00  0.15811727031E+00 -0.11458061660E+01  0.90007673050E+02  0.89999933535E+02 0.  0.
        -12    1    1    2    0    0  0.23515711088E+00 -0.15811727031E+00  0.11458061660E+01  0.11803269496E+01  0.00000000000E+00 0.  1.
         11    1    3    3    0    0  0.26429885082E+02  0.23111951310E+02 -0.11481390288E+02  0.36939456439E+02  0.51100000000E-03 0. -1.
        -11    1    3    3    0    0  0.84817473576E+01  0.21111660830E+01  0.28699322202E+00  0.87452516167E+01  0.51100000000E-03 0.  1.
        -12    1    3    3    0    0 -0.35146789551E+02 -0.25065000122E+02  0.10048590900E+02  0.44322964995E+02  0.00000000000E+00 0.  1.
</event>
<event>
 7    1  0.4195243E-015  0.9000784E+02  0.7816164E-02  0.1186339E+00
        -11   -1    0    0    0    0  0.00000000000E+00  0.00000000000E+00  0.45593999997E+02  0.45594000000E+02  0.51100000000E-03 0.  1.
         11   -1    0    0    0    0 -0.00000000000E+00 -0.00000000000E+00 -0.45593999997E+02  0.45594000000E+02  0.51100000000E-03 0. -1.
    9900012    2    1    2    0    0  0.19072296439E-01  0.85225200687E+00 -0.81613620785E+00  0.90007840881E+02  0.90000103581E+02 0.  0.
        -12    1    1    2    0    0 -0.19072296439E-01 -0.85225200687E+00  0.81613620785E+00  0.11801591187E+01  0.00000000000E+00 0.  1.
         11    1    3    3    0    0  0.16636065613E+01  0.45425304851E+01 -0.88229127121E+01  0.10062105097E+02  0.51100000000E-03 0. -1.
        -11    1    3    3    0    0 -0.29746761916E+02 -0.28688657502E+02 -0.72653034134E+00  0.41333240381E+02  0.51100000000E-03 0.  1.
         12    1    3    3    0    0  0.28102227651E+02  0.24998379024E+02  0.87333068456E+01  0.38612495403E+02  0.00000000000E+00 0. -1.
</event>
<event>
 7    1  0.4195243E-015  0.9000785E+02  0.7816164E-02  0.1186339E+00
        -11   -1    0    0    0    0  0.00000000000E+00  0.00000000000E+00  0.45593999997E+02  0.45594000000E+02  0.51100000000E-03 0. -1.
         11   -1    0    0    0    0 -0.00000000000E+00 -0.00000000000E+00 -0.45593999997E+02  0.45594000000E+02  0.51100000000E-03 0.  1.
    9900012    2    1    2    0    0 -0.42771558985E+00  0.79013273236E+00  0.76517753502E+00  0.90007852967E+02  0.90000115826E+02 0.  0.
        -12    1    1    2    0    0  0.42771558985E+00 -0.79013273236E+00 -0.76517753502E+00  0.11801470335E+01  0.00000000000E+00 0.  1.
         11    1    3    3    0    0  0.85920860374E+00  0.11227734107E+02 -0.96583295945E+00  0.11301906307E+02  0.51100000000E-03 0. -1.
        -11    1    3    3    0    0 -0.23225265014E+02 -0.11355227103E+02 -0.30326015316E+02  0.39849985229E+02  0.51100000000E-03 0.  1.
         12    1    3    3    0    0  0.21938340820E+02  0.91762572800E+00  0.32057025811E+02  0.38855961431E+02  0.00000000000E+00 0. -1.
</event>
<event>
 7    1  0.4195243E-015  0.9000774E+02  0.7816164E-02  0.1186339E+00
        -11   -1    0    0    0    0  0.00000000000E+00  0.00000000000E+00  0.45593999997E+02  0.45594000000E+02  0.51100000000E-03 0.  1.
         11   -1    0    0    0    0 -0.00000000000E+00 -0.00000000000E+00 -0.45593999997E+02  0.45594000000E+02  0.51100000000E-03 0. -1.
    9900012    2    1    2    0    0  0.66749527967E+00 -0.37117773444E+00 -0.89983350763E+00  0.90007735962E+02  0.89999997276E+02 0.  0.
        -12    1    1    2    0    0 -0.66749527967E+00  0.37117773444E+00  0.89983350763E+00  0.11802640384E+01  0.00000000000E+00 0.  1.
         11    1    3    3    0    0 -0.37291699421E+02  0.41256493119E+01 -0.21033661999E+02  0.43012867439E+02  0.51100000000E-03 0. -1.
        -11    1    3    3    0    0  0.11357955973E+02 -0.12024156053E+01 -0.27532946462E+01  0.11748599868E+02  0.51100000000E-03 0.  1.
        -12    1    3    3    0    0  0.26601238727E+02 -0.32944114410E+01  0.22887123138E+02  0.35246268655E+02  0.00000000000E+00 0.  1.
</event>
<event>
 7    1  0.4483756E-015  0.9000771E+02  0.7816164E-02  0.1186339E+00
        -11   -1    0    0    0    0  0.00000000000E+00  0.00000000000E+00  0.45593999997E+02  0.45594000000E+02  0.51100000000E-03 0.  1.
         11   -1    0    0    0    0 -0.00000000000E+00 -0.00000000000E+00 -0.45593999997E+02  0.45594000000E+02  0.51100000000E-03 0. -1.
    9900012    2    1    2    0    0 -0.78521355946E+00  0.66297997289E+00 -0.58050636955E+00  0.90007707484E+02  0.89999968423E+02 0.  0.
        -12    1    1    2    0    0  0.78521355946E+00 -0.66297997289E+00  0.58050636955E+00  0.11802925161E+01  0.00000000000E+00 0.  1.
         11    1    3    3    0    0 -0.10711055912E+02  0.27901616264E+02 -0.26690801982E+02  0.40070261037E+02  0.51100000000E-03 0. -1.
        -11    1    3    3    0    0 -0.93936286899E+00  0.65073164189E+01  0.72263363945E+01  0.97697240249E+01  0.51100000000E-03 0.  1.
        -12    1    3    3    0    0  0.10865205222E+02 -0.33745952710E+02  0.18883959218E+02  0.40167722422E+02  0.00000000000E+00 0.  1.
</event>
<event>
 7    1  0.4195243E-015  0.9000776E+02  0.7816164E-02  0.1186339E+00
        -11   -1    0    0    0    0  0.00000000000E+00  0.00000000000E+00  0.45593999997E+02  0.45594000000E+02  0.51100000000E-03 0. -1.
         11   -1    0    0    0    0 -0.00000000000E+00 -0.00000000000E+00 -0.45593999997E+02  0.45594000000E+02  0.51100000000E-03 0.  1.
    9900012    2    1    2    0    0  0.14275877389E+00  0.11078740508E+01  0.38106653362E+00  0.90007755668E+02  0.90000017243E+02 0.  0.
        -12    1    1    2    0    0 -0.14275877389E+00 -0.11078740508E+01 -0.38106653362E+00  0.11802443319E+01  0.00000000000E+00 0.  1.
         11    1    3    3    0    0  0.37533632185E+02 -0.14986463846E+01  0.53693795599E+01  0.37945351799E+02  0.51100000000E-03 0. -1.
        -11    1    3    3    0    0  0.50055449238E+01  0.25466937350E+01  0.60475872174E+01  0.82531473013E+01  0.51100000000E-03 0.  1.
        -12    1    3    3    0    0 -0.42396418335E+02  0.59826700488E-01 -0.11035900244E+02  0.43809256568E+02  0.00000000000E+00 0.  1.
</event>
<event>
 7    1  0.4195243E-015  0.9000778E+02  0.7816164E-02  0.1186339E+00
        -11   -1    0    0    0    0  0.00000000000E+00  0.00000000000E+00  0.45593999997E+02  0.45594000000E+02  0.51100000000E-03 0. -1.
         11   -1    0    0    0    0 -0.00000000000E+00 -0.00000000000E+00 -0.45593999997E+02  0.45594000000E+02  0.51100000000E-03 0.  1.
    9900012    2    1    2    0    0  0.37031351407E+00 -0.99351605600E+00  0.51838411941E+00  0.90007776145E+02  0.90000037990E+02 0.  0.
        -12    1    1    2    0    0 -0.37031351407E+00  0.99351605600E+00 -0.51838411941E+00  0.11802238548E+01  0.00000000000E+00 0.  1.
         11    1    3    3    0    0  0.29749946755E+02 -0.17700638782E+02 -0.18611520664E+02  0.39303443194E+02  0.51100000000E-03 0. -1.
        -11    1    3    3    0    0  0.37857801831E+01 -0.42958594250E+01  0.81151131651E+01  0.99318478511E+01  0.51100000000E-03 0.  1.
        -12    1    3    3    0    0 -0.33165413424E+02  0.21002982151E+02  0.11014791618E+02  0.40772485100E+02  0.00000000000E+00 0.  1.
</event>
<event>
 7    1  0.4195243E-015  0.9000769E+02  0.7816164E-02  0.1186339E+00
        -11   -1    0    0    0    0  0.00000000000E+00  0.00000000000E+00  0.45593999997E+02  0.45594000000E+02  0.51100000000E-03 0. -1.
         11   -1    0    0    0    0 -0.00000000000E+00 -0.00000000000E+00 -0.45593999997E+02  0.45594000000E+02  0.51100000000E-03 0.  1.
    9900012    2    1    2    0    0  0.94415809677E+00 -0.17245290357E+00  0.68699204587E+00  0.90007689623E+02  0.89999950326E+02 0.  0.
        -12    1    1    2    0    0 -0.94415809677E+00  0.17245290357E+00 -0.68699204587E+00  0.11803103773E+01  0.00000000000E+00 0.  1.
         11    1    3    3    0    0  0.19747954094E+01  0.94756787232E+01 -0.13876315134E+01  0.97782322356E+01  0.51100000000E-03 0. -1.
        -11    1    3    3    0    0 -0.11209302112E+02 -0.16412783592E+02 -0.35517601770E+02  0.40700466273E+02  0.51100000000E-03 0.  1.
         12    1    3    3    0    0  0.10178664799E+02  0.67646519653E+01  0.37592225329E+02  0.39528991114E+02  0.00000000000E+00 0. -1.
</event>
<event>
 7    1  0.5404190E-015  0.9000779E+02  0.7816164E-02  0.1186339E+00
        -11   -1    0    0    0    0  0.00000000000E+00  0.00000000000E+00  0.45593999997E+02  0.45594000000E+02  0.51100000000E-03 0. -1.
         11   -1    0    0    0    0 -0.00000000000E+00 -0.00000000000E+00 -0.45593999997E+02  0.45594000000E+02  0.51100000000E-03 0.  1.
    9900012    2    1    2    0    0 -0.18530378129E+00 -0.53697008380E-01  0.11643373154E+01  0.90007787204E+02  0.90000049195E+02 0.  0.
        -12    1    1    2    0    0  0.18530378129E+00  0.53697008380E-01 -0.11643373154E+01  0.11802127961E+01  0.00000000000E+00 0.  1.
         11    1    3    3    0    0  0.14821144451E+01 -0.15319118117E+02  0.38223079503E+02  0.41205289103E+02  0.51100000000E-03 0. -1.
        -11    1    3    3    0    0  0.34511784539E+01  0.88304091664E+01  0.13025148282E+01  0.95699166091E+01  0.51100000000E-03 0.  1.
        -12    1    3    3    0    0 -0.51185966803E+01  0.64350119421E+01 -0.38361257016E+02  0.39232581492E+02  0.00000000000E+00 0.  1.
</event>
<event>
 7    1  0.4195243E-015  0.9000717E+02  0.7816164E-02  0.1186340E+00
        -11   -1    0    0    0    0  0.00000000000E+00  0.00000000000E+00  0.45593999997E+02  0.45594000000E+02  0.51100000000E-03 0. -1.
         11   -1    0    0    0    0 -0.00000000000E+00 -0.00000000000E+00 -0.45593999997E+02  0.45594000000E+02  0.51100000000E-03 0.  1.
    9900012    2    1    2    0    0  0.33529492232E+00 -0.74058115271E+00  0.85643655426E+00  0.90007166947E+02  0.89999420748E+02 0.  0.
        -12    1    1    2    0    0 -0.33529492232E+00  0.74058115271E+00 -0.85643655426E+00  0.11808330535E+01  0.00000000000E+00 0.  1.
         11    1    3    3    0    0  0.11765877626E+02 -0.31094687562E+02  0.10007381321E+02  0.34719780415E+02  0.51100000000E-03 0. -1.
        -11    1    3    3    0    0  0.52762801946E+01 -0.91650627158E+01  0.24206440463E+01  0.10848825980E+02  0.51100000000E-03 0.  1.
        -12    1    3    3    0    0 -0.16706862898E+02  0.39519169125E+02 -0.11571588814E+02  0.44438560552E+02  0.00000000000E+00 0.  1.
</event>
<event>
 7    1  0.4195243E-015  0.9000772E+02  0.7816164E-02  0.1186339E+00
        -11   -1    0    0    0    0  0.00000000000E+00  0.00000000000E+00  0.45593999997E+02  0.45594000000E+02  0.51100000000E-03 0.  1.
         11   -1    0    0    0    0 -0.00000000000E+00 -0.00000000000E+00 -0.45593999997E+02  0.45594000000E+02  0.51100000000E-03 0. -1.
    9900012    2    1    2    0    0  0.87624085807E+00  0.69721018937E+00 -0.37303366741E+00  0.90007722826E+02  0.89999983968E+02 0.  0.
        -12    1    1    2    0    0 -0.87624085807E+00 -0.69721018937E+00  0.37303366741E+00  0.11802771736E+01  0.00000000000E+00 0.  1.
         11    1    3    3    0    0  0.11931388999E+01 -0.14032719114E+01 -0.86282891737E+01  0.88227051870E+01  0.51100000000E-03 0. -1.
        -11    1    3    3    0    0 -0.25291461561E+02 -0.27125948084E+02  0.18434943091E+02  0.41416448597E+02  0.51100000000E-03 0.  1.
         12    1    3    3    0    0  0.24974563520E+02  0.29226430185E+02 -0.10179687585E+02  0.39768569042E+02  0.00000000000E+00 0. -1.
</event>
<event>
 7    1  0.4195243E-015  0.9000774E+02  0.7816164E-02  0.1186339E+00
        -11   -1    0    0    0    0  0.00000000000E+00  0.00000000000E+00  0.45593999997E+02  0.45594000000E+02  0.51100000000E-03 0. -1.
         11   -1    0    0    0    0 -0.00000000000E+00 -0.00000000000E+00 -0.45593999997E+02  0.45594000000E+02  0.51100000000E-03 0.  1.
    9900012    2    1    2    0    0  0.68229576873E+00  0.60759907433E+00  0.74720547427E+00  0.90007737245E+02  0.89999998576E+02 0.  0.
        -12    1    1    2    0    0 -0.68229576873E+00 -0.60759907433E+00 -0.74720547427E+00  0.11802627555E+01  0.00000000000E+00 0.  1.
         11    1    3    3    0    0 -0.15639788258E+01 -0.86789150320E+01  0.44380536115E+01  0.98724827688E+01  0.51100000000E-03 0. -1.
        -11    1    3    3    0    0  0.23545909681E+02 -0.24681410064E+02 -0.16705429407E+02  0.37982275306E+02  0.51100000000E-03 0.  1.
         12    1    3    3    0    0 -0.21299635087E+02  0.33967924171E+02  0.13014581270E+02  0.42152979170E+02  0.00000000000E+00 0. -1.
</event>
<event>
 7    1  0.4195243E-015  0.9000779E+02  0.7816164E-02  0.1186339E+00
        -11   -1    0    0    0    0  0.00000000000E+00  0.00000000000E+00  0.45593999997E+02  0.45594000000E+02  0.51100000000E-03 0. -1.
         11   -1    0    0    0    0 -0.00000000000E+00 -0.00000000000E+00 -0.45593999997E+02  0.45594000000E+02  0.51100000000E-03 0.  1.
    9900012    2    1    2    0    0 -0.57328225693E+00 -0.96079871967E+00 -0.37565845854E+00  0.90007785611E+02  0.90000047581E+02 0.  0.
        -12    1    1    2    0    0  0.57328225693E+00  0.96079871967E+00  0.37565845854E+00  0.11802143887E+01  0.00000000000E+00 0.  1.
         11    1    3    3    0    0  0.15894318111E+02  0.11030261658E+02  0.31575443750E+02  0.37031131075E+02  0.51100000000E-03 0. -1.
        -11    1    3    3    0    0 -0.94017049293E+01 -0.72091115701E+01  0.65527130709E+01  0.13538884520E+02  0.51100000000E-03 0.  1.
        -12    1    3    3    0    0 -0.70658954387E+01 -0.47819488077E+01 -0.38503815279E+02  0.39437770016E+02  0.00000000000E+00 0.  1.
</event>
<event>
 7    1  0.4195243E-015  0.9000768E+02  0.7816164E-02  0.1186339E+00
        -11   -1    0    0    0    0  0.00000000000E+00  0.00000000000E+00  0.45593999997E+02  0.45594000000E+02  0.51100000000E-03 0. -1.
         11   -1    0    0    0    0 -0.00000000000E+00 -0.00000000000E+00 -0.45593999997E+02  0.45594000000E+02  0.51100000000E-03 0.  1.
    9900012    2    1    2    0    0 -0.50950008248E+00 -0.32310660656E+00  0.10144750621E+01  0.90007683151E+02  0.89999943768E+02 0.  0.
        -12    1    1    2    0    0  0.50950008248E+00  0.32310660656E+00 -0.10144750621E+01  0.11803168493E+01  0.00000000000E+00 0.  1.
         11    1    3    3    0    0 -0.23445756321E+01  0.32034150776E+01  0.10578499827E+02  0.11298830112E+02  0.51100000000E-03 0. -1.
        -11    1    3    3    0    0 -0.31934400608E+02 -0.16813318955E+02 -0.19584450467E+02  0.41061470222E+02  0.51100000000E-03 0.  1.
         12    1    3    3    0    0  0.33769476157E+02  0.13286797271E+02  0.10020425702E+02  0.37647382816E+02  0.00000000000E+00 0. -1.
</event>
<event>
 7    1  0.4195243E-015  0.9000787E+02  0.7816164E-02  0.1186339E+00
        -11   -1    0    0    0    0  0.00000000000E+00  0.00000000000E+00  0.45593999997E+02  0.45594000000E+02  0.51100000000E-03 0. -1.
         11   -1    0    0    0    0 -0.00000000000E+00 -0.00000000000E+00 -0.45593999997E+02  0.45594000000E+02  0.51100000000E-03 0.  1.
    9900012    2    1    2    0    0 -0.10013668080E+01  0.32487880653E+00  0.53331258722E+00  0.90007871177E+02  0.90000134276E+02 0.  0.
        -12    1    1    2    0    0  0.10013668080E+01 -0.32487880653E+00 -0.53331258722E+00  0.11801288230E+01  0.00000000000E+00 0.  1.
         11    1    3    3    0    0 -0.21553720729E+02  0.34437698757E+02  0.60964270596E+01  0.41081436149E+02  0.51100000000E-03 0. -1.
        -11    1    3    3    0    0  0.26187250387E+01 -0.81988780758E-01 -0.98767025813E+01  0.10218302067E+02  0.51100000000E-03 0.  1.
        -12    1    3    3    0    0  0.17933628882E+02 -0.34030831170E+02  0.43135881090E+01  0.38708132961E+02  0.00000000000E+00 0.  1.
</event>
<event>
 7    1  0.4563421E-015  0.9000774E+02  0.7816164E-02  0.1186339E+00
        -11   -1    0    0    0    0  0.00000000000E+00  0.00000000000E+00  0.45593999997E+02  0.45594000000E+02  0.51100000000E-03 0. -1.
         11   -1    0    0    0    0 -0.00000000000E+00 -0.00000000000E+00 -0.45593999997E+02  0.45594000000E+02  0.51100000000E-03 0.  1.
    9900012    2    1    2    0    0 -0.80907767324E+00  0.48456618817E+00  0.70964436989E+00  0.90007743162E+02  0.90000004572E+02 0.  0.
        -12    1    1    2    0    0  0.80907767324E+00 -0.48456618817E+00 -0.70964436989E+00  0.11802568381E+01  0.00000000000E+00 0.  1.
         11    1    3    3    0    0  0.15180422928E+02 -0.23879796823E+02  0.31648415057E+02  0.42453646633E+02  0.51100000000E-03 0. -1.
        -11    1    3    3    0    0 -0.26253604547E+01  0.91204890581E+01  0.11890073608E+01  0.95650183973E+01  0.51100000000E-03 0.  1.
        -12    1    3    3    0    0 -0.13364140147E+02  0.15243873953E+02 -0.32127778048E+02  0.37989078131E+02  0.00000000000E+00 0.  1.
</event>
<event>
 7    1  0.4195243E-015  0.9000773E+02  0.7816164E-02  0.1186339E+00
        -11   -1    0    0    0    0  0.00000000000E+00  0.00000000000E+00  0.45593999997E+02  0.45594000000E+02  0.51100000000E-03 0.  1.
         11   -1    0    0    0    0 -0.00000000000E+00 -0.00000000000E+00 -0.45593999997E+02  0.45594000000E+02  0.51100000000E-03 0. -1.
    9900012    2    1    2    0    0  0.70382611814E+00 -0.80925204353E+00  0.49272899338E+00  0.90007728025E+02  0.89999989235E+02 0.  0.
        -12    1    1    2    0    0 -0.70382611814E+00  0.80925204353E+00 -0.49272899338E+00  0.11802719752E+01  0.00000000000E+00 0.  1.
         11    1    3    3    0    0 -0.67370593504E+01  0.79332217753E+01 -0.47462568395E+00  0.10418696954E+02  0.51100000000E-03 0. -1.
        -11    1    3    3    0    0 -0.30127209317E+02  0.14565726909E+02  0.90029712911E+01  0.34653464963E+02  0.51100000000E-03 0.  1.
         12    1    3    3    0    0  0.37568094786E+02 -0.23308200728E+02 -0.80356166138E+01  0.44935566107E+02  0.00000000000E+00 0. -1.
</event>
<event>
 7    1  0.4195243E-015  0.9000770E+02  0.7816164E-02  0.1186339E+00
        -11   -1    0    0    0    0  0.00000000000E+00  0.00000000000E+00  0.45593999997E+02  0.45594000000E+02  0.51100000000E-03 0.  1.
         11   -1    0    0    0    0 -0.00000000000E+00 -0.00000000000E+00 -0.45593999997E+02  0.45594000000E+02  0.51100000000E-03 0. -1.
    9900012    2    1    2    0    0 -0.41295984027E+00 -0.90675665856E+00  0.63274769784E+00  0.90007697871E+02  0.89999958682E+02 0.  0.
        -12    1    1    2    0    0  0.41295984027E+00  0.90675665856E+00 -0.63274769784E+00  0.11803021294E+01  0.00000000000E+00 0.  1.
         11    1    3    3    0    0  0.15206004008E+02  0.32244144100E+02 -0.28274385353E+00  0.35650909259E+02  0.51100000000E-03 0. -1.
        -11    1    3    3    0    0  0.13217064426E+01  0.89071173259E+01 -0.53619403584E-01  0.90048055104E+01  0.51100000000E-03 0.  1.
        -12    1    3    3    0    0 -0.16940670291E+02 -0.42058018085E+02  0.96911095496E+00  0.45351983101E+02  0.00000000000E+00 0.  1.
</event>
<event>
 7    1  0.4195243E-015  0.9000770E+02  0.7816164E-02  0.1186339E+00
        -11   -1    0    0    0    0  0.00000000000E+00  0.00000000000E+00  0.45593999997E+02  0.45594000000E+02  0.51100000000E-03 0.  1.
         11   -1    0    0    0    0 -0.00000000000E+00 -0.00000000000E+00 -0.45593999997E+02  0.45594000000E+02  0.51100000000E-03 0. -1.
    9900012    2    1    2    0    0 -0.89919072441E+00  0.76127948849E+00 -0.70830647677E-01  0.90007700293E+02  0.89999961137E+02 0.  0.
        -12    1    1    2    0    0  0.89919072441E+00 -0.76127948849E+00  0.70830647677E-01  0.11802997073E+01  0.00000000000E+00 0.  1.
         11    1    3    3    0    0  0.95369356771E+01  0.49618826515E+01 -0.30910559109E+01  0.11186064923E+02  0.51100000000E-03 0. -1.
        -11    1    3    3    0    0  0.13685636657E+02 -0.23507186073E+02  0.28039482697E+02  0.39065291986E+02  0.51100000000E-03 0.  1.
         12    1    3    3    0    0 -0.24121763058E+02  0.19306582910E+02 -0.25019257433E+02  0.39756343384E+02  0.00000000000E+00 0. -1.
</event>
<event>
 7    1  0.4195243E-015  0.9000749E+02  0.7816164E-02  0.1186340E+00
        -11   -1    0    0    0    0  0.00000000000E+00  0.00000000000E+00  0.45593999997E+02  0.45594000000E+02  0.51100000000E-03 0.  1.
         11   -1    0    0    0    0 -0.00000000000E+00 -0.00000000000E+00 -0.45593999997E+02  0.45594000000E+02  0.51100000000E-03 0. -1.
    9900012    2    1    2    0    0 -0.10646869155E+01 -0.45561155939E+00 -0.22902444557E+00  0.90007494889E+02  0.89999753021E+02 0.  0.
        -12    1    1    2    0    0  0.10646869155E+01  0.45561155939E+00  0.22902444557E+00  0.11805051113E+01  0.00000000000E+00 0.  1.
         11    1    3    3    0    0 -0.46293594782E+00 -0.92767767053E+01 -0.11956774736E+01  0.93649634604E+01  0.51100000000E-03 0. -1.
        -11    1    3    3    0    0 -0.25520988185E+02  0.28230180915E+02  0.20776748616E+02  0.43358242997E+02  0.51100000000E-03 0.  1.
         12    1    3    3    0    0  0.24919237217E+02 -0.19409015769E+02 -0.19810095588E+02  0.37284288432E+02  0.00000000000E+00 0. -1.
</event>
<event>
 7    1  0.4195243E-015  0.9000776E+02  0.7816164E-02  0.1186339E+00
        -11   -1    0    0    0    0  0.00000000000E+00  0.00000000000E+00  0.45593999997E+02  0.45594000000E+02  0.51100000000E-03 0.  1.
         11   -1    0    0    0    0 -0.00000000000E+00 -0.00000000000E+00 -0.45593999997E+02  0.45594000000E+02  0.51100000000E-03 0. -1.
    9900012    2    1    2    0    0 -0.91337007498E+00 -0.47015920689E+00 -0.58109920529E+00  0.90007758135E+02  0.90000019742E+02 0.  0.
        -12    1    1    2    0    0  0.91337007498E+00  0.47015920689E+00  0.58109920529E+00  0.11802418651E+01  0.00000000000E+00 0.  1.
         11    1    3    3    0    0 -0.20210369618E+02  0.55550363982E+01 -0.28811800177E+02  0.35629163605E+02  0.51100000000E-03 0. -1.
        -11    1    3    3    0    0 -0.34284083612E+01  0.10758045258E+02 -0.35694477818E+01  0.11841895093E+02  0.51100000000E-03 0.  1.
        -12    1    3    3    0    0  0.22725407904E+02 -0.16783240863E+02  0.31800148753E+02  0.42536699437E+02  0.00000000000E+00 0.  1.
</event>
<event>
 7    1  0.4195243E-015  0.9000777E+02  0.7816164E-02  0.1186339E+00
        -11   -1    0    0    0    0  0.00000000000E+00  0.00000000000E+00  0.45593999997E+02  0.45594000000E+02  0.51100000000E-03 0.  1.
         11   -1    0    0    0    0 -0.00000000000E+00 -0.00000000000E+00 -0.45593999997E+02  0.45594000000E+02  0.51100000000E-03 0. -1.
    9900012    2    1    2    0    0 -0.73468042107E+00 -0.70671128063E+00  0.59476195943E+00  0.90007772080E+02  0.90000033871E+02 0.  0.
        -12    1    1    2    0    0  0.73468042107E+00  0.70671128063E+00 -0.59476195943E+00  0.11802279202E+01  0.00000000000E+00 0.  1.
         11    1    3    3    0    0  0.10235107725E+01  0.98809922933E+01  0.10814496989E+02  0.14684513216E+02  0.51100000000E-03 0. -1.
        -11    1    3    3    0    0  0.62941734162E+00  0.26839581981E+02  0.14395908786E+02  0.30463117324E+02  0.51100000000E-03 0.  1.
         12    1    3    3    0    0 -0.23876085352E+01 -0.37427285555E+02 -0.24615643815E+02  0.44860141540E+02  0.00000000000E+00 0. -1.
</event>
<event>
 8    1  0.4195243E-015  0.9000759E+02  0.7816164E-02  0.1186339E+00
        -11   -1    0    0    0    0  0.00000000000E+00  0.00000000000E+00  0.45593999997E+02  0.45594000000E+02  0.51100000000E-03 0.  1.
         11   -1    0    0    0    0 -0.00000000000E+00 -0.00000000000E+00 -0.45593999997E+02  0.45594000000E+02  0.51100000000E-03 0. -1.
    9900012    2    1    2    0    0 -0.10561779184E+01  0.12160264043E+00 -0.51290299337E+00  0.90007589699E+02  0.89999849083E+02 0.  0.
         23    2    3    3    0    0 -0.96868233086E+01 -0.25660003469E+02 -0.66150250902E+01  0.62143362678E+02  0.55369383635E+02 0.  0.
        -12    1    1    2    0    0  0.10561779184E+01 -0.12160264043E+00  0.51290299337E+00  0.11804103007E+01  0.00000000000E+00 0.  1.
         11    1    4    4    0    0  0.25876599852E+00 -0.35380118317E+02  0.13346985630E+02  0.37814835152E+02  0.51100000000E-03 0. -1.
        -11    1    4    4    0    0 -0.99455893072E+01  0.97201148478E+01 -0.19962010720E+02  0.24328527526E+02  0.51100000000E-03 0.  1.
        -12    1    3    3    0    0  0.86306453902E+01  0.25781606109E+02  0.61021220968E+01  0.27864227021E+02  0.00000000000E+00 0.  1.
</event>
<event>
 7    1  0.4195243E-015  0.9000811E+02  0.7816164E-02  0.1186338E+00
        -11   -1    0    0    0    0  0.00000000000E+00  0.00000000000E+00  0.45593999997E+02  0.45594000000E+02  0.51100000000E-03 0.  1.
         11   -1    0    0    0    0 -0.00000000000E+00 -0.00000000000E+00 -0.45593999997E+02  0.45594000000E+02  0.51100000000E-03 0. -1.
    9900012    2    1    2    0    0 -0.33287129671E+00  0.10477563794E+01 -0.42843172029E+00  0.90008105738E+02  0.90000371933E+02 0.  0.
        -12    1    1    2    0    0  0.33287129671E+00 -0.10477563794E+01  0.42843172029E+00  0.11798942621E+01  0.00000000000E+00 0.  1.
         11    1    3    3    0    0  0.70880317868E+01 -0.31985243522E+02 -0.11672848904E+02  0.34778605487E+02  0.51100000000E-03 0. -1.
        -11    1    3    3    0    0 -0.16156075825E+01 -0.98750024524E+01  0.58629654836E+01  0.11597423241E+02  0.51100000000E-03 0.  1.
        -12    1    3    3    0    0 -0.58052955010E+01  0.42908002354E+02  0.53814517000E+01  0.43632077011E+02  0.00000000000E+00 0.  1.
</event>
<event>
 7    1  0.4195243E-015  0.9000767E+02  0.7816164E-02  0.1186339E+00
        -11   -1    0    0    0    0  0.00000000000E+00  0.00000000000E+00  0.45593999997E+02  0.45594000000E+02  0.51100000000E-03 0.  1.
         11   -1    0    0    0    0 -0.00000000000E+00 -0.00000000000E+00 -0.45593999997E+02  0.45594000000E+02  0.51100000000E-03 0. -1.
    9900012    2    1    2    0    0  0.24959430994E-01 -0.32016445802E+00 -0.11357998803E+01  0.90007673934E+02  0.89999934430E+02 0.  0.
        -12    1    1    2    0    0 -0.24959430994E-01  0.32016445802E+00  0.11357998803E+01  0.11803260657E+01  0.00000000000E+00 0.  1.
         11    1    3    3    0    0  0.40902443928E+01 -0.69609622520E+01  0.49492780926E+01  0.94699761650E+01  0.51100000000E-03 0. -1.
        -11    1    3    3    0    0 -0.38714087203E+02 -0.94012778048E+01 -0.12641039501E+02  0.41796655994E+02  0.51100000000E-03 0.  1.
         12    1    3    3    0    0  0.34648802241E+02  0.16042075599E+02  0.65559615279E+01  0.38741041775E+02  0.00000000000E+00 0. -1.
</event>
<event>
 7    1  0.4195243E-015  0.9000775E+02  0.7816164E-02  0.1186339E+00
        -11   -1    0    0    0    0  0.00000000000E+00  0.00000000000E+00  0.45593999997E+02  0.45594000000E+02  0.51100000000E-03 0. -1.
         11   -1    0    0    0    0 -0.00000000000E+00 -0.00000000000E+00 -0.45593999997E+02  0.45594000000E+02  0.51100000000E-03 0.  1.
    9900012    2    1    2    0    0  0.25083115959E+00  0.84217317975E+00  0.78792505436E+00  0.90007746711E+02  0.90000008167E+02 0.  0.
        -12    1    1    2    0    0 -0.25083115959E+00 -0.84217317975E+00 -0.78792505436E+00  0.11802532892E+01  0.00000000000E+00 0.  1.
         11    1    3    3    0    0 -0.25809508199E+01 -0.11042614633E+01 -0.91053427458E+01  0.95282719993E+01  0.51100000000E-03 0. -1.
        -11    1    3    3    0    0  0.36891071066E+02 -0.20218730514E+01  0.23280157205E+02  0.43669266250E+02  0.51100000000E-03 0.  1.
         12    1    3    3    0    0 -0.34059289087E+02  0.39683076945E+01 -0.13386889405E+02  0.36810208462E+02  0.00000000000E+00 0. -1.
</event>
<event>
 7    1  0.4195243E-015  0.9000780E+02  0.7816164E-02  0.1186339E+00
        -11   -1    0    0    0    0  0.00000000000E+00  0.00000000000E+00  0.45593999997E+02  0.45594000000E+02  0.51100000000E-03 0. -1.
         11   -1    0    0    0    0 -0.00000000000E+00 -0.00000000000E+00 -0.45593999997E+02  0.45594000000E+02  0.51100000000E-03 0.  1.
    9900012    2    1    2    0    0 -0.68266623591E+00 -0.75793191411E+00 -0.59362171240E+00  0.90007796325E+02  0.90000058437E+02 0.  0.
        -12    1    1    2    0    0  0.68266623591E+00  0.75793191411E+00  0.59362171240E+00  0.11802036746E+01  0.00000000000E+00 0.  1.
         11    1    3    3    0    0  0.26707821119E+02 -0.23123247121E+02  0.21447539033E+02  0.41327825943E+02  0.51100000000E-03 0. -1.
        -11    1    3    3    0    0  0.30061124385E+01 -0.19692242069E+01 -0.50466646036E+01  0.61954321764E+01  0.51100000000E-03 0.  1.
        -12    1    3    3    0    0 -0.30396599793E+02  0.24334539414E+02 -0.16994496141E+02  0.42484538206E+02  0.00000000000E+00 0.  1.
</event>
<event>
 7    1  0.4195243E-015  0.9000898E+02  0.7816164E-02  0.1186337E+00
        -11   -1    0    0    0    0  0.00000000000E+00  0.00000000000E+00  0.45593999997E+02  0.45594000000E+02  0.51100000000E-03 0. -1.
         11   -1    0    0    0    0 -0.00000000000E+00 -0.00000000000E+00 -0.45593999997E+02  0.45594000000E+02  0.51100000000E-03 0.  1.
    9900012    2    1    2    0    0 -0.84857061280E+00  0.61228933194E+00  0.54325292974E+00  0.90008977500E+02  0.90001255194E+02 0.  0.
        -12    1    1    2    0    0  0.84857061280E+00 -0.61228933194E+00 -0.54325292974E+00  0.11790225005E+01  0.00000000000E+00 0.  1.
         11    1    3    3    0    0  0.76195005972E+01  0.46924528012E+01 -0.61804330437E+01  0.10875369213E+02  0.51100000000E-03 0. -1.
        -11    1    3    3    0    0  0.25256722011E+02  0.21842263033E+02  0.13582013718E+02  0.36047989653E+02  0.51100000000E-03 0.  1.
         12    1    3    3    0    0 -0.33724793221E+02 -0.25922426503E+02 -0.68583277446E+01  0.43085618633E+02  0.00000000000E+00 0. -1.
</event>
<event>
 7    1  0.4195243E-015  0.9000780E+02  0.7816164E-02  0.1186339E+00
        -11   -1    0    0    0    0  0.00000000000E+00  0.00000000000E+00  0.45593999997E+02  0.45594000000E+02  0.51100000000E-03 0.  1.
         11   -1    0    0    0    0 -0.00000000000E+00 -0.00000000000E+00 -0.45593999997E+02  0.45594000000E+02  0.51100000000E-03 0. -1.
    9900012    2    1    2    0    0  0.77913608692E+00  0.58666681290E+00 -0.66455452944E+00  0.90007803527E+02  0.90000065734E+02 0.  0.
        -12    1    1    2    0    0 -0.77913608692E+00 -0.58666681290E+00  0.66455452944E+00  0.11801964726E+01  0.00000000000E+00 0.  1.
         11    1    3    3    0    0 -0.32054349793E+01 -0.45936448769E+01  0.63713423005E+01  0.84835363872E+01  0.51100000000E-03 0. -1.
        -11    1    3    3    0    0 -0.24003024357E+02 -0.25697690348E+02  0.99136837112E+01  0.36534881859E+02  0.51100000000E-03 0.  1.
         12    1    3    3    0    0  0.27987595423E+02  0.30878002037E+02 -0.16949580541E+02  0.44989385281E+02  0.00000000000E+00 0. -1.
</event>
<event>
 7    1  0.4195243E-015  0.9000775E+02  0.7816164E-02  0.1186339E+00
        -11   -1    0    0    0    0  0.00000000000E+00  0.00000000000E+00  0.45593999997E+02  0.45594000000E+02  0.51100000000E-03 0. -1.
         11   -1    0    0    0    0 -0.00000000000E+00 -0.00000000000E+00 -0.45593999997E+02  0.45594000000E+02  0.51100000000E-03 0.  1.
    9900012    2    1    2    0    0 -0.11077110317E+01 -0.40362807808E+00 -0.55203160669E-01  0.90007751406E+02  0.90000012924E+02 0.  0.
        -12    1    1    2    0    0  0.11077110317E+01  0.40362807808E+00  0.55203160669E-01  0.11802485942E+01  0.00000000000E+00 0.  1.
         11    1    3    3    0    0 -0.58010397737E+01 -0.38458451709E+00  0.77234885943E+01  0.96670700853E+01  0.51100000000E-03 0. -1.
        -11    1    3    3    0    0 -0.33900473780E+02  0.47360027530E+01 -0.19919575720E+02  0.39603804636E+02  0.51100000000E-03 0.  1.
         12    1    3    3    0    0  0.38593802522E+02 -0.47550463140E+01  0.12140883965E+02  0.40736876684E+02  0.00000000000E+00 0. -1.
</event>
<event>
 7    1  0.4195243E-015  0.9000774E+02  0.7816164E-02  0.1186339E+00
        -11   -1    0    0    0    0  0.00000000000E+00  0.00000000000E+00  0.45593999997E+02  0.45594000000E+02  0.51100000000E-03 0.  1.
         11   -1    0    0    0    0 -0.00000000000E+00 -0.00000000000E+00 -0.45593999997E+02  0.45594000000E+02  0.51100000000E-03 0. -1.
    9900012    2    1    2    0    0  0.78728472438E+00  0.58587519268E+00 -0.65569674538E+00  0.90007743587E+02  0.90000005002E+02 0.  0.
        -12    1    1    2    0    0 -0.78728472438E+00 -0.58587519268E+00  0.65569674538E+00  0.11802564130E+01  0.00000000000E+00 0.  1.
         11    1    3    3    0    0 -0.87072834441E+01 -0.52127498360E+01  0.15148601110E+01  0.10260816110E+02  0.51100000000E-03 0. -1.
        -11    1    3    3    0    0  0.12034467638E+02 -0.13343553514E+02 -0.36316733868E+02  0.40518933733E+02  0.51100000000E-03 0.  1.
         12    1    3    3    0    0 -0.25398994699E+01  0.19142178543E+02  0.34146177012E+02  0.39227993744E+02  0.00000000000E+00 0. -1.
</event>
<event>
 7    1  0.4195243E-015  0.9000764E+02  0.7816164E-02  0.1186339E+00
        -11   -1    0    0    0    0  0.00000000000E+00  0.00000000000E+00  0.45593999997E+02  0.45594000000E+02  0.51100000000E-03 0.  1.
         11   -1    0    0    0    0 -0.00000000000E+00 -0.00000000000E+00 -0.45593999997E+02  0.45594000000E+02  0.51100000000E-03 0. -1.
    9900012    2    1    2    0    0  0.91762406125E+00  0.71812610940E+00 -0.18844374522E+00  0.90007639855E+02  0.89999899901E+02 0.  0.
        -12    1    1    2    0    0 -0.91762406125E+00 -0.71812610940E+00  0.18844374522E+00  0.11803601450E+01  0.00000000000E+00 0.  1.
         11    1    3    3    0    0 -0.37503469994E+01 -0.46831550018E+01  0.60442993063E+01  0.85164897553E+01  0.51100000000E-03 0. -1.
        -11    1    3    3    0    0 -0.13505248649E+02 -0.11377078899E+02  0.31653341102E+02  0.36245877952E+02  0.51100000000E-03 0.  1.
         12    1    3    3    0    0  0.18173219709E+02  0.16778360010E+02 -0.37886084154E+02  0.45245272148E+02  0.00000000000E+00 0. -1.
</event>
<event>
 7    1  0.4195243E-015  0.9000766E+02  0.7816164E-02  0.1186339E+00
        -11   -1    0    0    0    0  0.00000000000E+00  0.00000000000E+00  0.45593999997E+02  0.45594000000E+02  0.51100000000E-03 0.  1.
         11   -1    0    0    0    0 -0.00000000000E+00 -0.00000000000E+00 -0.45593999997E+02  0.45594000000E+02  0.51100000000E-03 0. -1.
    9900012    2    1    2    0    0  0.11047100350E+01  0.37704125778E+00  0.17509300730E+00  0.90007660247E+02  0.89999920562E+02 0.  0.
        -12    1    1    2    0    0 -0.11047100350E+01 -0.37704125778E+00 -0.17509300730E+00  0.11803397531E+01  0.00000000000E+00 0.  1.
         11    1    3    3    0    0 -0.12336136355E+00  0.38644380439E+02 -0.19094522099E+02  0.43104572054E+02  0.51100000000E-03 0. -1.
        -11    1    3    3    0    0 -0.23813486133E+01 -0.78922818017E+01 -0.33097908561E+01  0.88833354675E+01  0.51100000000E-03 0.  1.
        -12    1    3    3    0    0  0.36094200119E+01 -0.30375057379E+02  0.22579405963E+02  0.38019752725E+02  0.00000000000E+00 0.  1.
</event>
<event>
 7    1  0.4195243E-015  0.9000713E+02  0.7816164E-02  0.1186340E+00
        -11   -1    0    0    0    0  0.00000000000E+00  0.00000000000E+00  0.45593999997E+02  0.45594000000E+02  0.51100000000E-03 0. -1.
         11   -1    0    0    0    0 -0.00000000000E+00 -0.00000000000E+00 -0.45593999997E+02  0.45594000000E+02  0.51100000000E-03 0.  1.
    9900012    2    1    2    0    0  0.63923896350E+00  0.41605519543E+00  0.90151090775E+00  0.90007131551E+02  0.89999384885E+02 0.  0.
        -12    1    1    2    0    0 -0.63923896350E+00 -0.41605519543E+00 -0.90151090775E+00  0.11808684494E+01  0.00000000000E+00 0.  1.
         11    1    3    3    0    0  0.10125953628E+02 -0.36271920701E+01  0.53318401050E+00  0.10769203528E+02  0.51100000000E-03 0. -1.
        -11    1    3    3    0    0  0.12773352858E+02 -0.10598994687E+02 -0.32759786385E+02  0.36724662502E+02  0.51100000000E-03 0.  1.
         12    1    3    3    0    0 -0.22260067523E+02  0.14642241953E+02  0.33128113283E+02  0.42513265520E+02  0.00000000000E+00 0. -1.
</event>
<event>
 7    1  0.4195243E-015  0.9000775E+02  0.7816164E-02  0.1186339E+00
        -11   -1    0    0    0    0  0.00000000000E+00  0.00000000000E+00  0.45593999997E+02  0.45594000000E+02  0.51100000000E-03 0.  1.
         11   -1    0    0    0    0 -0.00000000000E+00 -0.00000000000E+00 -0.45593999997E+02  0.45594000000E+02  0.51100000000E-03 0. -1.
    9900012    2    1    2    0    0 -0.92382834951E+00  0.71147068722E+00 -0.18261028530E+00  0.90007747538E+02  0.90000009005E+02 0.  0.
        -12    1    1    2    0    0  0.92382834951E+00 -0.71147068722E+00  0.18261028530E+00  0.11802524622E+01  0.00000000000E+00 0.  1.
         11    1    3    3    0    0 -0.46290827147E+00  0.71778218105E+01  0.55863084960E+01  0.91072637430E+01  0.51100000000E-03 0. -1.
        -11    1    3    3    0    0 -0.13951176943E+02  0.26986139928E+02  0.20175981995E+02  0.36468580121E+02  0.51100000000E-03 0.  1.
         12    1    3    3    0    0  0.13490256865E+02 -0.33452491051E+02 -0.25944900776E+02  0.44431903674E+02  0.00000000000E+00 0. -1.
</event>
<event>
 7    1  0.4195243E-015  0.9000777E+02  0.7816164E-02  0.1186339E+00
        -11   -1    0    0    0    0  0.00000000000E+00  0.00000000000E+00  0.45593999997E+02  0.45594000000E+02  0.51100000000E-03 0. -1.
         11   -1    0    0    0    0 -0.00000000000E+00 -0.00000000000E+00 -0.45593999997E+02  0.45594000000E+02  0.51100000000E-03 0.  1.
    9900012    2    1    2    0    0 -0.28976717806E+00 -0.87338869188E+00  0.73904106380E+00  0.90007765058E+02  0.90000026757E+02 0.  0.
        -12    1    1    2    0    0  0.28976717806E+00  0.87338869188E+00 -0.73904106380E+00  0.11802349421E+01  0.00000000000E+00 0.  1.
         11    1    3    3    0    0 -0.67248520394E+01  0.34313193566E+02  0.31276379031E+01  0.35105569455E+02  0.51100000000E-03 0. -1.
        -11    1    3    3    0    0 -0.97030622114E+01  0.19211970577E+01  0.84514340295E+01  0.13010271013E+02  0.51100000000E-03 0.  1.
        -12    1    3    3    0    0  0.16138147073E+02 -0.37107779315E+02 -0.10840030869E+02  0.41891924590E+02  0.00000000000E+00 0.  1.
</event>
<event>
 7    1  0.4195243E-015  0.9000822E+02  0.7816164E-02  0.1186338E+00
        -11   -1    0    0    0    0  0.00000000000E+00  0.00000000000E+00  0.45593999997E+02  0.45594000000E+02  0.51100000000E-03 0.  1.
         11   -1    0    0    0    0 -0.00000000000E+00 -0.00000000000E+00 -0.45593999997E+02  0.45594000000E+02  0.51100000000E-03 0. -1.
    9900012    2    1    2    0    0  0.19673495286E+00  0.88180938890E+00  0.75866836097E+00  0.90008224546E+02  0.90000492309E+02 0.  0.
        -12    1    1    2    0    0 -0.19673495286E+00 -0.88180938890E+00 -0.75866836097E+00  0.11797754540E+01  0.00000000000E+00 0.  1.
         11    1    3    3    0    0 -0.12496834314E+02 -0.13255671209E+02 -0.25827857962E+02  0.31606359079E+02  0.51100000000E-03 0. -1.
        -11    1    3    3    0    0 -0.52321454586E+01 -0.88158581925E+01 -0.81322490069E+01  0.13085418447E+02  0.51100000000E-03 0.  1.
        -12    1    3    3    0    0  0.17925714726E+02  0.22953338790E+02  0.34718775330E+02  0.45316447019E+02  0.00000000000E+00 0.  1.
</event>
<event>
 7    1  0.4195243E-015  0.9000772E+02  0.7816164E-02  0.1186339E+00
        -11   -1    0    0    0    0  0.00000000000E+00  0.00000000000E+00  0.45593999997E+02  0.45594000000E+02  0.51100000000E-03 0. -1.
         11   -1    0    0    0    0 -0.00000000000E+00 -0.00000000000E+00 -0.45593999997E+02  0.45594000000E+02  0.51100000000E-03 0.  1.
    9900012    2    1    2    0    0  0.10669549965E+01 -0.48583998755E+00 -0.13646292315E+00  0.90007722241E+02  0.89999983375E+02 0.  0.
        -12    1    1    2    0    0 -0.10669549965E+01  0.48583998755E+00  0.13646292315E+00  0.11802777586E+01  0.00000000000E+00 0.  1.
         11    1    3    3    0    0 -0.98908584215E+01  0.38479510528E+01 -0.20766880025E+01  0.10814270245E+02  0.51100000000E-03 0. -1.
        -11    1    3    3    0    0 -0.11930536363E+02  0.15623073690E+01 -0.34062727135E+02  0.36125446466E+02  0.51100000000E-03 0.  1.
         12    1    3    3    0    0  0.22888349781E+02 -0.58960984093E+01  0.36002952215E+02  0.43068005530E+02  0.00000000000E+00 0. -1.
</event>
<event>
 7    1  0.4195243E-015  0.9000768E+02  0.7816164E-02  0.1186339E+00
        -11   -1    0    0    0    0  0.00000000000E+00  0.00000000000E+00  0.45593999997E+02  0.45594000000E+02  0.51100000000E-03 0.  1.
         11   -1    0    0    0    0 -0.00000000000E+00 -0.00000000000E+00 -0.45593999997E+02  0.45594000000E+02  0.51100000000E-03 0. -1.
    9900012    2    1    2    0    0  0.79626380335E+00  0.56420640802E+00 -0.66392578441E+00  0.90007677009E+02  0.89999937546E+02 0.  0.
        -12    1    1    2    0    0 -0.79626380335E+00 -0.56420640802E+00  0.66392578441E+00  0.11803229908E+01  0.00000000000E+00 0.  1.
         11    1    3    3    0    0 -0.18539401449E+02 -0.17688528242E+02 -0.32761823740E+02  0.41592433596E+02  0.51100000000E-03 0. -1.
        -11    1    3    3    0    0  0.42387270441E+01 -0.61697144217E+01  0.76772667945E+01  0.10722528093E+02  0.51100000000E-03 0.  1.
        -12    1    3    3    0    0  0.15096938209E+02  0.24422449071E+02  0.24420631161E+02  0.37692715320E+02  0.00000000000E+00 0.  1.
</event>
<event>
 7    1  0.4195243E-015  0.9000779E+02  0.7816164E-02  0.1186339E+00
        -11   -1    0    0    0    0  0.00000000000E+00  0.00000000000E+00  0.45593999997E+02  0.45594000000E+02  0.51100000000E-03 0.  1.
         11   -1    0    0    0    0 -0.00000000000E+00 -0.00000000000E+00 -0.45593999997E+02  0.45594000000E+02  0.51100000000E-03 0. -1.
    9900012    2    1    2    0    0 -0.11739043837E+01  0.26087526844E-01  0.11900983982E+00  0.90007790102E+02  0.90000052131E+02 0.  0.
        -12    1    1    2    0    0  0.11739043837E+01 -0.26087526844E-01 -0.11900983982E+00  0.11802098979E+01  0.00000000000E+00 0.  1.
         11    1    3    3    0    0  0.38341082208E+01 -0.15748205845E+02  0.58295417695E+01  0.17224689567E+02  0.51100000000E-03 0. -1.
        -11    1    3    3    0    0 -0.35878902347E+02 -0.57392405188E+00 -0.10819218935E+02  0.37479067772E+02  0.51100000000E-03 0.  1.
         12    1    3    3    0    0  0.30870889742E+02  0.16348217424E+02  0.51086870053E+01  0.35304032763E+02  0.00000000000E+00 0. -1.
</event>
<event>
 7    1  0.4195243E-015  0.9000790E+02  0.7816164E-02  0.1186339E+00
        -11   -1    0    0    0    0  0.00000000000E+00  0.00000000000E+00  0.45593999997E+02  0.45594000000E+02  0.51100000000E-03 0. -1.
         11   -1    0    0    0    0 -0.00000000000E+00 -0.00000000000E+00 -0.45593999997E+02  0.45594000000E+02  0.51100000000E-03 0.  1.
    9900012    2    1    2    0    0  0.10328538286E+01  0.22966244268E+00  0.52259141836E+00  0.90007900996E+02  0.90000164489E+02 0.  0.
        -12    1    1    2    0    0 -0.10328538286E+01 -0.22966244268E+00 -0.52259141836E+00  0.11800990041E+01  0.00000000000E+00 0.  1.
         11    1    3    3    0    0 -0.23224625942E+02 -0.94770701977E+01  0.21928891151E+02  0.33317778693E+02  0.51100000000E-03 0. -1.
        -11    1    3    3    0    0 -0.69623270299E+01 -0.19198049985E+01  0.90318693341E+01  0.11564355271E+02  0.51100000000E-03 0.  1.
        -12    1    3    3    0    0  0.31219806800E+02  0.11626537639E+02 -0.30438169066E+02  0.45125767032E+02  0.00000000000E+00 0.  1.
</event>
<event>
 7    1  0.4195243E-015  0.9000773E+02  0.7816164E-02  0.1186339E+00
        -11   -1    0    0    0    0  0.00000000000E+00  0.00000000000E+00  0.45593999997E+02  0.45594000000E+02  0.51100000000E-03 0. -1.
         11   -1    0    0    0    0 -0.00000000000E+00 -0.00000000000E+00 -0.45593999997E+02  0.45594000000E+02  0.51100000000E-03 0.  1.
    9900012    2    1    2    0    0 -0.48250915831E+00  0.83072151356E+00  0.68565346499E+00  0.90007731389E+02  0.89999992643E+02 0.  0.
        -12    1    1    2    0    0  0.48250915831E+00 -0.83072151356E+00 -0.68565346499E+00  0.11802686114E+01  0.00000000000E+00 0.  1.
         11    1    3    3    0    0 -0.15663860935E+02 -0.84031511505E+00  0.75452218482E+00  0.15704520778E+02  0.51100000000E-03 0. -1.
        -11    1    3    3    0    0 -0.16744322462E+02  0.22860449512E+02 -0.16299137239E+02  0.32689973411E+02  0.51100000000E-03 0.  1.
         12    1    3    3    0    0  0.31925674239E+02 -0.21189412884E+02  0.16230268519E+02  0.41613237199E+02  0.00000000000E+00 0. -1.
</event>
<event>
 7    1  0.4195243E-015  0.9000804E+02  0.7816164E-02  0.1186338E+00
        -11   -1    0    0    0    0  0.00000000000E+00  0.00000000000E+00  0.45593999997E+02  0.45594000000E+02  0.51100000000E-03 0.  1.
         11   -1    0    0    0    0 -0.00000000000E+00 -0.00000000000E+00 -0.45593999997E+02  0.45594000000E+02  0.51100000000E-03 0. -1.
    9900012    2    1    2    0    0  0.11196978839E+01  0.30916214052E+00 -0.20736909726E+00  0.90008039610E+02  0.90000304932E+02 0.  0.
        -12    1    1    2    0    0 -0.11196978839E+01 -0.30916214052E+00  0.20736909726E+00  0.11799603904E+01  0.00000000000E+00 0.  1.
         11    1    3    3    0    0  0.60344806658E+01  0.43763862192E+01 -0.51995617234E+01  0.90886278185E+01  0.51100000000E-03 0. -1.
        -11    1    3    3    0    0 -0.31207423865E+02  0.97166572192E+01 -0.23118940758E+02  0.40035011601E+02  0.51100000000E-03 0.  1.
         12    1    3    3    0    0  0.26292641083E+02 -0.13783881298E+02  0.28111133385E+02  0.40884400190E+02  0.00000000000E+00 0. -1.
</event>
<event>
 7    1  0.4195243E-015  0.9000758E+02  0.7816164E-02  0.1186339E+00
        -11   -1    0    0    0    0  0.00000000000E+00  0.00000000000E+00  0.45593999997E+02  0.45594000000E+02  0.51100000000E-03 0.  1.
         11   -1    0    0    0    0 -0.00000000000E+00 -0.00000000000E+00 -0.45593999997E+02  0.45594000000E+02  0.51100000000E-03 0. -1.
    9900012    2    1    2    0    0 -0.80877246948E+00  0.83568791762E+00 -0.20224607240E+00  0.90007580296E+02  0.89999839556E+02 0.  0.
        -12    1    1    2    0    0  0.80877246948E+00 -0.83568791762E+00  0.20224607240E+00  0.11804197037E+01  0.00000000000E+00 0.  1.
         11    1    3    3    0    0 -0.39426277968E+01 -0.61032240710E+01  0.49515100868E+01  0.87926736779E+01  0.51100000000E-03 0. -1.
        -11    1    3    3    0    0 -0.67549618588E+01  0.16723704861E+02  0.34642847114E+02  0.39056864575E+02  0.51100000000E-03 0.  1.
         12    1    3    3    0    0  0.98888171861E+01 -0.97847928721E+01 -0.39796603273E+02  0.42158042044E+02  0.00000000000E+00 0. -1.
</event>
<event>
 7    1  0.4195243E-015  0.9000761E+02  0.7816164E-02  0.1186339E+00
        -11   -1    0    0    0    0  0.00000000000E+00  0.00000000000E+00  0.45593999997E+02  0.45594000000E+02  0.51100000000E-03 0. -1.
         11   -1    0    0    0    0 -0.00000000000E+00 -0.00000000000E+00 -0.45593999997E+02  0.45594000000E+02  0.51100000000E-03 0.  1.
    9900012    2    1    2    0    0 -0.40160680295E+00  0.82565761272E+00  0.74184290335E+00  0.90007606248E+02  0.89999865850E+02 0.  0.
        -12    1    1    2    0    0  0.40160680295E+00 -0.82565761272E+00 -0.74184290335E+00  0.11803937525E+01  0.00000000000E+00 0.  1.
         11    1    3    3    0    0  0.69165836354E+01 -0.31635689537E+01 -0.54425182958E+01  0.93524490574E+01  0.51100000000E-03 0. -1.
        -11    1    3    3    0    0  0.18841326739E+02 -0.31027768229E+01 -0.29929314143E+02  0.35501924773E+02  0.51100000000E-03 0.  1.
         12    1    3    3    0    0 -0.26159517177E+02  0.70920033894E+01  0.36113675342E+02  0.45153232417E+02  0.00000000000E+00 0. -1.
</event>
<event>
 7    1  0.4195243E-015  0.9000793E+02  0.7816164E-02  0.1186339E+00
        -11   -1    0    0    0    0  0.00000000000E+00  0.00000000000E+00  0.45593999997E+02  0.45594000000E+02  0.51100000000E-03 0.  1.
         11   -1    0    0    0    0 -0.00000000000E+00 -0.00000000000E+00 -0.45593999997E+02  0.45594000000E+02  0.51100000000E-03 0. -1.
    9900012    2    1    2    0    0 -0.36505649870E+00 -0.33467583792E+00 -0.10711195493E+01  0.90007927438E+02  0.90000191280E+02 0.  0.
        -12    1    1    2    0    0  0.36505649870E+00  0.33467583792E+00  0.10711195493E+01  0.11800725624E+01  0.00000000000E+00 0.  1.
         11    1    3    3    0    0 -0.16726058030E+02  0.11853889898E+02 -0.31630991117E+02  0.37693438716E+02  0.51100000000E-03 0. -1.
        -11    1    3    3    0    0 -0.96868094792E+01 -0.12220998403E+02  0.66374589793E+01  0.16948243030E+02  0.51100000000E-03 0.  1.
        -12    1    3    3    0    0  0.26047811010E+02  0.32432666777E-01  0.23922412588E+02  0.35366245692E+02  0.00000000000E+00 0.  1.
</event>
<event>
 7    1  0.4195243E-015  0.9000780E+02  0.7816164E-02  0.1186339E+00
        -11   -1    0    0    0    0  0.00000000000E+00  0.00000000000E+00  0.45593999997E+02  0.45594000000E+02  0.51100000000E-03 0. -1.
         11   -1    0    0    0    0 -0.00000000000E+00 -0.00000000000E+00 -0.45593999997E+02  0.45594000000E+02  0.51100000000E-03 0.  1.
    9900012    2    1    2    0    0  0.70499517002E+00  0.41590315318E+00  0.85022919408E+00  0.90007795227E+02  0.90000057324E+02 0.  0.
        -12    1    1    2    0    0 -0.70499517002E+00 -0.41590315318E+00 -0.85022919408E+00  0.11802047725E+01  0.00000000000E+00 0.  1.
         11    1    3    3    0    0  0.64450571016E+01 -0.10115664080E+01  0.40247071876E+01  0.76655264560E+01  0.51100000000E-03 0. -1.
        -11    1    3    3    0    0 -0.16683913978E+02  0.53933578727E+01 -0.40024911270E+02  0.43697080191E+02  0.51100000000E-03 0.  1.
         12    1    3    3    0    0  0.10943852047E+02 -0.39658883116E+01  0.36850433277E+02  0.38645188580E+02  0.00000000000E+00 0. -1.
</event>
<event>
 7    1  0.4195243E-015  0.9000761E+02  0.7816164E-02  0.1186339E+00
        -11   -1    0    0    0    0  0.00000000000E+00  0.00000000000E+00  0.45593999997E+02  0.45594000000E+02  0.51100000000E-03 0.  1.
         11   -1    0    0    0    0 -0.00000000000E+00 -0.00000000000E+00 -0.45593999997E+02  0.45594000000E+02  0.51100000000E-03 0. -1.
    9900012    2    1    2    0    0  0.96988826155E+00  0.51640731682E+00 -0.43121831779E+00  0.90007614896E+02  0.89999874612E+02 0.  0.
        -12    1    1    2    0    0 -0.96988826155E+00 -0.51640731682E+00  0.43121831779E+00  0.11803851043E+01  0.00000000000E+00 0.  1.
         11    1    3    3    0    0  0.21831716323E+02  0.38430519213E+00 -0.24369403311E+02  0.32720625698E+02  0.51100000000E-03 0. -1.
        -11    1    3    3    0    0  0.14119008677E+02 -0.72942112102E+01  0.10683545407E+02  0.19149153138E+02  0.51100000000E-03 0.  1.
        -12    1    3    3    0    0 -0.34980836739E+02  0.74263133349E+01  0.13254639586E+02  0.38137836059E+02  0.00000000000E+00 0.  1.
</event>
<event>
 7    1  0.4195243E-015  0.9000787E+02  0.7816164E-02  0.1186339E+00
        -11   -1    0    0    0    0  0.00000000000E+00  0.00000000000E+00  0.45593999997E+02  0.45594000000E+02  0.51100000000E-03 0.  1.
         11   -1    0    0    0    0 -0.00000000000E+00 -0.00000000000E+00 -0.45593999997E+02  0.45594000000E+02  0.51100000000E-03 0. -1.
    9900012    2    1    2    0    0  0.53939954607E-01  0.11480001297E+01  0.26812846325E+00  0.90007870054E+02  0.90000133139E+02 0.  0.
        -12    1    1    2    0    0 -0.53939954607E-01 -0.11480001297E+01 -0.26812846325E+00  0.11801299460E+01  0.00000000000E+00 0.  1.
         11    1    3    3    0    0 -0.76452858419E+01  0.25185563214E+01  0.77756272958E+01  0.11191688954E+02  0.51100000000E-03 0. -1.
        -11    1    3    3    0    0  0.32167713380E+02  0.19168409003E+02  0.14357528301E+02  0.40103968718E+02  0.51100000000E-03 0.  1.
         12    1    3    3    0    0 -0.24468487583E+02 -0.20538965195E+02 -0.21865027134E+02  0.38712212381E+02  0.00000000000E+00 0. -1.
</event>
<event>
 8    1  0.4195243E-015  0.9000750E+02  0.7816164E-02  0.1186340E+00
        -11   -1    0    0    0    0  0.00000000000E+00  0.00000000000E+00  0.45593999997E+02  0.45594000000E+02  0.51100000000E-03 0.  1.
         11   -1    0    0    0    0 -0.00000000000E+00 -0.00000000000E+00 -0.45593999997E+02  0.45594000000E+02  0.51100000000E-03 0. -1.
    9900012    2    1    2    0    0  0.24621867579E+00  0.11095349716E+01 -0.31921094897E+00  0.90007497090E+02  0.89999755252E+02 0.  0.
         23    2    3    3    0    0 -0.55932314892E+01 -0.22121938716E+02 -0.16966654384E+02  0.60836656841E+02  0.53782590525E+02 0.  0.
        -12    1    1    2    0    0 -0.24621867579E+00 -0.11095349716E+01  0.31921094897E+00  0.11805029095E+01  0.00000000000E+00 0.  1.
         11    1    4    4    0    0 -0.28284534895E+02 -0.11712080989E+02 -0.18594948080E+02  0.35818428911E+02  0.51100000000E-03 0. -1.
        -11    1    4    4    0    0  0.22691303405E+02 -0.10409857728E+02  0.16282936959E+01  0.25018227930E+02  0.51100000000E-03 0.  1.
        -12    1    3    3    0    0  0.58394501650E+01  0.23231473688E+02  0.16647443435E+02  0.29170840249E+02  0.00000000000E+00 0.  1.
</event>
<event>
 7    1  0.6257439E-015  0.9000781E+02  0.7816164E-02  0.1186339E+00
        -11   -1    0    0    0    0  0.00000000000E+00  0.00000000000E+00  0.45593999997E+02  0.45594000000E+02  0.51100000000E-03 0.  1.
         11   -1    0    0    0    0 -0.00000000000E+00 -0.00000000000E+00 -0.45593999997E+02  0.45594000000E+02  0.51100000000E-03 0. -1.
    9900012    2    1    2    0    0 -0.14426216595E+00 -0.11696300582E+01  0.63233290578E-01  0.90007811670E+02  0.90000073984E+02 0.  0.
        -12    1    1    2    0    0  0.14426216595E+00  0.11696300582E+01 -0.63233290578E-01  0.11801883302E+01  0.00000000000E+00 0.  1.
         11    1    3    3    0    0 -0.33779506918E+02  0.62087840739E+01 -0.11383006399E+02  0.36182549969E+02  0.51100000000E-03 0. -1.
        -11    1    3    3    0    0 -0.72298454724E+01 -0.26815662872E+01 -0.53592538764E+01  0.93905838839E+01  0.51100000000E-03 0.  1.
        -12    1    3    3    0    0  0.40865090224E+02 -0.46968478450E+01  0.16805493566E+02  0.44434677817E+02  0.00000000000E+00 0.  1.
</event>
<event>
 7    1  0.4195243E-015  0.9000772E+02  0.7816164E-02  0.1186339E+00
        -11   -1    0    0    0    0  0.00000000000E+00  0.00000000000E+00  0.45593999997E+02  0.45594000000E+02  0.51100000000E-03 0.  1.
         11   -1    0    0    0    0 -0.00000000000E+00 -0.00000000000E+00 -0.45593999997E+02  0.45594000000E+02  0.51100000000E-03 0. -1.
    9900012    2    1    2    0    0 -0.11185433184E+01  0.96165424999E-01  0.36423649795E+00  0.90007722418E+02  0.89999983554E+02 0.  0.
        -12    1    1    2    0    0  0.11185433184E+01 -0.96165424999E-01 -0.36423649795E+00  0.11802775819E+01  0.00000000000E+00 0.  1.
         11    1    3    3    0    0 -0.33869945684E+02  0.10316981134E+01 -0.31880701420E+01  0.34035296578E+02  0.51100000000E-03 0. -1.
        -11    1    3    3    0    0 -0.11216798900E+02 -0.19673423935E+00  0.42389335274E+01  0.11992657739E+02  0.51100000000E-03 0.  1.
        -12    1    3    3    0    0  0.43968201266E+02 -0.73879844907E+00 -0.68662688743E+00  0.43979768101E+02  0.00000000000E+00 0.  1.
</event>
<event>
 7    1  0.4195243E-015  0.9000776E+02  0.7816164E-02  0.1186339E+00
        -11   -1    0    0    0    0  0.00000000000E+00  0.00000000000E+00  0.45593999997E+02  0.45594000000E+02  0.51100000000E-03 0. -1.
         11   -1    0    0    0    0 -0.00000000000E+00 -0.00000000000E+00 -0.45593999997E+02  0.45594000000E+02  0.51100000000E-03 0.  1.
    9900012    2    1    2    0    0 -0.84846409766E+00  0.81979355382E+00 -0.31868416536E-01  0.90007759181E+02  0.90000020802E+02 0.  0.
        -12    1    1    2    0    0  0.84846409766E+00 -0.81979355382E+00  0.31868416536E-01  0.11802408194E+01  0.00000000000E+00 0.  1.
         11    1    3    3    0    0  0.20204890738E+01  0.91493837749E+01 -0.15801800520E+01  0.95021349609E+01  0.51100000000E-03 0. -1.
        -11    1    3    3    0    0  0.22774233302E+02 -0.19645366339E+02 -0.27057806130E+02  0.40456532154E+02  0.51100000000E-03 0.  1.
         12    1    3    3    0    0 -0.25643186474E+02  0.11315776118E+02  0.28606117765E+02  0.40049092066E+02  0.00000000000E+00 0. -1.
</event>
<event>
 7    1  0.4195243E-015  0.9000728E+02  0.7816164E-02  0.1186340E+00
        -11   -1    0    0    0    0  0.00000000000E+00  0.00000000000E+00  0.45593999997E+02  0.45594000000E+02  0.51100000000E-03 0. -1.
         11   -1    0    0    0    0 -0.00000000000E+00 -0.00000000000E+00 -0.45593999997E+02  0.45594000000E+02  0.51100000000E-03 0.  1.
    9900012    2    1    2    0    0  0.72764734424E+00  0.92830587003E+00  0.53561154716E-01  0.90007283589E+02  0.89999538931E+02 0.  0.
        -12    1    1    2    0    0 -0.72764734424E+00 -0.92830587003E+00 -0.53561154716E-01  0.11807164110E+01  0.00000000000E+00 0.  1.
         11    1    3    3    0    0  0.35034156145E+01 -0.80769490580E+01  0.44587014324E+01  0.98686901754E+01  0.51100000000E-03 0. -1.
        -11    1    3    3    0    0  0.95213304737E+01 -0.27313839063E+02 -0.23531681141E+02  0.37288625021E+02  0.51100000000E-03 0.  1.
         12    1    3    3    0    0 -0.12297098744E+02  0.36319093991E+02  0.19126540863E+02  0.42849968393E+02  0.00000000000E+00 0. -1.
</event>
<event>
 7    1  0.4195243E-015  0.9000774E+02  0.7816164E-02  0.1186339E+00
        -11   -1    0    0    0    0  0.00000000000E+00  0.00000000000E+00  0.45593999997E+02  0.45594000000E+02  0.51100000000E-03 0. -1.
         11   -1    0    0    0    0 -0.00000000000E+00 -0.00000000000E+00 -0.45593999997E+02  0.45594000000E+02  0.51100000000E-03 0.  1.
    9900012    2    1    2    0    0  0.84689538642E+00  0.80353632782E+00  0.17350674667E+00  0.90007742818E+02  0.90000004223E+02 0.  0.
        -12    1    1    2    0    0 -0.84689538642E+00 -0.80353632782E+00 -0.17350674667E+00  0.11802571825E+01  0.00000000000E+00 0.  1.
         11    1    3    3    0    0  0.51703413606E+01 -0.26507034353E+02 -0.28162693115E+02  0.39019130997E+02  0.51100000000E-03 0. -1.
        -11    1    3    3    0    0 -0.91757758508E+01  0.50152230376E+00 -0.28085542267E+01  0.96090771769E+01  0.51100000000E-03 0.  1.
        -12    1    3    3    0    0  0.48523298766E+01  0.26809048377E+02  0.31144754089E+02  0.41379534644E+02  0.00000000000E+00 0.  1.
</event>
<event>
 7    1  0.4195243E-015  0.9000761E+02  0.7816164E-02  0.1186339E+00
        -11   -1    0    0    0    0  0.00000000000E+00  0.00000000000E+00  0.45593999997E+02  0.45594000000E+02  0.51100000000E-03 0. -1.
         11   -1    0    0    0    0 -0.00000000000E+00 -0.00000000000E+00 -0.45593999997E+02  0.45594000000E+02  0.51100000000E-03 0.  1.
    9900012    2    1    2    0    0  0.28939245145E-01  0.24482580443E+00  0.11543606543E+01  0.90007607830E+02  0.89999867453E+02 0.  0.
        -12    1    1    2    0    0 -0.28939245145E-01 -0.24482580443E+00 -0.11543606543E+01  0.11803921699E+01  0.00000000000E+00 0.  1.
         11    1    3    3    0    0 -0.37868271771E+02 -0.43771535957E+01 -0.69387611177E+01  0.38746766144E+02  0.51100000000E-03 0. -1.
        -11    1    3    3    0    0 -0.32405133538E+01  0.50616254661E+01  0.81429942613E+01  0.10120737866E+02  0.51100000000E-03 0.  1.
        -12    1    3    3    0    0  0.41137724370E+02 -0.43964606595E+00 -0.49872489267E-01  0.41140103820E+02  0.00000000000E+00 0.  1.
</event>
<event>
 7    1  0.4195243E-015  0.9000774E+02  0.7816164E-02  0.1186339E+00
        -11   -1    0    0    0    0  0.00000000000E+00  0.00000000000E+00  0.45593999997E+02  0.45594000000E+02  0.51100000000E-03 0. -1.
         11   -1    0    0    0    0 -0.00000000000E+00 -0.00000000000E+00 -0.45593999997E+02  0.45594000000E+02  0.51100000000E-03 0.  1.
    9900012    2    1    2    0    0 -0.36232376075E+00  0.10900979592E+01 -0.27097422016E+00  0.90007737700E+02  0.89999999038E+02 0.  0.
        -12    1    1    2    0    0  0.36232376075E+00 -0.10900979592E+01  0.27097422016E+00  0.11802622997E+01  0.00000000000E+00 0.  1.
         11    1    3    3    0    0  0.48255564553E+01 -0.56896315793E+01 -0.10657807968E+02  0.13009487828E+02  0.51100000000E-03 0. -1.
        -11    1    3    3    0    0  0.17673878779E+02  0.48795988519E+00 -0.27268674187E+02  0.32498995186E+02  0.51100000000E-03 0.  1.
         12    1    3    3    0    0 -0.22861758995E+02  0.62917696533E+01  0.37655507935E+02  0.44499254685E+02  0.00000000000E+00 0. -1.
</event>
<event>
 7    1  0.4195243E-015  0.9000770E+02  0.7816164E-02  0.1186339E+00
        -11   -1    0    0    0    0  0.00000000000E+00  0.00000000000E+00  0.45593999997E+02  0.45594000000E+02  0.51100000000E-03 0.  1.
         11   -1    0    0    0    0 -0.00000000000E+00 -0.00000000000E+00 -0.45593999997E+02  0.45594000000E+02  0.51100000000E-03 0. -1.
    9900012    2    1    2    0    0 -0.96055714511E+00 -0.10540327579E+00 -0.67774523755E+00  0.90007695596E+02  0.89999956378E+02 0.  0.
        -12    1    1    2    0    0  0.96055714511E+00  0.10540327579E+00  0.67774523755E+00  0.11803044042E+01  0.00000000000E+00 0.  1.
         11    1    3    3    0    0  0.98563345435E+01  0.30679925248E+01 -0.50699010399E+00  0.10335228493E+02  0.51100000000E-03 0. -1.
        -11    1    3    3    0    0  0.15138027716E+02 -0.32978500805E+02 -0.12326107110E+02  0.38323286853E+02  0.51100000000E-03 0.  1.
         12    1    3    3    0    0 -0.25954919405E+02  0.29805105005E+02  0.12155351977E+02  0.41349180250E+02  0.00000000000E+00 0. -1.
</event>
<event>
 7    1  0.4195243E-015  0.9000772E+02  0.7816164E-02  0.1186339E+00
        -11   -1    0    0    0    0  0.00000000000E+00  0.00000000000E+00  0.45593999997E+02  0.45594000000E+02  0.51100000000E-03 0.  1.
         11   -1    0    0    0    0 -0.00000000000E+00 -0.00000000000E+00 -0.45593999997E+02  0.45594000000E+02  0.51100000000E-03 0. -1.
    9900012    2    1    2    0    0 -0.13052968325E+00 -0.52894182246E+00  0.10470182418E+01  0.90007718403E+02  0.89999979486E+02 0.  0.
        -12    1    1    2    0    0  0.13052968325E+00  0.52894182246E+00 -0.10470182418E+01  0.11802815971E+01  0.00000000000E+00 0.  1.
         11    1    3    3    0    0  0.24835404087E+02  0.22767121415E+01 -0.22564417184E+02  0.33632330241E+02  0.51100000000E-03 0. -1.
        -11    1    3    3    0    0  0.10748583092E+02  0.53192761843E+01 -0.13246119559E+01  0.12065709043E+02  0.51100000000E-03 0.  1.
        -12    1    3    3    0    0 -0.35714516862E+02 -0.81249301483E+01  0.24936047382E+02  0.44309679119E+02  0.00000000000E+00 0.  1.
</event>
<event>
 7    1  0.4195243E-015  0.9000781E+02  0.7816164E-02  0.1186339E+00
        -11   -1    0    0    0    0  0.00000000000E+00  0.00000000000E+00  0.45593999997E+02  0.45594000000E+02  0.51100000000E-03 0.  1.
         11   -1    0    0    0    0 -0.00000000000E+00 -0.00000000000E+00 -0.45593999997E+02  0.45594000000E+02  0.51100000000E-03 0. -1.
    9900012    2    1    2    0    0  0.83027677074E+00 -0.60308813757E+00 -0.58289567260E+00  0.90007812649E+02  0.90000074976E+02 0.  0.
        -12    1    1    2    0    0 -0.83027677074E+00  0.60308813757E+00  0.58289567260E+00  0.11801873507E+01  0.00000000000E+00 0.  1.
         11    1    3    3    0    0 -0.23384371229E+02  0.22339445810E+02 -0.29316866313E+02  0.43650410165E+02  0.51100000000E-03 0. -1.
        -11    1    3    3    0    0  0.12016993323E+01 -0.68932986910E+00  0.82202593700E+01  0.83361814595E+01  0.51100000000E-03 0.  1.
        -12    1    3    3    0    0  0.23012948667E+02 -0.22253204079E+02  0.20513711270E+02  0.38021221025E+02  0.00000000000E+00 0.  1.
</event>
<event>
 7    1  0.4195243E-015  0.9000761E+02  0.7816164E-02  0.1186339E+00
        -11   -1    0    0    0    0  0.00000000000E+00  0.00000000000E+00  0.45593999997E+02  0.45594000000E+02  0.51100000000E-03 0. -1.
         11   -1    0    0    0    0 -0.00000000000E+00 -0.00000000000E+00 -0.45593999997E+02  0.45594000000E+02  0.51100000000E-03 0.  1.
    9900012    2    1    2    0    0 -0.45362874350E+00  0.87310354395E+00  0.65210546597E+00  0.90007605840E+02  0.89999865436E+02 0.  0.
        -12    1    1    2    0    0  0.45362874350E+00 -0.87310354395E+00 -0.65210546597E+00  0.11803941605E+01  0.00000000000E+00 0.  1.
         11    1    3    3    0    0 -0.32144780587E+02  0.23411164910E+02  0.87803350610E+01  0.40724241497E+02  0.51100000000E-03 0. -1.
        -11    1    3    3    0    0 -0.15156457324E+00 -0.13410271591E+01  0.77496037447E+01  0.78662369734E+01  0.51100000000E-03 0.  1.
        -12    1    3    3    0    0  0.31842716417E+02 -0.21197034207E+02 -0.15877833340E+02  0.41417127369E+02  0.00000000000E+00 0.  1.
</event>
<event>
 7    1  0.4195243E-015  0.9000767E+02  0.7816164E-02  0.1186339E+00
        -11   -1    0    0    0    0  0.00000000000E+00  0.00000000000E+00  0.45593999997E+02  0.45594000000E+02  0.51100000000E-03 0. -1.
         11   -1    0    0    0    0 -0.00000000000E+00 -0.00000000000E+00 -0.45593999997E+02  0.45594000000E+02  0.51100000000E-03 0.  1.
    9900012    2    1    2    0    0 -0.76993198303E+00 -0.75779501231E+00  0.47552835706E+00  0.90007671335E+02  0.89999931797E+02 0.  0.
        -12    1    1    2    0    0  0.76993198303E+00  0.75779501231E+00 -0.47552835706E+00  0.11803286651E+01  0.00000000000E+00 0.  1.
         11    1    3    3    0    0 -0.51939281277E+01 -0.51311229961E+01 -0.45829292029E+00  0.73154183243E+01  0.51100000000E-03 0. -1.
        -11    1    3    3    0    0  0.55525504191E+01 -0.81890400541E+01 -0.39300741356E+02  0.40527021412E+02  0.51100000000E-03 0.  1.
         12    1    3    3    0    0 -0.11285542745E+01  0.12562368038E+02  0.40234562633E+02  0.42165231598E+02  0.00000000000E+00 0. -1.
</event>
<event>
 7    1  0.4195243E-015  0.9000782E+02  0.7816164E-02  0.1186339E+00
        -11   -1    0    0    0    0  0.00000000000E+00  0.00000000000E+00  0.45593999997E+02  0.45594000000E+02  0.51100000000E-03 0.  1.
         11   -1    0    0    0    0 -0.00000000000E+00 -0.00000000000E+00 -0.45593999997E+02  0.45594000000E+02  0.51100000000E-03 0. -1.
    9900012    2    1    2    0    0 -0.48732903081E+00  0.10637532155E+01 -0.15414565389E+00  0.90007821467E+02  0.90000083910E+02 0.  0.
        -12    1    1    2    0    0  0.48732903081E+00 -0.10637532155E+01  0.15414565389E+00  0.11801785333E+01  0.00000000000E+00 0.  1.
         11    1    3    3    0    0  0.58610127287E+01 -0.83733634663E+00  0.51744939027E+01  0.78630776273E+01  0.51100000000E-03 0. -1.
        -11    1    3    3    0    0  0.35461456023E+02  0.59204046657E+01  0.10187708214E+02  0.37367839830E+02  0.51100000000E-03 0.  1.
         12    1    3    3    0    0 -0.41809797782E+02 -0.40193151036E+01 -0.15516347770E+02  0.44776904009E+02  0.00000000000E+00 0. -1.
</event>
<event>
 7    1  0.4195243E-015  0.9000776E+02  0.7816164E-02  0.1186339E+00
        -11   -1    0    0    0    0  0.00000000000E+00  0.00000000000E+00  0.45593999997E+02  0.45594000000E+02  0.51100000000E-03 0.  1.
         11   -1    0    0    0    0 -0.00000000000E+00 -0.00000000000E+00 -0.45593999997E+02  0.45594000000E+02  0.51100000000E-03 0. -1.
    9900012    2    1    2    0    0  0.51254239684E+00 -0.30598077832E+00 -0.10181575341E+01  0.90007759046E+02  0.90000020665E+02 0.  0.
        -12    1    1    2    0    0 -0.51254239684E+00  0.30598077832E+00  0.10181575341E+01  0.11802409540E+01  0.00000000000E+00 0.  1.
         11    1    3    3    0    0  0.27697684707E+01 -0.94557200849E+01  0.67716683827E+01  0.11955657767E+02  0.51100000000E-03 0. -1.
        -11    1    3    3    0    0  0.25929593591E+02 -0.23012256305E+02 -0.51593941079E+00  0.34672380331E+02  0.51100000000E-03 0.  1.
         12    1    3    3    0    0 -0.28186819665E+02  0.32161995612E+02 -0.72738865061E+01  0.43379720948E+02  0.00000000000E+00 0. -1.
</event>
<event>
 7    1  0.4195243E-015  0.9000778E+02  0.7816164E-02  0.1186339E+00
        -11   -1    0    0    0    0  0.00000000000E+00  0.00000000000E+00  0.45593999997E+02  0.45594000000E+02  0.51100000000E-03 0. -1.
         11   -1    0    0    0    0 -0.00000000000E+00 -0.00000000000E+00 -0.45593999997E+02  0.45594000000E+02  0.51100000000E-03 0.  1.
    9900012    2    1    2    0    0 -0.11676500011E+01  0.38964965544E-01 -0.16732209928E+00  0.90007779055E+02  0.90000040939E+02 0.  0.
        -12    1    1    2    0    0  0.11676500011E+01 -0.38964965544E-01  0.16732209928E+00  0.11802209448E+01  0.00000000000E+00 0.  1.
         11    1    3    3    0    0 -0.28276423789E+01  0.93506968492E+01 -0.28592405473E+01  0.10178720438E+02  0.51100000000E-03 0. -1.
        -11    1    3    3    0    0  0.31487948616E+02  0.93915197009E+01 -0.19502467326E+02  0.38210440751E+02  0.51100000000E-03 0.  1.
         12    1    3    3    0    0 -0.29827956238E+02 -0.18703251585E+02  0.22194385774E+02  0.41618617866E+02  0.00000000000E+00 0. -1.
</event>
<event>
 7    1  0.4195243E-015  0.9000778E+02  0.7816164E-02  0.1186339E+00
        -11   -1    0    0    0    0  0.00000000000E+00  0.00000000000E+00  0.45593999997E+02  0.45594000000E+02  0.51100000000E-03 0.  1.
         11   -1    0    0    0    0 -0.00000000000E+00 -0.00000000000E+00 -0.45593999997E+02  0.45594000000E+02  0.51100000000E-03 0. -1.
    9900012    2    1    2    0    0 -0.54438386748E+00  0.10410899958E+01  0.11263196296E+00  0.90007784709E+02  0.90000046667E+02 0.  0.
        -12    1    1    2    0    0  0.54438386748E+00 -0.10410899958E+01 -0.11263196296E+00  0.11802152912E+01  0.00000000000E+00 0.  1.
         11    1    3    3    0    0  0.61949478294E+01 -0.11538317773E+02  0.43971295977E+01  0.13814662667E+02  0.51100000000E-03 0. -1.
        -11    1    3    3    0    0  0.18835599953E+02  0.21998164873E+02  0.23483379562E+02  0.37284959424E+02  0.51100000000E-03 0.  1.
         12    1    3    3    0    0 -0.25574931650E+02 -0.94187571041E+01 -0.27767877197E+02  0.38908162618E+02  0.00000000000E+00 0. -1.
</event>
<event>
 7    1  0.4195243E-015  0.9000776E+02  0.7816164E-02  0.1186339E+00
        -11   -1    0    0    0    0  0.00000000000E+00  0.00000000000E+00  0.45593999997E+02  0.45594000000E+02  0.51100000000E-03 0.  1.
         11   -1    0    0    0    0 -0.00000000000E+00 -0.00000000000E+00 -0.45593999997E+02  0.45594000000E+02  0.51100000000E-03 0. -1.
    9900012    2    1    2    0    0  0.73573053741E+00 -0.77114096661E+00 -0.50696734671E+00  0.90007756930E+02  0.90000018521E+02 0.  0.
        -12    1    1    2    0    0 -0.73573053741E+00  0.77114096661E+00  0.50696734671E+00  0.11802430702E+01  0.00000000000E+00 0.  1.
         11    1    3    3    0    0  0.53058284552E+01 -0.14427246754E+02 -0.26904489407E+02  0.30986268169E+02  0.51100000000E-03 0. -1.
        -11    1    3    3    0    0 -0.88685500876E+01 -0.16267276236E+02 -0.53278952821E+00  0.18535353294E+02  0.51100000000E-03 0.  1.
        -12    1    3    3    0    0  0.42984521698E+01  0.29923382024E+02  0.26930311589E+02  0.40486135467E+02  0.00000000000E+00 0.  1.
</event>
<event>
 7    1  0.4195243E-015  0.9000768E+02  0.7816164E-02  0.1186339E+00
        -11   -1    0    0    0    0  0.00000000000E+00  0.00000000000E+00  0.45593999997E+02  0.45594000000E+02  0.51100000000E-03 0.  1.
         11   -1    0    0    0    0 -0.00000000000E+00 -0.00000000000E+00 -0.45593999997E+02  0.45594000000E+02  0.51100000000E-03 0. -1.
    9900012    2    1    2    0    0 -0.36914966756E+00  0.53979874726E-01 -0.11198085028E+01  0.90007679541E+02  0.89999940111E+02 0.  0.
        -12    1    1    2    0    0  0.36914966756E+00 -0.53979874726E-01  0.11198085028E+01  0.11803204594E+01  0.00000000000E+00 0.  1.
         11    1    3    3    0    0 -0.73688402729E+01  0.33098445430E+02 -0.13119556741E+01  0.33934173406E+02  0.51100000000E-03 0. -1.
        -11    1    3    3    0    0 -0.11023769105E+01  0.10673605966E+02  0.39921005060E+01  0.11448928591E+02  0.51100000000E-03 0.  1.
        -12    1    3    3    0    0  0.81020675159E+01 -0.43718071521E+02 -0.37999533347E+01  0.44624577543E+02  0.00000000000E+00 0.  1.
</event>
<event>
 7    1  0.4195243E-015  0.9000778E+02  0.7816164E-02  0.1186339E+00
        -11   -1    0    0    0    0  0.00000000000E+00  0.00000000000E+00  0.45593999997E+02  0.45594000000E+02  0.51100000000E-03 0.  1.
         11   -1    0    0    0    0 -0.00000000000E+00 -0.00000000000E+00 -0.45593999997E+02  0.45594000000E+02  0.51100000000E-03 0. -1.
    9900012    2    1    2    0    0  0.89815507800E+00 -0.43772830875E+00 -0.62819666024E+00  0.90007779825E+02  0.90000041719E+02 0.  0.
        -12    1    1    2    0    0 -0.89815507800E+00  0.43772830875E+00  0.62819666024E+00  0.11802201745E+01  0.00000000000E+00 0.  1.
         11    1    3    3    0    0  0.63752025009E+00 -0.21610599480E+01  0.67232672108E+01  0.70907640221E+01  0.51100000000E-03 0. -1.
        -11    1    3    3    0    0  0.22232675212E+02 -0.33629635798E+02  0.15790468493E+01  0.40345230699E+02  0.51100000000E-03 0.  1.
         12    1    3    3    0    0 -0.21972040384E+02  0.35352967437E+02 -0.89305107204E+01  0.42571785104E+02  0.00000000000E+00 0. -1.
</event>
<event>
 7    1  0.4195243E-015  0.9000816E+02  0.7816164E-02  0.1186338E+00
        -11   -1    0    0    0    0  0.00000000000E+00  0.00000000000E+00  0.45593999997E+02  0.45594000000E+02  0.51100000000E-03 0. -1.
         11   -1    0    0    0    0 -0.00000000000E+00 -0.00000000000E+00 -0.45593999997E+02  0.45594000000E+02  0.51100000000E-03 0.  1.
    9900012    2    1    2    0    0  0.91359151912E+00  0.66705228404E+00  0.33528125503E+00  0.90008160293E+02  0.90000427208E+02 0.  0.
        -12    1    1    2    0    0 -0.91359151912E+00 -0.66705228404E+00 -0.33528125503E+00  0.11798397067E+01  0.00000000000E+00 0.  1.
         11    1    3    3    0    0  0.25008175494E+02 -0.29655946810E+02 -0.14483912819E+02  0.41408546866E+02  0.51100000000E-03 0. -1.
        -11    1    3    3    0    0 -0.96525277155E+01 -0.16086341561E+01 -0.15703696909E+01  0.99108554814E+01  0.51100000000E-03 0.  1.
        -12    1    3    3    0    0 -0.14442056259E+02  0.31931633250E+02  0.16389563765E+02  0.38688757946E+02  0.00000000000E+00 0.  1.
</event>
<event>
 7    1  0.4195243E-015  0.9000780E+02  0.7816164E-02  0.1186339E+00
        -11   -1    0    0    0    0  0.00000000000E+00  0.00000000000E+00  0.45593999997E+02  0.45594000000E+02  0.51100000000E-03 0. -1.
         11   -1    0    0    0    0 -0.00000000000E+00 -0.00000000000E+00 -0.45593999997E+02  0.45594000000E+02  0.51100000000E-03 0.  1.
    9900012    2    1    2    0    0 -0.65745782560E+00  0.31826376069E-01  0.97960164385E+00  0.90007795318E+02  0.90000057416E+02 0.  0.
        -12    1    1    2    0    0  0.65745782560E+00 -0.31826376069E-01 -0.97960164385E+00  0.11802046819E+01  0.00000000000E+00 0.  1.
         11    1    3    3    0    0  0.45690033408E+01  0.71941636171E+01 -0.54074075664E+01  0.10093158006E+02  0.51100000000E-03 0. -1.
        -11    1    3    3    0    0  0.35768793126E+02 -0.12344102253E+02 -0.14047803155E+01  0.37864981581E+02  0.51100000000E-03 0.  1.
         12    1    3    3    0    0 -0.40995254292E+02  0.51817650119E+01  0.77917895258E+01  0.42049655732E+02  0.00000000000E+00 0. -1.
</event>
<event>
 7    1  0.4195243E-015  0.9000773E+02  0.7816164E-02  0.1186339E+00
        -11   -1    0    0    0    0  0.00000000000E+00  0.00000000000E+00  0.45593999997E+02  0.45594000000E+02  0.51100000000E-03 0. -1.
         11   -1    0    0    0    0 -0.00000000000E+00 -0.00000000000E+00 -0.45593999997E+02  0.45594000000E+02  0.51100000000E-03 0.  1.
    9900012    2    1    2    0    0  0.93866237012E-01 -0.11085227187E+01  0.39421689391E+00  0.90007728655E+02  0.89999989873E+02 0.  0.
        -12    1    1    2    0    0 -0.93866237012E-01  0.11085227187E+01 -0.39421689391E+00  0.11802713450E+01  0.00000000000E+00 0.  1.
         11    1    3    3    0    0 -0.31177277413E+02 -0.21490138030E+02  0.66587795700E+01  0.38447210628E+02  0.51100000000E-03 0. -1.
        -11    1    3    3    0    0 -0.71452647151E+01  0.70351813425E+00 -0.42653057888E+01  0.83512022695E+01  0.51100000000E-03 0.  1.
        -12    1    3    3    0    0  0.38416408365E+02  0.19678097177E+02 -0.19992568873E+01  0.43209315758E+02  0.00000000000E+00 0.  1.
</event>
<event>
 7    1  0.4195243E-015  0.9000854E+02  0.7816164E-02  0.1186337E+00
        -11   -1    0    0    0    0  0.00000000000E+00  0.00000000000E+00  0.45593999997E+02  0.45594000000E+02  0.51100000000E-03 0.  1.
         11   -1    0    0    0    0 -0.00000000000E+00 -0.00000000000E+00 -0.45593999997E+02  0.45594000000E+02  0.51100000000E-03 0. -1.
    9900012    2    1    2    0    0  0.40384256628E+00 -0.41008621803E+00 -0.10294986887E+01  0.90008539498E+02  0.90000811416E+02 0.  0.
        -12    1    1    2    0    0 -0.40384256628E+00  0.41008621803E+00  0.10294986887E+01  0.11794605015E+01  0.00000000000E+00 0.  1.
         11    1    3    3    0    0  0.37863045272E+01  0.37169332519E+01 -0.13429638337E+02  0.14439767342E+02  0.51100000000E-03 0. -1.
        -11    1    3    3    0    0  0.15243242208E+02  0.68101560329E+01  0.38337748804E+02  0.41815280004E+02  0.51100000000E-03 0.  1.
         12    1    3    3    0    0 -0.18625704169E+02 -0.10937175503E+02 -0.25937609156E+02  0.33753492153E+02  0.00000000000E+00 0. -1.
</event>
<event>
 7    1  0.4195243E-015  0.9000768E+02  0.7816164E-02  0.1186339E+00
        -11   -1    0    0    0    0  0.00000000000E+00  0.00000000000E+00  0.45593999997E+02  0.45594000000E+02  0.51100000000E-03 0.  1.
         11   -1    0    0    0    0 -0.00000000000E+00 -0.00000000000E+00 -0.45593999997E+02  0.45594000000E+02  0.51100000000E-03 0. -1.
    9900012    2    1    2    0    0 -0.73523262609E+00 -0.91129217048E+00  0.14877325124E+00  0.90007680588E+02  0.89999941172E+02 0.  0.
        -12    1    1    2    0    0  0.73523262609E+00  0.91129217048E+00 -0.14877325124E+00  0.11803194122E+01  0.00000000000E+00 0.  1.
         11    1    3    3    0    0 -0.14977707625E+02  0.18549720742E+02  0.16349976915E+02  0.28909265136E+02  0.51100000000E-03 0. -1.
        -11    1    3    3    0    0  0.26094426000E+01  0.18767500213E+02 -0.48826749506E+01  0.19567032730E+02  0.51100000000E-03 0.  1.
        -12    1    3    3    0    0  0.11633032399E+02 -0.38228513125E+02 -0.11318528714E+02  0.41531382722E+02  0.00000000000E+00 0.  1.
</event>
<event>
 7    1  0.4195243E-015  0.9000765E+02  0.7816164E-02  0.1186339E+00
        -11   -1    0    0    0    0  0.00000000000E+00  0.00000000000E+00  0.45593999997E+02  0.45594000000E+02  0.51100000000E-03 0.  1.
         11   -1    0    0    0    0 -0.00000000000E+00 -0.00000000000E+00 -0.45593999997E+02  0.45594000000E+02  0.51100000000E-03 0. -1.
    9900012    2    1    2    0    0  0.18065591405E+00 -0.10880781923E+01 -0.42033384824E+00  0.90007647826E+02  0.89999907977E+02 0.  0.
        -12    1    1    2    0    0 -0.18065591405E+00  0.10880781923E+01  0.42033384824E+00  0.11803521745E+01  0.00000000000E+00 0.  1.
         11    1    3    3    0    0 -0.24764804977E+02 -0.27411154821E+02  0.59316050840E+01  0.37414581560E+02  0.51100000000E-03 0. -1.
        -11    1    3    3    0    0 -0.32597237943E+01 -0.58587176554E+01  0.49492690705E+01  0.83334048488E+01  0.51100000000E-03 0.  1.
        -12    1    3    3    0    0  0.28205184685E+02  0.32181794284E+02 -0.11301208003E+02  0.44259661417E+02  0.00000000000E+00 0.  1.
</event>
<event>
 7    1  0.4195243E-015  0.9000759E+02  0.7816164E-02  0.1186339E+00
        -11   -1    0    0    0    0  0.00000000000E+00  0.00000000000E+00  0.45593999997E+02  0.45594000000E+02  0.51100000000E-03 0. -1.
         11   -1    0    0    0    0 -0.00000000000E+00 -0.00000000000E+00 -0.45593999997E+02  0.45594000000E+02  0.51100000000E-03 0.  1.
    9900012    2    1    2    0    0 -0.83504750593E+00  0.75561023314E+00 -0.35372928517E+00  0.90007586696E+02  0.89999846040E+02 0.  0.
        -12    1    1    2    0    0  0.83504750593E+00 -0.75561023314E+00  0.35372928517E+00  0.11804133042E+01  0.00000000000E+00 0.  1.
         11    1    3    3    0    0 -0.18292670350E+01 -0.56041765527E+01 -0.75953318431E+01  0.96146803788E+01  0.51100000000E-03 0. -1.
        -11    1    3    3    0    0 -0.37733424205E+02  0.13211584978E+02  0.91660820496E+01  0.41016756823E+02  0.51100000000E-03 0.  1.
         12    1    3    3    0    0  0.38727643734E+02 -0.68517981921E+01 -0.19244794917E+01  0.39376149494E+02  0.00000000000E+00 0. -1.
</event>
<event>
 7    1  0.4195243E-015  0.9000772E+02  0.7816164E-02  0.1186339E+00
        -11   -1    0    0    0    0  0.00000000000E+00  0.00000000000E+00  0.45593999997E+02  0.45594000000E+02  0.51100000000E-03 0. -1.
         11   -1    0    0    0    0 -0.00000000000E+00 -0.00000000000E+00 -0.45593999997E+02  0.45594000000E+02  0.51100000000E-03 0.  1.
    9900012    2    1    2    0    0 -0.60780713638E+00  0.83455906563E+00  0.57196828771E+00  0.90007717800E+02  0.89999978875E+02 0.  0.
        -12    1    1    2    0    0  0.60780713638E+00 -0.83455906563E+00 -0.57196828771E+00  0.11802821998E+01  0.00000000000E+00 0.  1.
         11    1    3    3    0    0 -0.16519923625E+02 -0.25182741302E+02  0.22690499028E+02  0.37708581018E+02  0.51100000000E-03 0. -1.
        -11    1    3    3    0    0  0.40381351121E+01 -0.85957107788E+01  0.83729919825E-01  0.94973569975E+01  0.51100000000E-03 0.  1.
        -12    1    3    3    0    0  0.11873981376E+02  0.34613011146E+02 -0.22202260660E+02  0.42801779784E+02  0.00000000000E+00 0.  1.
</event>
<event>
 7    1  0.4195243E-015  0.9000771E+02  0.7816164E-02  0.1186339E+00
        -11   -1    0    0    0    0  0.00000000000E+00  0.00000000000E+00  0.45593999997E+02  0.45594000000E+02  0.51100000000E-03 0.  1.
         11   -1    0    0    0    0 -0.00000000000E+00 -0.00000000000E+00 -0.45593999997E+02  0.45594000000E+02  0.51100000000E-03 0. -1.
    9900012    2    1    2    0    0 -0.11142300998E+01 -0.22615200395E+00 -0.31690433432E+00  0.90007711136E+02  0.89999972123E+02 0.  0.
        -12    1    1    2    0    0  0.11142300998E+01  0.22615200395E+00  0.31690433432E+00  0.11802888635E+01  0.00000000000E+00 0.  1.
         11    1    3    3    0    0 -0.69996801676E-01 -0.34977302513E+02  0.29030104966E+01  0.35097636115E+02  0.51100000000E-03 0. -1.
        -11    1    3    3    0    0  0.44718030106E+01 -0.73609418456E+01  0.71462840304E+01  0.11191508510E+02  0.51100000000E-03 0.  1.
        -12    1    3    3    0    0 -0.55160363088E+01  0.42112092355E+02 -0.10366198861E+02  0.43718566512E+02  0.00000000000E+00 0.  1.
</event>
<event>
 7    1  0.4195243E-015  0.9000765E+02  0.7816164E-02  0.1186339E+00
        -11   -1    0    0    0    0  0.00000000000E+00  0.00000000000E+00  0.45593999997E+02  0.45594000000E+02  0.51100000000E-03 0. -1.
         11   -1    0    0    0    0 -0.00000000000E+00 -0.00000000000E+00 -0.45593999997E+02  0.45594000000E+02  0.51100000000E-03 0.  1.
    9900012    2    1    2    0    0 -0.22633033536E+00 -0.48801779211E+00  0.10506390978E+01  0.90007648654E+02  0.89999908816E+02 0.  0.
        -12    1    1    2    0    0  0.22633033536E+00  0.48801779211E+00 -0.10506390978E+01  0.11803513460E+01  0.00000000000E+00 0.  1.
         11    1    3    3    0    0 -0.80729135080E+01  0.51273081119E+01  0.16732704923E+01  0.97088132840E+01  0.51100000000E-03 0. -1.
        -11    1    3    3    0    0 -0.18172480574E+02  0.26950292679E+02  0.14980603390E+02  0.35790722316E+02  0.51100000000E-03 0.  1.
         12    1    3    3    0    0  0.26019063746E+02 -0.32565618583E+02 -0.15603234784E+02  0.44508113054E+02  0.00000000000E+00 0. -1.
</event>
<event>
 7    1  0.4195243E-015  0.9000779E+02  0.7816164E-02  0.1186339E+00
        -11   -1    0    0    0    0  0.00000000000E+00  0.00000000000E+00  0.45593999997E+02  0.45594000000E+02  0.51100000000E-03 0.  1.
         11   -1    0    0    0    0 -0.00000000000E+00 -0.00000000000E+00 -0.45593999997E+02  0.45594000000E+02  0.51100000000E-03 0. -1.
    9900012    2    1    2    0    0  0.72450557962E+00  0.92012782218E+00  0.14610764188E+00  0.90007791973E+02  0.90000054027E+02 0.  0.
        -12    1    1    2    0    0 -0.72450557962E+00 -0.92012782218E+00 -0.14610764188E+00  0.11802080270E+01  0.00000000000E+00 0.  1.
         11    1    3    3    0    0 -0.10925813898E+02 -0.29591323283E+02  0.46122494657E+01  0.31879345482E+02  0.51100000000E-03 0. -1.
        -11    1    3    3    0    0  0.57643721533E+01 -0.12908453387E+02 -0.85595454509E+00  0.14162938029E+02  0.51100000000E-03 0.  1.
        -12    1    3    3    0    0  0.58859473246E+01  0.43419904493E+02 -0.36101872787E+01  0.43965508461E+02  0.00000000000E+00 0.  1.
</event>
<event>
 7    1  0.4195243E-015  0.9000792E+02  0.7816164E-02  0.1186339E+00
        -11   -1    0    0    0    0  0.00000000000E+00  0.00000000000E+00  0.45593999997E+02  0.45594000000E+02  0.51100000000E-03 0.  1.
         11   -1    0    0    0    0 -0.00000000000E+00 -0.00000000000E+00 -0.45593999997E+02  0.45594000000E+02  0.51100000000E-03 0. -1.
    9900012    2    1    2    0    0 -0.89232856567E+00  0.32831510546E+00 -0.69896856544E+00  0.90007916048E+02  0.90000179740E+02 0.  0.
        -12    1    1    2    0    0  0.89232856567E+00 -0.32831510546E+00  0.69896856544E+00  0.11800839517E+01  0.00000000000E+00 0.  1.
         11    1    3    3    0    0  0.17307032470E+02 -0.18340389188E+02 -0.36158132358E+02  0.44083032840E+02  0.51100000000E-03 0. -1.
        -11    1    3    3    0    0  0.67376217847E+00  0.21850062334E+01  0.97870340335E+01  0.10050584219E+02  0.51100000000E-03 0.  1.
        -12    1    3    3    0    0 -0.18873123214E+02  0.16483698060E+02  0.25672129759E+02  0.35874298989E+02  0.00000000000E+00 0.  1.
</event>
<event>
 7    1  0.4195243E-015  0.9000771E+02  0.7816164E-02  0.1186339E+00
        -11   -1    0    0    0    0  0.00000000000E+00  0.00000000000E+00  0.45593999997E+02  0.45594000000E+02  0.51100000000E-03 0.  1.
         11   -1    0    0    0    0 -0.00000000000E+00 -0.00000000000E+00 -0.45593999997E+02  0.45594000000E+02  0.51100000000E-03 0. -1.
    9900012    2    1    2    0    0  0.10341914084E+01 -0.42033282442E+00 -0.38320539736E+00  0.90007712777E+02  0.89999973786E+02 0.  0.
        -12    1    1    2    0    0 -0.10341914084E+01  0.42033282442E+00  0.38320539736E+00  0.11802872231E+01  0.00000000000E+00 0.  1.
         11    1    3    3    0    0  0.90689403600E+01  0.35583603940E+00  0.27688625896E+01  0.94888829080E+01  0.51100000000E-03 0. -1.
        -11    1    3    3    0    0  0.32299286830E+02  0.16776846216E+02  0.27489124636E+00  0.36397555744E+02  0.51100000000E-03 0.  1.
         12    1    3    3    0    0 -0.40334035782E+02 -0.17553015079E+02 -0.34269592333E+01  0.44121274125E+02  0.00000000000E+00 0. -1.
</event>
<event>
 7    1  0.4195243E-015  0.9000775E+02  0.7816164E-02  0.1186339E+00
        -11   -1    0    0    0    0  0.00000000000E+00  0.00000000000E+00  0.45593999997E+02  0.45594000000E+02  0.51100000000E-03 0.  1.
         11   -1    0    0    0    0 -0.00000000000E+00 -0.00000000000E+00 -0.45593999997E+02  0.45594000000E+02  0.51100000000E-03 0. -1.
    9900012    2    1    2    0    0 -0.61247478877E+00  0.55827682337E+00 -0.84034753439E+00  0.90007753264E+02  0.90000014807E+02 0.  0.
        -12    1    1    2    0    0  0.61247478877E+00 -0.55827682337E+00  0.84034753439E+00  0.11802467356E+01  0.00000000000E+00 0.  1.
         11    1    3    3    0    0  0.73902564633E+00  0.34246654603E+01 -0.94392892778E+01  0.10068499131E+02  0.51100000000E-03 0. -1.
        -11    1    3    3    0    0 -0.10681906801E+02  0.28581652375E+02  0.28349062012E+02  0.41649529440E+02  0.51100000000E-03 0.  1.
         12    1    3    3    0    0  0.93304063662E+01 -0.31448041012E+02 -0.19750120269E+02  0.38289724693E+02  0.00000000000E+00 0. -1.
</event>
<event>
 7    1  0.4195243E-015  0.9000763E+02  0.7816164E-02  0.1186339E+00
        -11   -1    0    0    0    0  0.00000000000E+00  0.00000000000E+00  0.45593999997E+02  0.45594000000E+02  0.51100000000E-03 0.  1.
         11   -1    0    0    0    0 -0.00000000000E+00 -0.00000000000E+00 -0.45593999997E+02  0.45594000000E+02  0.51100000000E-03 0. -1.
    9900012    2    1    2    0    0  0.33583799064E+00  0.26595582690E+00 -0.10998905946E+01  0.90007627611E+02  0.89999887495E+02 0.  0.
        -12    1    1    2    0    0 -0.33583799064E+00 -0.26595582690E+00  0.10998905946E+01  0.11803723895E+01  0.00000000000E+00 0.  1.
         11    1    3    3    0    0 -0.79831398014E+01  0.74713477725E+01  0.53492703200E+00  0.10947040962E+02  0.51100000000E-03 0. -1.
        -11    1    3    3    0    0  0.33899466284E+02  0.21498562873E+02  0.33927141632E+01  0.40284892076E+02  0.51100000000E-03 0.  1.
         12    1    3    3    0    0 -0.25580488491E+02 -0.28703954819E+02 -0.50275317898E+01  0.38775694573E+02  0.00000000000E+00 0. -1.
</event>
<event>
 7    1  0.4195243E-015  0.9000772E+02  0.7816164E-02  0.1186339E+00
        -11   -1    0    0    0    0  0.00000000000E+00  0.00000000000E+00  0.45593999997E+02  0.45594000000E+02  0.51100000000E-03 0. -1.
         11   -1    0    0    0    0 -0.00000000000E+00 -0.00000000000E+00 -0.45593999997E+02  0.45594000000E+02  0.51100000000E-03 0.  1.
    9900012    2    1    2    0    0 -0.25213225116E+00 -0.58267776674E+00  0.99497127729E+00  0.90007723806E+02  0.89999984960E+02 0.  0.
        -12    1    1    2    0    0  0.25213225116E+00  0.58267776674E+00 -0.99497127729E+00  0.11802761942E+01  0.00000000000E+00 0.  1.
         11    1    3    3    0    0  0.33956799486E+02  0.27457751480E+01 -0.17396189165E+02  0.38252201377E+02  0.51100000000E-03 0. -1.
        -11    1    3    3    0    0  0.32850926578E+01 -0.75830000578E+01  0.10225608783E+02  0.13147501622E+02  0.51100000000E-03 0.  1.
        -12    1    3    3    0    0 -0.37494024395E+02  0.42545471431E+01  0.81655516592E+01  0.38608020807E+02  0.00000000000E+00 0.  1.
</event>
<event>
 7    1  0.4195243E-015  0.9000771E+02  0.7816164E-02  0.1186339E+00
        -11   -1    0    0    0    0  0.00000000000E+00  0.00000000000E+00  0.45593999997E+02  0.45594000000E+02  0.51100000000E-03 0. -1.
         11   -1    0    0    0    0 -0.00000000000E+00 -0.00000000000E+00 -0.45593999997E+02  0.45594000000E+02  0.51100000000E-03 0.  1.
    9900012    2    1    2    0    0 -0.90024339677E+00  0.52631696104E+00  0.55284369825E+00  0.90007710259E+02  0.89999971235E+02 0.  0.
        -12    1    1    2    0    0  0.90024339677E+00 -0.52631696104E+00 -0.55284369825E+00  0.11802897405E+01  0.00000000000E+00 0.  1.
         11    1    3    3    0    0 -0.35765568371E+01  0.13589105322E+01 -0.65900067564E+01  0.76201434340E+01  0.51100000000E-03 0. -1.
        -11    1    3    3    0    0  0.23150323556E+02 -0.32373512757E+02 -0.10037265999E+02  0.41045444545E+02  0.51100000000E-03 0.  1.
         12    1    3    3    0    0 -0.20474010115E+02  0.31540919185E+02  0.17180116453E+02  0.41342122280E+02  0.00000000000E+00 0. -1.
</event>
<event>
 7    1  0.4195243E-015  0.9000764E+02  0.7816164E-02  0.1186339E+00
        -11   -1    0    0    0    0  0.00000000000E+00  0.00000000000E+00  0.45593999997E+02  0.45594000000E+02  0.51100000000E-03 0.  1.
         11   -1    0    0    0    0 -0.00000000000E+00 -0.00000000000E+00 -0.45593999997E+02  0.45594000000E+02  0.51100000000E-03 0. -1.
    9900012    2    1    2    0    0  0.58953551544E+00  0.10155849937E+01  0.11947484253E+00  0.90007644443E+02  0.89999904549E+02 0.  0.
        -12    1    1    2    0    0 -0.58953551544E+00 -0.10155849937E+01 -0.11947484253E+00  0.11803555572E+01  0.00000000000E+00 0.  1.
         11    1    3    3    0    0 -0.45051940068E+01 -0.90674480731E+00  0.64624275066E+01  0.79298126537E+01  0.51100000000E-03 0. -1.
        -11    1    3    3    0    0 -0.23302857733E+02 -0.30623202137E+02 -0.55353365045E+01  0.38877289490E+02  0.51100000000E-03 0.  1.
         12    1    3    3    0    0  0.28397587255E+02  0.32545531938E+02 -0.80761615955E+00  0.43200542299E+02  0.00000000000E+00 0. -1.
</event>
<event>
 7    1  0.4195243E-015  0.9000778E+02  0.7816164E-02  0.1186339E+00
        -11   -1    0    0    0    0  0.00000000000E+00  0.00000000000E+00  0.45593999997E+02  0.45594000000E+02  0.51100000000E-03 0.  1.
         11   -1    0    0    0    0 -0.00000000000E+00 -0.00000000000E+00 -0.45593999997E+02  0.45594000000E+02  0.51100000000E-03 0. -1.
    9900012    2    1    2    0    0 -0.16349571500E+00  0.19654300643E+00 -0.11521983832E+01  0.90007779209E+02  0.90000041094E+02 0.  0.
        -12    1    1    2    0    0  0.16349571500E+00 -0.19654300643E+00  0.11521983832E+01  0.11802207914E+01  0.00000000000E+00 0.  1.
         11    1    3    3    0    0 -0.44453869866E+00 -0.80311866542E+01 -0.11637473939E+00  0.80443220392E+01  0.51100000000E-03 0. -1.
        -11    1    3    3    0    0 -0.32752028690E+02 -0.98145540247E+01  0.19217041499E+02  0.39221365839E+02  0.51100000000E-03 0.  1.
         12    1    3    3    0    0  0.33033071674E+02  0.18042283685E+02 -0.20252865143E+02  0.42742091330E+02  0.00000000000E+00 0. -1.
</event>
<event>
 7    1  0.4195243E-015  0.9000775E+02  0.7816164E-02  0.1186339E+00
        -11   -1    0    0    0    0  0.00000000000E+00  0.00000000000E+00  0.45593999997E+02  0.45594000000E+02  0.51100000000E-03 0.  1.
         11   -1    0    0    0    0 -0.00000000000E+00 -0.00000000000E+00 -0.45593999997E+02  0.45594000000E+02  0.51100000000E-03 0. -1.
    9900012    2    1    2    0    0 -0.54239985212E+00  0.98914211622E+00 -0.34696382695E+00  0.90007752728E+02  0.90000014264E+02 0.  0.
        -12    1    1    2    0    0  0.54239985212E+00 -0.98914211622E+00  0.34696382695E+00  0.11802472719E+01  0.00000000000E+00 0.  1.
         11    1    3    3    0    0  0.28003685184E+01  0.22084095083E+01  0.69256988559E+01  0.77900219062E+01  0.51100000000E-03 0. -1.
        -11    1    3    3    0    0  0.36934143778E+02  0.12059587361E+02  0.16165404682E+01  0.38886730736E+02  0.51100000000E-03 0.  1.
         12    1    3    3    0    0 -0.40276912149E+02 -0.13278854753E+02 -0.88892031510E+01  0.43331000086E+02  0.00000000000E+00 0. -1.
</event>
<event>
 7    1  0.4195243E-015  0.9000781E+02  0.7816164E-02  0.1186339E+00
        -11   -1    0    0    0    0  0.00000000000E+00  0.00000000000E+00  0.45593999997E+02  0.45594000000E+02  0.51100000000E-03 0.  1.
         11   -1    0    0    0    0 -0.00000000000E+00 -0.00000000000E+00 -0.45593999997E+02  0.45594000000E+02  0.51100000000E-03 0. -1.
    9900012    2    1    2    0    0 -0.69561025752E+00  0.61586458223E+00 -0.72780030683E+00  0.90007806753E+02  0.90000069002E+02 0.  0.
        -12    1    1    2    0    0  0.69561025752E+00 -0.61586458223E+00  0.72780030683E+00  0.11801932472E+01  0.00000000000E+00 0.  1.
         11    1    3    3    0    0 -0.10181455916E+02 -0.35324236911E+01  0.27411325731E+02  0.29453706733E+02  0.51100000000E-03 0. -1.
        -11    1    3    3    0    0 -0.36269080885E+01 -0.22877948634E+01  0.14689724002E+02  0.15302825201E+02  0.51100000000E-03 0.  1.
         12    1    3    3    0    0  0.13112753747E+02  0.64360831367E+01 -0.42828850040E+02  0.45251274819E+02  0.00000000000E+00 0. -1.
</event>
<event>
 7    1  0.4195243E-015  0.9000770E+02  0.7816164E-02  0.1186339E+00
        -11   -1    0    0    0    0  0.00000000000E+00  0.00000000000E+00  0.45593999997E+02  0.45594000000E+02  0.51100000000E-03 0. -1.
         11   -1    0    0    0    0 -0.00000000000E+00 -0.00000000000E+00 -0.45593999997E+02  0.45594000000E+02  0.51100000000E-03 0.  1.
    9900012    2    1    2    0    0 -0.68132351020E+00 -0.96127509012E+00  0.69702955721E-01  0.90007699180E+02  0.89999960009E+02 0.  0.
        -12    1    1    2    0    0  0.68132351020E+00  0.96127509012E+00 -0.69702955721E-01  0.11803008203E+01  0.00000000000E+00 0.  1.
         11    1    3    3    0    0  0.34930447865E+02  0.14845479454E+02 -0.16888466797E+02  0.41542084195E+02  0.51100000000E-03 0. -1.
        -11    1    3    3    0    0 -0.31251766902E+00 -0.72936507594E+01 -0.19081421506E+01  0.75455957632E+01  0.51100000000E-03 0.  1.
        -12    1    3    3    0    0 -0.35299253706E+02 -0.85131037850E+01  0.18866311903E+02  0.40920019221E+02  0.00000000000E+00 0.  1.
</event>
<event>
 7    1  0.4195243E-015  0.9000777E+02  0.7816164E-02  0.1186339E+00
        -11   -1    0    0    0    0  0.00000000000E+00  0.00000000000E+00  0.45593999997E+02  0.45594000000E+02  0.51100000000E-03 0.  1.
         11   -1    0    0    0    0 -0.00000000000E+00 -0.00000000000E+00 -0.45593999997E+02  0.45594000000E+02  0.51100000000E-03 0. -1.
    9900012    2    1    2    0    0  0.10470008213E+01 -0.46044152228E+00  0.29105992741E+00  0.90007774176E+02  0.90000035995E+02 0.  0.
        -12    1    1    2    0    0 -0.10470008213E+01  0.46044152228E+00 -0.29105992741E+00  0.11802258244E+01  0.00000000000E+00 0.  1.
         11    1    3    3    0    0  0.10230807017E+01 -0.79397496736E+01  0.56102345428E+01  0.97755332789E+01  0.51100000000E-03 0. -1.
        -11    1    3    3    0    0 -0.35109301175E+02  0.14210497516E+02  0.12996345624E+02  0.40043804370E+02  0.51100000000E-03 0.  1.
         12    1    3    3    0    0  0.35133221295E+02 -0.67311893643E+01 -0.18315520239E+02  0.40188436526E+02  0.00000000000E+00 0. -1.
</event>
<event>
 7    1  0.4195243E-015  0.9000772E+02  0.7816164E-02  0.1186339E+00
        -11   -1    0    0    0    0  0.00000000000E+00  0.00000000000E+00  0.45593999997E+02  0.45594000000E+02  0.51100000000E-03 0.  1.
         11   -1    0    0    0    0 -0.00000000000E+00 -0.00000000000E+00 -0.45593999997E+02  0.45594000000E+02  0.51100000000E-03 0. -1.
    9900012    2    1    2    0    0  0.18506351344E+00 -0.88768298255E+00 -0.75553207494E+00  0.90007721093E+02  0.89999982212E+02 0.  0.
        -12    1    1    2    0    0 -0.18506351344E+00  0.88768298255E+00  0.75553207494E+00  0.11802789068E+01  0.00000000000E+00 0.  1.
         11    1    3    3    0    0  0.39060490881E+01  0.89561956087E+01  0.17314595161E+01  0.99231351688E+01  0.51100000000E-03 0. -1.
        -11    1    3    3    0    0 -0.22535141988E+02  0.22389550322E+02  0.19003615921E+02  0.37017050212E+02  0.51100000000E-03 0.  1.
         12    1    3    3    0    0  0.18814156414E+02 -0.32233428914E+02 -0.21490607512E+02  0.43067535712E+02  0.00000000000E+00 0. -1.
</event>
<event>
 7    1  0.4195243E-015  0.9000774E+02  0.7816164E-02  0.1186339E+00
        -11   -1    0    0    0    0  0.00000000000E+00  0.00000000000E+00  0.45593999997E+02  0.45594000000E+02  0.51100000000E-03 0.  1.
         11   -1    0    0    0    0 -0.00000000000E+00 -0.00000000000E+00 -0.45593999997E+02  0.45594000000E+02  0.51100000000E-03 0. -1.
    9900012    2    1    2    0    0  0.34144084236E+00 -0.87368996858E+00 -0.71631369121E+00  0.90007736761E+02  0.89999998086E+02 0.  0.
        -12    1    1    2    0    0 -0.34144084236E+00  0.87368996858E+00  0.71631369121E+00  0.11802632394E+01  0.00000000000E+00 0.  1.
         11    1    3    3    0    0  0.75065312794E+01 -0.41622449417E+01 -0.60581547266E+01  0.10505880913E+02  0.51100000000E-03 0. -1.
        -11    1    3    3    0    0  0.27286038446E+02  0.16873629551E+02  0.21994232229E+02  0.38897217380E+02  0.51100000000E-03 0.  1.
         12    1    3    3    0    0 -0.34451128883E+02 -0.13585074578E+02 -0.16652391194E+02  0.40604638468E+02  0.00000000000E+00 0. -1.
</event>
<event>
 7    1  0.4195243E-015  0.9000772E+02  0.7816164E-02  0.1186339E+00
        -11   -1    0    0    0    0  0.00000000000E+00  0.00000000000E+00  0.45593999997E+02  0.45594000000E+02  0.51100000000E-03 0. -1.
         11   -1    0    0    0    0 -0.00000000000E+00 -0.00000000000E+00 -0.45593999997E+02  0.45594000000E+02  0.51100000000E-03 0.  1.
    9900012    2    1    2    0    0  0.99898145501E+00  0.62801600617E+00  0.26295810193E-01  0.90007720575E+02  0.89999981687E+02 0.  0.
        -12    1    1    2    0    0 -0.99898145501E+00 -0.62801600617E+00 -0.26295810193E-01  0.11802794250E+01  0.00000000000E+00 0.  1.
         11    1    3    3    0    0 -0.33231071335E+01 -0.40893767332E+02  0.25883564961E+01  0.41110130591E+02  0.51100000000E-03 0. -1.
        -11    1    3    3    0    0  0.30127531215E+01  0.36888727689E+01  0.82518759959E+01  0.95277448218E+01  0.51100000000E-03 0.  1.
        -12    1    3    3    0    0  0.13093354670E+01  0.37832910569E+02 -0.10813936682E+02  0.39369845162E+02  0.00000000000E+00 0.  1.
</event>
<event>
 7    1  0.4195243E-015  0.9000772E+02  0.7816164E-02  0.1186339E+00
        -11   -1    0    0    0    0  0.00000000000E+00  0.00000000000E+00  0.45593999997E+02  0.45594000000E+02  0.51100000000E-03 0. -1.
         11   -1    0    0    0    0 -0.00000000000E+00 -0.00000000000E+00 -0.45593999997E+02  0.45594000000E+02  0.51100000000E-03 0.  1.
    9900012    2    1    2    0    0 -0.65328243327E+00 -0.67211548894E+00 -0.71730892258E+00  0.90007724923E+02  0.89999986092E+02 0.  0.
        -12    1    1    2    0    0  0.65328243327E+00  0.67211548894E+00  0.71730892258E+00  0.11802750775E+01  0.00000000000E+00 0.  1.
         11    1    3    3    0    0 -0.18422407339E+02  0.21515995622E+02  0.23389069862E+02  0.36733795734E+02  0.51100000000E-03 0. -1.
        -11    1    3    3    0    0 -0.85323742042E+00  0.66301723740E+01  0.49452819154E+01  0.83152277953E+01  0.51100000000E-03 0.  1.
        -12    1    3    3    0    0  0.18622362326E+02 -0.28818283485E+02 -0.29051660700E+02  0.44958701394E+02  0.00000000000E+00 0.  1.
</event>
<event>
 7    1  0.4195243E-015  0.9000772E+02  0.7816164E-02  0.1186339E+00
        -11   -1    0    0    0    0  0.00000000000E+00  0.00000000000E+00  0.45593999997E+02  0.45594000000E+02  0.51100000000E-03 0. -1.
         11   -1    0    0    0    0 -0.00000000000E+00 -0.00000000000E+00 -0.45593999997E+02  0.45594000000E+02  0.51100000000E-03 0.  1.
    9900012    2    1    2    0    0  0.96912525549E+00  0.29108143315E+00  0.60756032321E+00  0.90007719649E+02  0.89999980748E+02 0.  0.
        -12    1    1    2    0    0 -0.96912525549E+00 -0.29108143315E+00 -0.60756032321E+00  0.11802803514E+01  0.00000000000E+00 0.  1.
         11    1    3    3    0    0 -0.26202714805E+01  0.53800326108E+01  0.73210434538E+01  0.94555936375E+01  0.51100000000E-03 0. -1.
        -11    1    3    3    0    0  0.37393934573E+02 -0.45804891427E+01  0.14803319936E+02  0.40477469104E+02  0.51100000000E-03 0.  1.
         12    1    3    3    0    0 -0.33804537837E+02 -0.50846203490E+00 -0.21516803067E+02  0.40074656907E+02  0.00000000000E+00 0. -1.
</event>
<event>
 7    1  0.4195243E-015  0.9000775E+02  0.7816164E-02  0.1186339E+00
        -11   -1    0    0    0    0  0.00000000000E+00  0.00000000000E+00  0.45593999997E+02  0.45594000000E+02  0.51100000000E-03 0.  1.
         11   -1    0    0    0    0 -0.00000000000E+00 -0.00000000000E+00 -0.45593999997E+02  0.45594000000E+02  0.51100000000E-03 0. -1.
    9900012    2    1    2    0    0 -0.45411677969E+00  0.45251646568E+00 -0.99095861985E+00  0.90007749100E+02  0.90000010588E+02 0.  0.
        -12    1    1    2    0    0  0.45411677969E+00 -0.45251646568E+00  0.99095861985E+00  0.11802509003E+01  0.00000000000E+00 0.  1.
         11    1    3    3    0    0 -0.76300207527E+01  0.38968591563E+01 -0.18198338837E+01  0.87586827546E+01  0.51100000000E-03 0. -1.
        -11    1    3    3    0    0 -0.20667541250E+02  0.26117767209E+02  0.17173980616E+02  0.37473065471E+02  0.51100000000E-03 0.  1.
         12    1    3    3    0    0  0.27843445223E+02 -0.29562109900E+02 -0.16345105352E+02  0.43776000875E+02  0.00000000000E+00 0. -1.
</event>
<event>
 7    1  0.4195243E-015  0.9000771E+02  0.7816164E-02  0.1186339E+00
        -11   -1    0    0    0    0  0.00000000000E+00  0.00000000000E+00  0.45593999997E+02  0.45594000000E+02  0.51100000000E-03 0.  1.
         11   -1    0    0    0    0 -0.00000000000E+00 -0.00000000000E+00 -0.45593999997E+02  0.45594000000E+02  0.51100000000E-03 0. -1.
    9900012    2    1    2    0    0 -0.13168438689E+00  0.27673021031E+00 -0.11398039125E+01  0.90007714718E+02  0.89999975753E+02 0.  0.
        -12    1    1    2    0    0  0.13168438689E+00 -0.27673021031E+00  0.11398039125E+01  0.11802852816E+01  0.00000000000E+00 0.  1.
         11    1    3    3    0    0 -0.77450964949E+01 -0.28448054350E+02  0.19591121482E+02  0.35399016331E+02  0.51100000000E-03 0. -1.
        -11    1    3    3    0    0 -0.38508999327E+01 -0.27437795613E+01  0.87786564232E+01  0.99710864719E+01  0.51100000000E-03 0.  1.
        -12    1    3    3    0    0  0.11464312041E+02  0.31468564122E+02 -0.29509581818E+02  0.44637611915E+02  0.00000000000E+00 0.  1.
</event>
<event>
 7    1  0.4195243E-015  0.9000766E+02  0.7816164E-02  0.1186339E+00
        -11   -1    0    0    0    0  0.00000000000E+00  0.00000000000E+00  0.45593999997E+02  0.45594000000E+02  0.51100000000E-03 0.  1.
         11   -1    0    0    0    0 -0.00000000000E+00 -0.00000000000E+00 -0.45593999997E+02  0.45594000000E+02  0.51100000000E-03 0. -1.
    9900012    2    1    2    0    0 -0.33553559143E+00  0.43472727483E-01 -0.11308044621E+01  0.90007664140E+02  0.89999924507E+02 0.  0.
        -12    1    1    2    0    0  0.33553559143E+00 -0.43472727483E-01  0.11308044621E+01  0.11803358601E+01  0.00000000000E+00 0.  1.
         11    1    3    3    0    0 -0.64802188390E+01  0.47535833237E+01  0.69406331830E+01  0.10618953802E+02  0.51100000000E-03 0. -1.
        -11    1    3    3    0    0 -0.14740659407E+02 -0.88752312370E+01  0.30677309946E+02  0.35173201660E+02  0.51100000000E-03 0.  1.
         12    1    3    3    0    0  0.20885342654E+02  0.41651206408E+01 -0.38748747591E+02  0.44215508677E+02  0.00000000000E+00 0. -1.
</event>
<event>
 7    1  0.4195243E-015  0.9000754E+02  0.7816164E-02  0.1186339E+00
        -11   -1    0    0    0    0  0.00000000000E+00  0.00000000000E+00  0.45593999997E+02  0.45594000000E+02  0.51100000000E-03 0.  1.
         11   -1    0    0    0    0 -0.00000000000E+00 -0.00000000000E+00 -0.45593999997E+02  0.45594000000E+02  0.51100000000E-03 0. -1.
    9900012    2    1    2    0    0 -0.98776018816E+00 -0.56954184821E+00 -0.30567466526E+00  0.90007540298E+02  0.89999799030E+02 0.  0.
        -12    1    1    2    0    0  0.98776018816E+00  0.56954184821E+00  0.30567466526E+00  0.11804597016E+01  0.00000000000E+00 0.  1.
         11    1    3    3    0    0 -0.50289212957E+01  0.10237587818E+02  0.85274318699E+01  0.14241325370E+02  0.51100000000E-03 0. -1.
        -11    1    3    3    0    0  0.32259237018E+01  0.22563539432E+02 -0.28908891312E+02  0.36813637318E+02  0.51100000000E-03 0.  1.
         12    1    3    3    0    0  0.81523740574E+00 -0.33370669099E+02  0.20075784777E+02  0.38952577611E+02  0.00000000000E+00 0. -1.
</event>
<event>
 7    1  0.4195243E-015  0.9000769E+02  0.7816164E-02  0.1186339E+00
        -11   -1    0    0    0    0  0.00000000000E+00  0.00000000000E+00  0.45593999997E+02  0.45594000000E+02  0.51100000000E-03 0.  1.
         11   -1    0    0    0    0 -0.00000000000E+00 -0.00000000000E+00 -0.45593999997E+02  0.45594000000E+02  0.51100000000E-03 0. -1.
    9900012    2    1    2    0    0  0.39957196543E+00 -0.10515535226E+01 -0.35735297339E+00  0.90007693381E+02  0.89999954134E+02 0.  0.
        -12    1    1    2    0    0 -0.39957196543E+00  0.10515535226E+01  0.35735297339E+00  0.11803066187E+01  0.00000000000E+00 0.  1.
         11    1    3    3    0    0  0.16083130146E+01 -0.26110483688E+01  0.77652901743E+01  0.83488907101E+01  0.51100000000E-03 0. -1.
        -11    1    3    3    0    0 -0.38528355389E+02  0.50541485122E+01  0.98535100014E+01  0.40088280654E+02  0.51100000000E-03 0.  1.
         12    1    3    3    0    0  0.37319614340E+02 -0.34946536661E+01 -0.17976153149E+02  0.41570522017E+02  0.00000000000E+00 0. -1.
</event>
<event>
 7    1  0.4195243E-015  0.9000768E+02  0.7816164E-02  0.1186339E+00
        -11   -1    0    0    0    0  0.00000000000E+00  0.00000000000E+00  0.45593999997E+02  0.45594000000E+02  0.51100000000E-03 0. -1.
         11   -1    0    0    0    0 -0.00000000000E+00 -0.00000000000E+00 -0.45593999997E+02  0.45594000000E+02  0.51100000000E-03 0.  1.
    9900012    2    1    2    0    0  0.13122440080E+00 -0.11087652377E+01  0.38284742869E+00  0.90007681251E+02  0.89999941843E+02 0.  0.
        -12    1    1    2    0    0 -0.13122440080E+00  0.11087652377E+01 -0.38284742869E+00  0.11803187491E+01  0.00000000000E+00 0.  1.
         11    1    3    3    0    0 -0.22234928855E+02 -0.11045784811E+02  0.34352469800E+02  0.42385063464E+02  0.51100000000E-03 0. -1.
        -11    1    3    3    0    0 -0.45941092744E+01  0.16738211245E+00 -0.60660804403E+01  0.76112540995E+01  0.51100000000E-03 0.  1.
        -12    1    3    3    0    0  0.26960262530E+02  0.97696374604E+01 -0.27903541931E+02  0.40011363687E+02  0.00000000000E+00 0.  1.
</event>
<event>
 7    1  0.4195243E-015  0.9000773E+02  0.7816164E-02  0.1186339E+00
        -11   -1    0    0    0    0  0.00000000000E+00  0.00000000000E+00  0.45593999997E+02  0.45594000000E+02  0.51100000000E-03 0. -1.
         11   -1    0    0    0    0 -0.00000000000E+00 -0.00000000000E+00 -0.45593999997E+02  0.45594000000E+02  0.51100000000E-03 0.  1.
    9900012    2    1    2    0    0  0.11289793091E+01  0.85151980070E-01  0.33344125162E+00  0.90007733840E+02  0.89999995127E+02 0.  0.
        -12    1    1    2    0    0 -0.11289793091E+01 -0.85151980070E-01 -0.33344125162E+00  0.11802661600E+01  0.00000000000E+00 0.  1.
         11    1    3    3    0    0  0.23565276368E+00  0.77241775644E+01  0.30566775797E+01  0.83103387031E+01  0.51100000000E-03 0. -1.
        -11    1    3    3    0    0  0.47344040496E+01 -0.22910834388E+02 -0.37114291915E+02  0.43872446691E+02  0.51100000000E-03 0.  1.
         12    1    3    3    0    0 -0.38410775042E+01  0.15271808803E+02  0.34391055587E+02  0.37824948446E+02  0.00000000000E+00 0. -1.
</event>
<event>
 7    1  0.4195243E-015  0.9000693E+02  0.7816164E-02  0.1186341E+00
        -11   -1    0    0    0    0  0.00000000000E+00  0.00000000000E+00  0.45593999997E+02  0.45594000000E+02  0.51100000000E-03 0.  1.
         11   -1    0    0    0    0 -0.00000000000E+00 -0.00000000000E+00 -0.45593999997E+02  0.45594000000E+02  0.51100000000E-03 0. -1.
    9900012    2    1    2    0    0 -0.84077276539E+00  0.82925385721E+00 -0.18987718748E-01  0.90006932120E+02  0.89999182821E+02 0.  0.
        -12    1    1    2    0    0  0.84077276539E+00 -0.82925385721E+00  0.18987718748E-01  0.11810678796E+01  0.00000000000E+00 0.  1.
         11    1    3    3    0    0 -0.12767509211E+01  0.38117000294E+01  0.11384563792E+02  0.12073418862E+02  0.51100000000E-03 0. -1.
        -11    1    3    3    0    0 -0.25256637262E+02  0.11469702445E+02  0.20503020221E+02  0.34493849283E+02  0.51100000000E-03 0.  1.
         12    1    3    3    0    0  0.25692615417E+02 -0.14452148617E+02 -0.31906571731E+02  0.43439663975E+02  0.00000000000E+00 0. -1.
</event>
<event>
 7    1  0.4195243E-015  0.9000752E+02  0.7816164E-02  0.1186339E+00
        -11   -1    0    0    0    0  0.00000000000E+00  0.00000000000E+00  0.45593999997E+02  0.45594000000E+02  0.51100000000E-03 0. -1.
         11   -1    0    0    0    0 -0.00000000000E+00 -0.00000000000E+00 -0.45593999997E+02  0.45594000000E+02  0.51100000000E-03 0.  1.
    9900012    2    1    2    0    0 -0.79575584411E+00 -0.40294608502E-01 -0.87102957791E+00  0.90007515547E+02  0.89999773952E+02 0.  0.
        -12    1    1    2    0    0  0.79575584411E+00  0.40294608502E-01  0.87102957791E+00  0.11804844533E+01  0.00000000000E+00 0.  1.
         11    1    3    3    0    0  0.95613824344E+01  0.23826827021E+02  0.25669772407E+02  0.36305301756E+02  0.51100000000E-03 0. -1.
        -11    1    3    3    0    0  0.10125814981E+02  0.23587991559E+01  0.10838452536E+01  0.10453266632E+02  0.51100000000E-03 0.  1.
        -12    1    3    3    0    0 -0.20482953259E+02 -0.26225920786E+02 -0.27624647238E+02  0.43248947158E+02  0.00000000000E+00 0.  1.
</event>
<event>
 7    1  0.4195243E-015  0.9000774E+02  0.7816164E-02  0.1186339E+00
        -11   -1    0    0    0    0  0.00000000000E+00  0.00000000000E+00  0.45593999997E+02  0.45594000000E+02  0.51100000000E-03 0. -1.
         11   -1    0    0    0    0 -0.00000000000E+00 -0.00000000000E+00 -0.45593999997E+02  0.45594000000E+02  0.51100000000E-03 0.  1.
    9900012    2    1    2    0    0  0.97527883235E+00  0.56756833356E+00  0.34597960423E+00  0.90007743883E+02  0.90000005303E+02 0.  0.
        -12    1    1    2    0    0 -0.97527883235E+00 -0.56756833356E+00 -0.34597960423E+00  0.11802561165E+01  0.00000000000E+00 0.  1.
         11    1    3    3    0    0 -0.19539285105E+01  0.61226453995E+01  0.71609635408E+01  0.96220591562E+01  0.51100000000E-03 0. -1.
        -11    1    3    3    0    0  0.38410429906E+02  0.82942380436E+01  0.69124773005E+01  0.39899095891E+02  0.51100000000E-03 0.  1.
         12    1    3    3    0    0 -0.35481222563E+02 -0.13849315109E+02 -0.13727461237E+02  0.40486588836E+02  0.00000000000E+00 0. -1.
</event>
<event>
 7    1  0.4195243E-015  0.9000776E+02  0.7816164E-02  0.1186339E+00
        -11   -1    0    0    0    0  0.00000000000E+00  0.00000000000E+00  0.45593999997E+02  0.45594000000E+02  0.51100000000E-03 0.  1.
         11   -1    0    0    0    0 -0.00000000000E+00 -0.00000000000E+00 -0.45593999997E+02  0.45594000000E+02  0.51100000000E-03 0. -1.
    9900012    2    1    2    0    0 -0.58292366735E+00  0.11397423973E+00 -0.10198959184E+01  0.90007755189E+02  0.90000016758E+02 0.  0.
        -12    1    1    2    0    0  0.58292366735E+00 -0.11397423973E+00  0.10198959184E+01  0.11802448109E+01  0.00000000000E+00 0.  1.
         11    1    3    3    0    0  0.86031187013E+01 -0.15345904446E+01 -0.11636659831E+01  0.88160500227E+01  0.51100000000E-03 0. -1.
        -11    1    3    3    0    0  0.67609213582E+01  0.30164257502E+02 -0.25167661848E+02  0.39862309158E+02  0.51100000000E-03 0.  1.
         12    1    3    3    0    0 -0.15946963727E+02 -0.28515692818E+02  0.25311431912E+02  0.41329396009E+02  0.00000000000E+00 0. -1.
</event>
<event>
 7    1  0.4195243E-015  0.9000775E+02  0.7816164E-02  0.1186339E+00
        -11   -1    0    0    0    0  0.00000000000E+00  0.00000000000E+00  0.45593999997E+02  0.45594000000E+02  0.51100000000E-03 0.  1.
         11   -1    0    0    0    0 -0.00000000000E+00 -0.00000000000E+00 -0.45593999997E+02  0.45594000000E+02  0.51100000000E-03 0. -1.
    9900012    2    1    2    0    0  0.25905125244E+00  0.73138121899E+00  0.88936740202E+00  0.90007745614E+02  0.90000007057E+02 0.  0.
        -12    1    1    2    0    0 -0.25905125244E+00 -0.73138121899E+00 -0.88936740202E+00  0.11802543856E+01  0.00000000000E+00 0.  1.
         11    1    3    3    0    0 -0.10454407353E+02 -0.42290097392E+01  0.65017768781E+00  0.11296100556E+02  0.51100000000E-03 0. -1.
        -11    1    3    3    0    0 -0.99355326840E+01 -0.13050264654E+02  0.32488473657E+02  0.36394026132E+02  0.51100000000E-03 0.  1.
         12    1    3    3    0    0  0.20648991289E+02  0.18010655612E+02 -0.32249283942E+02  0.42317618927E+02  0.00000000000E+00 0. -1.
</event>
<event>
 7    1  0.4195243E-015  0.9000778E+02  0.7816164E-02  0.1186339E+00
        -11   -1    0    0    0    0  0.00000000000E+00  0.00000000000E+00  0.45593999997E+02  0.45594000000E+02  0.51100000000E-03 0. -1.
         11   -1    0    0    0    0 -0.00000000000E+00 -0.00000000000E+00 -0.45593999997E+02  0.45594000000E+02  0.51100000000E-03 0.  1.
    9900012    2    1    2    0    0 -0.43543564746E+00 -0.14667312701E+00  0.10871119088E+01  0.90007775652E+02  0.90000037491E+02 0.  0.
        -12    1    1    2    0    0  0.43543564746E+00  0.14667312701E+00 -0.10871119088E+01  0.11802243480E+01  0.00000000000E+00 0.  1.
         11    1    3    3    0    0 -0.66923184701E+01 -0.59648190113E+01  0.33924050459E+01  0.95851241306E+01  0.51100000000E-03 0. -1.
        -11    1    3    3    0    0 -0.21425385764E+01 -0.30476024796E+02 -0.22598181648E+02  0.38000741742E+02  0.51100000000E-03 0.  1.
         12    1    3    3    0    0  0.83994213990E+01  0.36294170680E+02  0.20292888511E+02  0.42421909779E+02  0.00000000000E+00 0. -1.
</event>
<event>
 7    1  0.6573235E-015  0.9000792E+02  0.7816164E-02  0.1186339E+00
        -11   -1    0    0    0    0  0.00000000000E+00  0.00000000000E+00  0.45593999997E+02  0.45594000000E+02  0.51100000000E-03 0. -1.
         11   -1    0    0    0    0 -0.00000000000E+00 -0.00000000000E+00 -0.45593999997E+02  0.45594000000E+02  0.51100000000E-03 0.  1.
    9900012    2    1    2    0    0 -0.68537300847E+00 -0.23963430353E+00  0.93028665898E+00  0.90007917788E+02  0.90000181502E+02 0.  0.
        -12    1    1    2    0    0  0.68537300847E+00  0.23963430353E+00 -0.93028665898E+00  0.11800822124E+01  0.00000000000E+00 0.  1.
         11    1    3    3    0    0 -0.31168701102E+02 -0.67710585252E+01  0.22705850447E+02  0.39152149452E+02  0.51100000000E-03 0. -1.
        -11    1    3    3    0    0  0.34996408227E+01  0.19273902879E+01  0.88920390091E+01  0.97483679254E+01  0.51100000000E-03 0.  1.
        -12    1    3    3    0    0  0.26983687270E+02  0.46040339338E+01 -0.30667602797E+02  0.41107400410E+02  0.00000000000E+00 0.  1.
</event>
<event>
 7    1  0.4195243E-015  0.9000776E+02  0.7816164E-02  0.1186339E+00
        -11   -1    0    0    0    0  0.00000000000E+00  0.00000000000E+00  0.45593999997E+02  0.45594000000E+02  0.51100000000E-03 0. -1.
         11   -1    0    0    0    0 -0.00000000000E+00 -0.00000000000E+00 -0.45593999997E+02  0.45594000000E+02  0.51100000000E-03 0.  1.
    9900012    2    1    2    0    0  0.33195083298E+00 -0.11078710019E+01  0.23538598618E+00  0.90007755926E+02  0.90000017504E+02 0.  0.
        -12    1    1    2    0    0 -0.33195083298E+00  0.11078710019E+01 -0.23538598618E+00  0.11802440743E+01  0.00000000000E+00 0.  1.
         11    1    3    3    0    0 -0.63648986622E+01  0.41859942474E+01  0.56588471244E+01  0.94898384527E+01  0.51100000000E-03 0. -1.
        -11    1    3    3    0    0 -0.18683338782E+02  0.16650062280E+02 -0.29897249018E+02  0.38988937163E+02  0.51100000000E-03 0.  1.
         12    1    3    3    0    0  0.25380188277E+02 -0.21943927530E+02  0.24473787880E+02  0.41528980310E+02  0.00000000000E+00 0. -1.
</event>
<event>
 7    1  0.4195243E-015  0.9000773E+02  0.7816164E-02  0.1186339E+00
        -11   -1    0    0    0    0  0.00000000000E+00  0.00000000000E+00  0.45593999997E+02  0.45594000000E+02  0.51100000000E-03 0.  1.
         11   -1    0    0    0    0 -0.00000000000E+00 -0.00000000000E+00 -0.45593999997E+02  0.45594000000E+02  0.51100000000E-03 0. -1.
    9900012    2    1    2    0    0  0.26098221879E+00  0.59239222777E+00 -0.98691471010E+00  0.90007728457E+02  0.89999989673E+02 0.  0.
        -12    1    1    2    0    0 -0.26098221879E+00 -0.59239222777E+00  0.98691471010E+00  0.11802715429E+01  0.00000000000E+00 0.  1.
         11    1    3    3    0    0  0.19032587894E+02 -0.47380709249E+01 -0.36002947250E+02  0.40998791799E+02  0.51100000000E-03 0. -1.
        -11    1    3    3    0    0  0.50575703217E+00 -0.18526596674E+01 -0.42591585208E+01  0.46721054767E+01  0.51100000000E-03 0.  1.
        -12    1    3    3    0    0 -0.19277362707E+02  0.71831228201E+01  0.39275191061E+02  0.44336831182E+02  0.00000000000E+00 0.  1.
</event>
<event>
 7    1  0.4195243E-015  0.9000799E+02  0.7816164E-02  0.1186339E+00
        -11   -1    0    0    0    0  0.00000000000E+00  0.00000000000E+00  0.45593999997E+02  0.45594000000E+02  0.51100000000E-03 0. -1.
         11   -1    0    0    0    0 -0.00000000000E+00 -0.00000000000E+00 -0.45593999997E+02  0.45594000000E+02  0.51100000000E-03 0.  1.
    9900012    2    1    2    0    0 -0.74830739096E+00  0.60280152028E+00  0.68490669511E+00  0.90007986947E+02  0.90000251574E+02 0.  0.
        -12    1    1    2    0    0  0.74830739096E+00 -0.60280152028E+00 -0.68490669511E+00  0.11800130530E+01  0.00000000000E+00 0.  1.
         11    1    3    3    0    0  0.75172277147E+01  0.19732628804E+01 -0.36314503728E+01  0.85784562120E+01  0.51100000000E-03 0. -1.
        -11    1    3    3    0    0  0.27339783008E+02  0.20545835781E+02  0.16372154169E+02  0.37916256873E+02  0.51100000000E-03 0.  1.
         12    1    3    3    0    0 -0.35605318114E+02 -0.21916297142E+02 -0.12055797101E+02  0.43513273861E+02  0.00000000000E+00 0. -1.
</event>
<event>
 7    1  0.4195243E-015  0.9000687E+02  0.7816164E-02  0.1186341E+00
        -11   -1    0    0    0    0  0.00000000000E+00  0.00000000000E+00  0.45593999997E+02  0.45594000000E+02  0.51100000000E-03 0.  1.
         11   -1    0    0    0    0 -0.00000000000E+00 -0.00000000000E+00 -0.45593999997E+02  0.45594000000E+02  0.51100000000E-03 0. -1.
    9900012    2    1    2    0    0 -0.37706525038E+00  0.46544747772E+00 -0.10179584521E+01  0.90006873856E+02  0.89999123787E+02 0.  0.
        -12    1    1    2    0    0  0.37706525038E+00 -0.46544747772E+00  0.10179584521E+01  0.11811261438E+01  0.00000000000E+00 0.  1.
         11    1    3    3    0    0 -0.12256807765E+02 -0.18952784546E+02 -0.34631120256E+02  0.41337052013E+02  0.51100000000E-03 0. -1.
        -11    1    3    3    0    0  0.54318860560E+01 -0.40107195933E+01 -0.51804190633E+00  0.67719735277E+01  0.51100000000E-03 0.  1.
        -12    1    3    3    0    0  0.64478564586E+01  0.23428951617E+02  0.34131203710E+02  0.41897848316E+02  0.00000000000E+00 0.  1.
</event>
<event>
 7    1  0.4195243E-015  0.9000742E+02  0.7816164E-02  0.1186340E+00
        -11   -1    0    0    0    0  0.00000000000E+00  0.00000000000E+00  0.45593999997E+02  0.45594000000E+02  0.51100000000E-03 0.  1.
         11   -1    0    0    0    0 -0.00000000000E+00 -0.00000000000E+00 -0.45593999997E+02  0.45594000000E+02  0.51100000000E-03 0. -1.
    9900012    2    1    2    0    0  0.11129046355E+01  0.22634270474E+00  0.32247678519E+00  0.90007415812E+02  0.89999672900E+02 0.  0.
        -12    1    1    2    0    0 -0.11129046355E+01 -0.22634270474E+00 -0.32247678519E+00  0.11805841879E+01  0.00000000000E+00 0.  1.
         11    1    3    3    0    0  0.49368483663E+01 -0.27974170988E+01  0.70998331696E+01  0.90887647959E+01  0.51100000000E-03 0. -1.
        -11    1    3    3    0    0  0.25222919904E+02 -0.22646850982E+02  0.14304036306E+02  0.36792404145E+02  0.51100000000E-03 0.  1.
         12    1    3    3    0    0 -0.29046863635E+02  0.25670610786E+02 -0.21081392690E+02  0.44126246871E+02  0.00000000000E+00 0. -1.
</event>
<event>
 7    1  0.4195243E-015  0.9000778E+02  0.7816164E-02  0.1186339E+00
        -11   -1    0    0    0    0  0.00000000000E+00  0.00000000000E+00  0.45593999997E+02  0.45594000000E+02  0.51100000000E-03 0.  1.
         11   -1    0    0    0    0 -0.00000000000E+00 -0.00000000000E+00 -0.45593999997E+02  0.45594000000E+02  0.51100000000E-03 0. -1.
    9900012    2    1    2    0    0  0.11350039512E+01  0.17557331873E+00 -0.27175021370E+00  0.90007784707E+02  0.90000046665E+02 0.  0.
        -12    1    1    2    0    0 -0.11350039512E+01 -0.17557331873E+00  0.27175021370E+00  0.11802152931E+01  0.00000000000E+00 0.  1.
         11    1    3    3    0    0  0.38436622119E+02  0.19829802428E+02  0.24218520698E+01  0.43318129599E+02  0.51100000000E-03 0. -1.
        -11    1    3    3    0    0 -0.59940982841E+01  0.49960738135E+00  0.59558082371E+01  0.84646602881E+01  0.51100000000E-03 0.  1.
        -12    1    3    3    0    0 -0.31307519884E+02 -0.20153836491E+02 -0.86494105206E+01  0.38224994819E+02  0.00000000000E+00 0.  1.
</event>
<event>
 7    1  0.4195243E-015  0.9000773E+02  0.7816164E-02  0.1186339E+00
        -11   -1    0    0    0    0  0.00000000000E+00  0.00000000000E+00  0.45593999997E+02  0.45594000000E+02  0.51100000000E-03 0.  1.
         11   -1    0    0    0    0 -0.00000000000E+00 -0.00000000000E+00 -0.45593999997E+02  0.45594000000E+02  0.51100000000E-03 0. -1.
    9900012    2    1    2    0    0 -0.43408557238E+00 -0.11576002320E+00 -0.10914276454E+01  0.90007726738E+02  0.89999987931E+02 0.  0.
        -12    1    1    2    0    0  0.43408557238E+00  0.11576002320E+00  0.10914276454E+01  0.11802732617E+01  0.00000000000E+00 0.  1.
         11    1    3    3    0    0  0.10158769326E+02 -0.66848717916E+00  0.14433019116E+01  0.10282538111E+02  0.51100000000E-03 0. -1.
        -11    1    3    3    0    0  0.33856257443E+02 -0.59581094232E+01  0.27785916405E+01  0.34488633022E+02  0.51100000000E-03 0.  1.
         12    1    3    3    0    0 -0.44449112342E+02  0.65108365792E+01 -0.53133211975E+01  0.45236555606E+02  0.00000000000E+00 0. -1.
</event>
<event>
 7    1  0.4195243E-015  0.9000674E+02  0.7816164E-02  0.1186341E+00
        -11   -1    0    0    0    0  0.00000000000E+00  0.00000000000E+00  0.45593999997E+02  0.45594000000E+02  0.51100000000E-03 0.  1.
         11   -1    0    0    0    0 -0.00000000000E+00 -0.00000000000E+00 -0.45593999997E+02  0.45594000000E+02  0.51100000000E-03 0. -1.
    9900012    2    1    2    0    0  0.43463308525E-01  0.10501955868E+01 -0.53904156273E+00  0.90006744043E+02  0.89998992259E+02 0.  0.
        -12    1    1    2    0    0 -0.43463308525E-01 -0.10501955868E+01  0.53904156273E+00  0.11812559570E+01  0.00000000000E+00 0.  1.
         11    1    3    3    0    0 -0.13393147081E+01  0.25743605562E+01 -0.88292634078E+01  0.92939221401E+01  0.51100000000E-03 0. -1.
        -11    1    3    3    0    0 -0.31229232105E+02 -0.24484874930E+02 -0.12520146036E+01  0.39703168375E+02  0.51100000000E-03 0.  1.
         12    1    3    3    0    0  0.32612010121E+02  0.22960709960E+02  0.95422364487E+01  0.41009653528E+02  0.00000000000E+00 0. -1.
</event>
<event>
 7    1  0.4195243E-015  0.9000768E+02  0.7816164E-02  0.1186339E+00
        -11   -1    0    0    0    0  0.00000000000E+00  0.00000000000E+00  0.45593999997E+02  0.45594000000E+02  0.51100000000E-03 0. -1.
         11   -1    0    0    0    0 -0.00000000000E+00 -0.00000000000E+00 -0.45593999997E+02  0.45594000000E+02  0.51100000000E-03 0.  1.
    9900012    2    1    2    0    0 -0.23040452879E+00 -0.64434493590E+00  0.96171096664E+00  0.90007680286E+02  0.89999940866E+02 0.  0.
        -12    1    1    2    0    0  0.23040452879E+00  0.64434493590E+00 -0.96171096664E+00  0.11803197138E+01  0.00000000000E+00 0.  1.
         11    1    3    3    0    0 -0.36547620415E+02  0.17433220990E+02 -0.59601821792E+00  0.40496925687E+02  0.51100000000E-03 0. -1.
        -11    1    3    3    0    0  0.34786425021E+01  0.35312163130E+01  0.82598731330E+01  0.96330652827E+01  0.51100000000E-03 0.  1.
        -12    1    3    3    0    0  0.32838573384E+02 -0.21608782239E+02 -0.67021439485E+01  0.39877689317E+02  0.00000000000E+00 0.  1.
</event>
<event>
 7    1  0.4195243E-015  0.9000777E+02  0.7816164E-02  0.1186339E+00
        -11   -1    0    0    0    0  0.00000000000E+00  0.00000000000E+00  0.45593999997E+02  0.45594000000E+02  0.51100000000E-03 0. -1.
         11   -1    0    0    0    0 -0.00000000000E+00 -0.00000000000E+00 -0.45593999997E+02  0.45594000000E+02  0.51100000000E-03 0.  1.
    9900012    2    1    2    0    0 -0.75152785726E+00  0.79062354845E+00  0.45063646678E+00  0.90007765726E+02  0.90000027434E+02 0.  0.
        -12    1    1    2    0    0  0.75152785726E+00 -0.79062354845E+00 -0.45063646678E+00  0.11802342737E+01  0.00000000000E+00 0.  1.
         11    1    3    3    0    0  0.22300288100E+02 -0.36009188519E+01  0.26664025705E+02  0.34946240613E+02  0.51100000000E-03 0. -1.
        -11    1    3    3    0    0  0.99293732742E+01 -0.61395556573E+01 -0.64142323307E-01  0.11674361301E+02  0.51100000000E-03 0.  1.
        -12    1    3    3    0    0 -0.32981189232E+02  0.10531098058E+02 -0.26149246915E+02  0.43387163812E+02  0.00000000000E+00 0.  1.
</event>
<event>
 7    1  0.4195243E-015  0.9000767E+02  0.7816164E-02  0.1186339E+00
        -11   -1    0    0    0    0  0.00000000000E+00  0.00000000000E+00  0.45593999997E+02  0.45594000000E+02  0.51100000000E-03 0. -1.
         11   -1    0    0    0    0 -0.00000000000E+00 -0.00000000000E+00 -0.45593999997E+02  0.45594000000E+02  0.51100000000E-03 0.  1.
    9900012    2    1    2    0    0 -0.60076710735E+00 -0.53516256778E-01  0.10145872197E+01  0.90007672785E+02  0.89999933266E+02 0.  0.
        -12    1    1    2    0    0  0.60076710735E+00  0.53516256778E-01 -0.10145872197E+01  0.11803272146E+01  0.00000000000E+00 0.  1.
         11    1    3    3    0    0 -0.10070006024E+02 -0.43519022057E+01  0.35791072724E+02  0.37434542352E+02  0.51100000000E-03 0. -1.
        -11    1    3    3    0    0 -0.99733204710E+01  0.26099184709E+01  0.24006594161E+01  0.10584987555E+02  0.51100000000E-03 0.  1.
        -12    1    3    3    0    0  0.19442559388E+02  0.16884674780E+01 -0.37177144920E+02  0.41988142878E+02  0.00000000000E+00 0.  1.
</event>
<event>
 7    1  0.5163098E-015  0.9000777E+02  0.7816164E-02  0.1186339E+00
        -11   -1    0    0    0    0  0.00000000000E+00  0.00000000000E+00  0.45593999997E+02  0.45594000000E+02  0.51100000000E-03 0.  1.
         11   -1    0    0    0    0 -0.00000000000E+00 -0.00000000000E+00 -0.45593999997E+02  0.45594000000E+02  0.51100000000E-03 0. -1.
    9900012    2    1    2    0    0  0.66770455093E+00 -0.80369074462E+00 -0.54882197941E+00  0.90007765385E+02  0.90000027089E+02 0.  0.
        -12    1    1    2    0    0 -0.66770455093E+00  0.80369074462E+00  0.54882197941E+00  0.11802346146E+01  0.00000000000E+00 0.  1.
         11    1    3    3    0    0  0.50828219930E+01 -0.32905745401E+00 -0.43245161946E+02  0.43544085594E+02  0.51100000000E-03 0. -1.
        -11    1    3    3    0    0  0.28112030307E+01  0.57482886541E+01  0.68640725990E+01  0.93840917428E+01  0.51100000000E-03 0.  1.
        -12    1    3    3    0    0 -0.72263204728E+01 -0.62229219447E+01  0.35832267368E+02  0.37079588048E+02  0.00000000000E+00 0.  1.
</event>
<event>
 7    1  0.4195243E-015  0.9000772E+02  0.7816164E-02  0.1186339E+00
        -11   -1    0    0    0    0  0.00000000000E+00  0.00000000000E+00  0.45593999997E+02  0.45594000000E+02  0.51100000000E-03 0. -1.
         11   -1    0    0    0    0 -0.00000000000E+00 -0.00000000000E+00 -0.45593999997E+02  0.45594000000E+02  0.51100000000E-03 0.  1.
    9900012    2    1    2    0    0 -0.54329173079E+00 -0.85798031436E+00  0.60147357347E+00  0.90007717583E+02  0.89999978655E+02 0.  0.
        -12    1    1    2    0    0  0.54329173079E+00  0.85798031436E+00 -0.60147357347E+00  0.11802824171E+01  0.00000000000E+00 0.  1.
         11    1    3    3    0    0  0.18702030049E+02  0.22854286295E+02  0.17542921430E+02  0.34348776144E+02  0.51100000000E-03 0. -1.
        -11    1    3    3    0    0  0.80522689477E+01  0.70562129787E+01  0.10624209148E+01  0.10759085243E+02  0.51100000000E-03 0.  1.
        -12    1    3    3    0    0 -0.27297590728E+02 -0.30768479588E+02 -0.18003868771E+02  0.44899856196E+02  0.00000000000E+00 0.  1.
</event>
<event>
 7    1  0.4195243E-015  0.9000777E+02  0.7816164E-02  0.1186339E+00
        -11   -1    0    0    0    0  0.00000000000E+00  0.00000000000E+00  0.45593999997E+02  0.45594000000E+02  0.51100000000E-03 0. -1.
         11   -1    0    0    0    0 -0.00000000000E+00 -0.00000000000E+00 -0.45593999997E+02  0.45594000000E+02  0.51100000000E-03 0.  1.
    9900012    2    1    2    0    0 -0.34847134632E+00  0.68766670426E+00  0.89366245294E+00  0.90007766822E+02  0.90000028544E+02 0.  0.
        -12    1    1    2    0    0  0.34847134632E+00 -0.68766670426E+00 -0.89366245294E+00  0.11802331783E+01  0.00000000000E+00 0.  1.
         11    1    3    3    0    0 -0.47389506278E+01 -0.10190010550E+02 -0.99534109525E+00  0.11282050887E+02  0.51100000000E-03 0. -1.
        -11    1    3    3    0    0  0.23350534082E+02  0.18368086768E+02  0.31161324221E+02  0.43054177276E+02  0.51100000000E-03 0.  1.
         12    1    3    3    0    0 -0.18960054800E+02 -0.74904095135E+01 -0.29272320673E+02  0.35671538659E+02  0.00000000000E+00 0. -1.
</event>
<event>
 7    1  0.4195243E-015  0.9000801E+02  0.7816164E-02  0.1186339E+00
        -11   -1    0    0    0    0  0.00000000000E+00  0.00000000000E+00  0.45593999997E+02  0.45594000000E+02  0.51100000000E-03 0.  1.
         11   -1    0    0    0    0 -0.00000000000E+00 -0.00000000000E+00 -0.45593999997E+02  0.45594000000E+02  0.51100000000E-03 0. -1.
    9900012    2    1    2    0    0  0.15799297823E+00 -0.11545026334E+01 -0.18584057310E+00  0.90008010665E+02  0.90000275606E+02 0.  0.
        -12    1    1    2    0    0 -0.15799297823E+00  0.11545026334E+01  0.18584057310E+00  0.11799893349E+01  0.00000000000E+00 0.  1.
         11    1    3    3    0    0 -0.33635120798E+02 -0.21449736895E+02  0.98717519023E+01  0.41095791145E+02  0.51100000000E-03 0. -1.
        -11    1    3    3    0    0 -0.13996093337E+01  0.92447640540E+01  0.29415210870E+01  0.98018934531E+01  0.51100000000E-03 0.  1.
        -12    1    3    3    0    0  0.35192723109E+02  0.11050470208E+02 -0.12999113562E+02  0.39110326067E+02  0.00000000000E+00 0.  1.
</event>
<event>
 7    1  0.4195243E-015  0.9000776E+02  0.7816164E-02  0.1186339E+00
        -11   -1    0    0    0    0  0.00000000000E+00  0.00000000000E+00  0.45593999997E+02  0.45594000000E+02  0.51100000000E-03 0.  1.
         11   -1    0    0    0    0 -0.00000000000E+00 -0.00000000000E+00 -0.45593999997E+02  0.45594000000E+02  0.51100000000E-03 0. -1.
    9900012    2    1    2    0    0  0.11539348938E+01  0.15656964747E+00  0.19206456806E+00  0.90007759096E+02  0.90000020716E+02 0.  0.
        -12    1    1    2    0    0 -0.11539348938E+01 -0.15656964747E+00 -0.19206456806E+00  0.11802409042E+01  0.00000000000E+00 0.  1.
         11    1    3    3    0    0  0.91570094988E+01 -0.43983319501E+01 -0.10575529501E+01  0.10213450221E+02  0.51100000000E-03 0. -1.
        -11    1    3    3    0    0 -0.29738145666E+02  0.25556001252E+02 -0.18841247971E+02  0.43502403761E+02  0.51100000000E-03 0.  1.
         12    1    3    3    0    0  0.21735071061E+02 -0.21001099654E+02  0.20090865489E+02  0.36291905114E+02  0.00000000000E+00 0. -1.
</event>
<event>
 7    1  0.4195243E-015  0.9000771E+02  0.7816164E-02  0.1186339E+00
        -11   -1    0    0    0    0  0.00000000000E+00  0.00000000000E+00  0.45593999997E+02  0.45594000000E+02  0.51100000000E-03 0.  1.
         11   -1    0    0    0    0 -0.00000000000E+00 -0.00000000000E+00 -0.45593999997E+02  0.45594000000E+02  0.51100000000E-03 0. -1.
    9900012    2    1    2    0    0  0.10677439401E+00 -0.10935745261E+01 -0.43102174852E+00  0.90007709458E+02  0.89999970423E+02 0.  0.
        -12    1    1    2    0    0 -0.10677439401E+00  0.10935745261E+01  0.43102174852E+00  0.11802905418E+01  0.00000000000E+00 0.  1.
         11    1    3    3    0    0  0.31219367641E+01 -0.98037222543E+01  0.62358396613E+00  0.10307682398E+02  0.51100000000E-03 0. -1.
        -11    1    3    3    0    0 -0.11042383517E+02 -0.29222410165E+02 -0.19435015653E+02  0.36791348484E+02  0.51100000000E-03 0.  1.
         12    1    3    3    0    0  0.80272211472E+01  0.37932557893E+02  0.18380409938E+02  0.42908678576E+02  0.00000000000E+00 0. -1.
</event>
<event>
 7    1  0.4195243E-015  0.9000763E+02  0.7816164E-02  0.1186339E+00
        -11   -1    0    0    0    0  0.00000000000E+00  0.00000000000E+00  0.45593999997E+02  0.45594000000E+02  0.51100000000E-03 0.  1.
         11   -1    0    0    0    0 -0.00000000000E+00 -0.00000000000E+00 -0.45593999997E+02  0.45594000000E+02  0.51100000000E-03 0. -1.
    9900012    2    1    2    0    0  0.11351601799E+01  0.28375294943E+00 -0.15548033243E+00  0.90007627811E+02  0.89999887698E+02 0.  0.
        -12    1    1    2    0    0 -0.11351601799E+01 -0.28375294943E+00  0.15548033243E+00  0.11803721888E+01  0.00000000000E+00 0.  1.
         11    1    3    3    0    0 -0.33501875923E+02 -0.22988567250E+02 -0.38391131187E+01  0.40811624623E+02  0.51100000000E-03 0. -1.
        -11    1    3    3    0    0  0.27259545729E+01  0.15337515212E+01  0.96332959894E+01  0.10128356922E+02  0.51100000000E-03 0.  1.
        -12    1    3    3    0    0  0.31911081530E+02  0.21738568678E+02 -0.59496632031E+01  0.39067646266E+02  0.00000000000E+00 0.  1.
</event>
<event>
 7    1  0.4195243E-015  0.9000787E+02  0.7816164E-02  0.1186339E+00
        -11   -1    0    0    0    0  0.00000000000E+00  0.00000000000E+00  0.45593999997E+02  0.45594000000E+02  0.51100000000E-03 0.  1.
         11   -1    0    0    0    0 -0.00000000000E+00 -0.00000000000E+00 -0.45593999997E+02  0.45594000000E+02  0.51100000000E-03 0. -1.
    9900012    2    1    2    0    0 -0.69595750041E+00  0.12399470960E-01 -0.95298860231E+00  0.90007873793E+02  0.90000136927E+02 0.  0.
        -12    1    1    2    0    0  0.69595750041E+00 -0.12399470960E-01  0.95298860231E+00  0.11801262074E+01  0.00000000000E+00 0.  1.
         11    1    3    3    0    0 -0.20326761535E+02 -0.32870356327E+02 -0.11047613274E+02  0.40195613180E+02  0.51100000000E-03 0. -1.
        -11    1    3    3    0    0 -0.19176921615E+01  0.20580616409E+01 -0.77054415977E+01  0.82028648301E+01  0.51100000000E-03 0.  1.
        -12    1    3    3    0    0  0.21548496196E+02  0.30824694157E+02  0.17800066269E+02  0.41609395783E+02  0.00000000000E+00 0.  1.
</event>
<event>
 7    1  0.4195243E-015  0.9000778E+02  0.7816164E-02  0.1186339E+00
        -11   -1    0    0    0    0  0.00000000000E+00  0.00000000000E+00  0.45593999997E+02  0.45594000000E+02  0.51100000000E-03 0. -1.
         11   -1    0    0    0    0 -0.00000000000E+00 -0.00000000000E+00 -0.45593999997E+02  0.45594000000E+02  0.51100000000E-03 0.  1.
    9900012    2    1    2    0    0 -0.57388724602E+00  0.99025072462E+00  0.28805155061E+00  0.90007781052E+02  0.90000042962E+02 0.  0.
        -12    1    1    2    0    0  0.57388724602E+00 -0.99025072462E+00 -0.28805155061E+00  0.11802189477E+01  0.00000000000E+00 0.  1.
         11    1    3    3    0    0 -0.12280833590E+02 -0.11757752897E+02  0.38825259893E+02  0.42384719332E+02  0.51100000000E-03 0. -1.
        -11    1    3    3    0    0  0.83000007000E+00  0.95089025218E+01 -0.25371696894E+01  0.98765053323E+01  0.51100000000E-03 0.  1.
        -12    1    3    3    0    0  0.10876946274E+02  0.32391011001E+01 -0.36000038653E+02  0.37746556388E+02  0.00000000000E+00 0.  1.
</event>
<event>
 7    1  0.4195243E-015  0.9000771E+02  0.7816164E-02  0.1186339E+00
        -11   -1    0    0    0    0  0.00000000000E+00  0.00000000000E+00  0.45593999997E+02  0.45594000000E+02  0.51100000000E-03 0. -1.
         11   -1    0    0    0    0 -0.00000000000E+00 -0.00000000000E+00 -0.45593999997E+02  0.45594000000E+02  0.51100000000E-03 0.  1.
    9900012    2    1    2    0    0 -0.10602736755E+01  0.11639916615E-01  0.51841980142E+00  0.90007714083E+02  0.89999975109E+02 0.  0.
        -12    1    1    2    0    0  0.10602736755E+01 -0.11639916615E-01 -0.51841980142E+00  0.11802859167E+01  0.00000000000E+00 0.  1.
         11    1    3    3    0    0 -0.38334335034E+02  0.14750974680E+02  0.10706965812E+02  0.42447044817E+02  0.51100000000E-03 0. -1.
        -11    1    3    3    0    0  0.10132209035E+01  0.50422463030E+01 -0.14034128558E+01  0.53310817180E+01  0.51100000000E-03 0.  1.
        -12    1    3    3    0    0  0.36260840455E+02 -0.19781581067E+02 -0.87851331544E+01  0.42229587549E+02  0.00000000000E+00 0.  1.
</event>
<event>
 7    1  0.4195243E-015  0.9000772E+02  0.7816164E-02  0.1186339E+00
        -11   -1    0    0    0    0  0.00000000000E+00  0.00000000000E+00  0.45593999997E+02  0.45594000000E+02  0.51100000000E-03 0.  1.
         11   -1    0    0    0    0 -0.00000000000E+00 -0.00000000000E+00 -0.45593999997E+02  0.45594000000E+02  0.51100000000E-03 0. -1.
    9900012    2    1    2    0    0  0.11739879236E+01 -0.81507198957E-01 -0.90328050280E-01  0.90007724513E+02  0.89999985677E+02 0.  0.
        -12    1    1    2    0    0 -0.11739879236E+01  0.81507198957E-01  0.90328050280E-01  0.11802754869E+01  0.00000000000E+00 0.  1.
         11    1    3    3    0    0  0.27316757788E+02 -0.12181312708E+02  0.21301569389E+02  0.36719837881E+02  0.51100000000E-03 0. -1.
        -11    1    3    3    0    0 -0.80350972796E+00  0.12984562895E+02  0.73651194970E+01  0.14949564774E+02  0.51100000000E-03 0.  1.
        -12    1    3    3    0    0 -0.25339260136E+02 -0.88475738618E+00 -0.28757016936E+02  0.38338321858E+02  0.00000000000E+00 0.  1.
</event>
<event>
 7    1  0.4195243E-015  0.9000751E+02  0.7816164E-02  0.1186340E+00
        -11   -1    0    0    0    0  0.00000000000E+00  0.00000000000E+00  0.45593999997E+02  0.45594000000E+02  0.51100000000E-03 0. -1.
         11   -1    0    0    0    0 -0.00000000000E+00 -0.00000000000E+00 -0.45593999997E+02  0.45594000000E+02  0.51100000000E-03 0.  1.
    9900012    2    1    2    0    0 -0.91521600621E+00  0.66904542150E+00  0.32910699925E+00  0.90007511317E+02  0.89999769666E+02 0.  0.
        -12    1    1    2    0    0  0.91521600621E+00 -0.66904542150E+00 -0.32910699925E+00  0.11804886831E+01  0.00000000000E+00 0.  1.
         11    1    3    3    0    0  0.26138663681E+01 -0.80623759527E+01  0.59156987519E+01  0.10335845170E+02  0.51100000000E-03 0. -1.
        -11    1    3    3    0    0  0.34242786535E+02 -0.92204430580E+01 -0.11838059766E+02  0.37386155983E+02  0.51100000000E-03 0.  1.
         12    1    3    3    0    0 -0.37771868910E+02  0.17951864432E+02  0.62514680137E+01  0.42285510164E+02  0.00000000000E+00 0. -1.
</event>
<event>
 7    1  0.4195243E-015  0.9000772E+02  0.7816164E-02  0.1186339E+00
        -11   -1    0    0    0    0  0.00000000000E+00  0.00000000000E+00  0.45593999997E+02  0.45594000000E+02  0.51100000000E-03 0.  1.
         11   -1    0    0    0    0 -0.00000000000E+00 -0.00000000000E+00 -0.45593999997E+02  0.45594000000E+02  0.51100000000E-03 0. -1.
    9900012    2    1    2    0    0 -0.10776817947E+01  0.14468374151E+00 -0.45906413359E+00  0.90007715579E+02  0.89999976625E+02 0.  0.
        -12    1    1    2    0    0  0.10776817947E+01 -0.14468374151E+00  0.45906413359E+00  0.11802844209E+01  0.00000000000E+00 0.  1.
         11    1    3    3    0    0  0.18047063688E+02  0.30935063627E+02  0.14277863182E+02  0.38555570890E+02  0.51100000000E-03 0. -1.
        -11    1    3    3    0    0 -0.75176129551E+01 -0.46876142535E+00  0.86267546441E+01  0.11452298362E+02  0.51100000000E-03 0.  1.
        -12    1    3    3    0    0 -0.11607132527E+02 -0.30321618460E+02 -0.23363681959E+02  0.39999846328E+02  0.00000000000E+00 0.  1.
</event>
<event>
 7    1  0.4195243E-015  0.9000822E+02  0.7816164E-02  0.1186338E+00
        -11   -1    0    0    0    0  0.00000000000E+00  0.00000000000E+00  0.45593999997E+02  0.45594000000E+02  0.51100000000E-03 0.  1.
         11   -1    0    0    0    0 -0.00000000000E+00 -0.00000000000E+00 -0.45593999997E+02  0.45594000000E+02  0.51100000000E-03 0. -1.
    9900012    2    1    2    0    0  0.58298802878E+00 -0.10131159328E+01 -0.16000530801E+00  0.90008220091E+02  0.90000487795E+02 0.  0.
        -12    1    1    2    0    0 -0.58298802878E+00  0.10131159328E+01  0.16000530801E+00  0.11797799090E+01  0.00000000000E+00 0.  1.
         11    1    3    3    0    0 -0.95368753355E+01 -0.14344242869E+02 -0.95325063823E+01  0.19687000098E+02  0.51100000000E-03 0. -1.
        -11    1    3    3    0    0  0.17314734981E+02  0.20627089835E+02 -0.23590631760E+02  0.35802161801E+02  0.51100000000E-03 0.  1.
         12    1    3    3    0    0 -0.71948716172E+01 -0.72959628984E+01  0.32963132835E+02  0.34519058192E+02  0.00000000000E+00 0. -1.
</event>
<event>
 7    1  0.4195243E-015  0.9000778E+02  0.7816164E-02  0.1186339E+00
        -11   -1    0    0    0    0  0.00000000000E+00  0.00000000000E+00  0.45593999997E+02  0.45594000000E+02  0.51100000000E-03 0.  1.
         11   -1    0    0    0    0 -0.00000000000E+00 -0.00000000000E+00 -0.45593999997E+02  0.45594000000E+02  0.51100000000E-03 0. -1.
    9900012    2    1    2    0    0  0.51006633849E-01  0.86568555217E+00 -0.80056022978E+00  0.90007783989E+02  0.90000045937E+02 0.  0.
        -12    1    1    2    0    0 -0.51006633849E-01 -0.86568555217E+00  0.80056022978E+00  0.11802160113E+01  0.00000000000E+00 0.  1.
         11    1    3    3    0    0  0.47821226297E+01  0.18702973494E+01  0.48637690421E+01  0.70726910421E+01  0.51100000000E-03 0. -1.
        -11    1    3    3    0    0  0.51530275294E+01 -0.29359449279E+02  0.25813405617E+02  0.39431749448E+02  0.51100000000E-03 0.  1.
         12    1    3    3    0    0 -0.98841435252E+01  0.28354837482E+02 -0.31477734889E+02  0.43503343499E+02  0.00000000000E+00 0. -1.
</event>
<event>
 7    1  0.4195243E-015  0.9000776E+02  0.7816164E-02  0.1186339E+00
        -11   -1    0    0    0    0  0.00000000000E+00  0.00000000000E+00  0.45593999997E+02  0.45594000000E+02  0.51100000000E-03 0. -1.
         11   -1    0    0    0    0 -0.00000000000E+00 -0.00000000000E+00 -0.45593999997E+02  0.45594000000E+02  0.51100000000E-03 0.  1.
    9900012    2    1    2    0    0 -0.85955083590E+00  0.62310565513E+00  0.51564031358E+00  0.90007757131E+02  0.90000018725E+02 0.  0.
        -12    1    1    2    0    0  0.85955083590E+00 -0.62310565513E+00 -0.51564031358E+00  0.11802428690E+01  0.00000000000E+00 0.  1.
         11    1    3    3    0    0 -0.35927852277E+02 -0.59855168719E+01 -0.23074539297E+01  0.36496045338E+02  0.51100000000E-03 0. -1.
        -11    1    3    3    0    0 -0.75095256397E+01 -0.46067617439E+01  0.34911678613E+01  0.94764699332E+01  0.51100000000E-03 0.  1.
        -12    1    3    3    0    0  0.42577827081E+02  0.11215384271E+02 -0.66807361796E+00  0.44035241859E+02  0.00000000000E+00 0.  1.
</event>
<event>
 7    1  0.4195243E-015  0.9000774E+02  0.7816164E-02  0.1186339E+00
        -11   -1    0    0    0    0  0.00000000000E+00  0.00000000000E+00  0.45593999997E+02  0.45594000000E+02  0.51100000000E-03 0.  1.
         11   -1    0    0    0    0 -0.00000000000E+00 -0.00000000000E+00 -0.45593999997E+02  0.45594000000E+02  0.51100000000E-03 0. -1.
    9900012    2    1    2    0    0 -0.60864211760E+00  0.78095056285E+00 -0.64240531056E+00  0.90007740032E+02  0.90000001400E+02 0.  0.
        -12    1    1    2    0    0  0.60864211760E+00 -0.78095056285E+00  0.64240531056E+00  0.11802599680E+01  0.00000000000E+00 0.  1.
         11    1    3    3    0    0 -0.65193000996E+00 -0.34460709262E+02 -0.14437025557E+02  0.37368344929E+02  0.51100000000E-03 0. -1.
        -11    1    3    3    0    0  0.65635160371E+01 -0.60699962356E+01  0.31978493974E+01  0.94947795182E+01  0.51100000000E-03 0.  1.
        -12    1    3    3    0    0 -0.65202281447E+01  0.41311656060E+02  0.10596770849E+02  0.43144615584E+02  0.00000000000E+00 0.  1.
</event>
<event>
 7    1  0.4195243E-015  0.9000768E+02  0.7816164E-02  0.1186339E+00
        -11   -1    0    0    0    0  0.00000000000E+00  0.00000000000E+00  0.45593999997E+02  0.45594000000E+02  0.51100000000E-03 0.  1.
         11   -1    0    0    0    0 -0.00000000000E+00 -0.00000000000E+00 -0.45593999997E+02  0.45594000000E+02  0.51100000000E-03 0. -1.
    9900012    2    1    2    0    0  0.14754777539E+00 -0.11108898705E+01 -0.37055041729E+00  0.90007680441E+02  0.89999941022E+02 0.  0.
        -12    1    1    2    0    0 -0.14754777539E+00  0.11108898705E+01  0.37055041729E+00  0.11803195593E+01  0.00000000000E+00 0.  1.
         11    1    3    3    0    0  0.41459391767E+01 -0.10084017813E+02 -0.43706526667E-01  0.10903125122E+02  0.51100000000E-03 0. -1.
        -11    1    3    3    0    0  0.70182508285E+01 -0.21567629632E+01  0.37474918825E+02  0.38187393369E+02  0.51100000000E-03 0.  1.
         12    1    3    3    0    0 -0.11016642230E+02  0.11129890906E+02 -0.37801762715E+02  0.40917161949E+02  0.00000000000E+00 0. -1.
</event>
<event>
 8    1  0.4195243E-015  0.9000757E+02  0.7816164E-02  0.1186339E+00
        -11   -1    0    0    0    0  0.00000000000E+00  0.00000000000E+00  0.45593999997E+02  0.45594000000E+02  0.51100000000E-03 0. -1.
         11   -1    0    0    0    0 -0.00000000000E+00 -0.00000000000E+00 -0.45593999997E+02  0.45594000000E+02  0.51100000000E-03 0.  1.
    9900012    2    1    2    0    0  0.44236959167E+00 -0.32015442722E+00  0.10465327307E+01  0.90007567677E+02  0.89999826770E+02 0.  0.
         23    2    3    3    0    0 -0.25738277297E+01 -0.28231923798E+02  0.93387605815E+00  0.61933077348E+02  0.55056042672E+02 0.  0.
        -12    1    1    2    0    0 -0.44236959167E+00  0.32015442722E+00 -0.10465327307E+01  0.11804323231E+01  0.00000000000E+00 0.  1.
         11    1    4    4    0    0  0.10487090527E+02 -0.39661182696E+02 -0.89093306222E+01  0.41980527068E+02  0.51100000000E-03 0. -1.
        -11    1    4    4    0    0 -0.13060918256E+02  0.11429258897E+02  0.98432066804E+01  0.19952550280E+02  0.51100000000E-03 0.  1.
        -12    1    3    3    0    0  0.30161973214E+01  0.27911769371E+02  0.11265667255E+00  0.28074490329E+02  0.00000000000E+00 0.  1.
</event>
<event>
 7    1  0.4195243E-015  0.9000773E+02  0.7816164E-02  0.1186339E+00
        -11   -1    0    0    0    0  0.00000000000E+00  0.00000000000E+00  0.45593999997E+02  0.45594000000E+02  0.51100000000E-03 0. -1.
         11   -1    0    0    0    0 -0.00000000000E+00 -0.00000000000E+00 -0.45593999997E+02  0.45594000000E+02  0.51100000000E-03 0.  1.
    9900012    2    1    2    0    0  0.11377846925E+00 -0.10692916092E+01  0.48653656644E+00  0.90007725491E+02  0.89999986668E+02 0.  0.
        -12    1    1    2    0    0 -0.11377846925E+00  0.10692916092E+01 -0.48653656644E+00  0.11802745088E+01  0.00000000000E+00 0.  1.
         11    1    3    3    0    0 -0.84603114924E+01  0.10124744325E+01 -0.39246789255E+01  0.93811022783E+01  0.51100000000E-03 0. -1.
        -11    1    3    3    0    0  0.19697080382E+02  0.33785678745E+02 -0.10061513977E+02  0.40381692976E+02  0.51100000000E-03 0.  1.
         12    1    3    3    0    0 -0.11122990420E+02 -0.35867444787E+02  0.14472729469E+02  0.40244930237E+02  0.00000000000E+00 0. -1.
</event>
<event>
 7    1  0.4195243E-015  0.9000765E+02  0.7816164E-02  0.1186339E+00
        -11   -1    0    0    0    0  0.00000000000E+00  0.00000000000E+00  0.45593999997E+02  0.45594000000E+02  0.51100000000E-03 0.  1.
         11   -1    0    0    0    0 -0.00000000000E+00 -0.00000000000E+00 -0.45593999997E+02  0.45594000000E+02  0.51100000000E-03 0. -1.
    9900012    2    1    2    0    0 -0.11104792188E+01  0.31789877911E+00 -0.24288084468E+00  0.90007654782E+02  0.89999915025E+02 0.  0.
        -12    1    1    2    0    0  0.11104792188E+01 -0.31789877911E+00  0.24288084468E+00  0.11803452181E+01  0.00000000000E+00 0.  1.
         11    1    3    3    0    0  0.50016910073E+01 -0.43070031602E+01 -0.40419669568E+01  0.77398117739E+01  0.51100000000E-03 0. -1.
        -11    1    3    3    0    0 -0.11352952297E+02  0.12628827417E+02  0.40724463384E+02  0.44123222071E+02  0.51100000000E-03 0.  1.
         12    1    3    3    0    0  0.52407820708E+01 -0.80039254776E+01 -0.36925377272E+02  0.38144620937E+02  0.00000000000E+00 0. -1.
</event>
<event>
 7    1  0.4195243E-015  0.9000765E+02  0.7816164E-02  0.1186339E+00
        -11   -1    0    0    0    0  0.00000000000E+00  0.00000000000E+00  0.45593999997E+02  0.45594000000E+02  0.51100000000E-03 0.  1.
         11   -1    0    0    0    0 -0.00000000000E+00 -0.00000000000E+00 -0.45593999997E+02  0.45594000000E+02  0.51100000000E-03 0. -1.
    9900012    2    1    2    0    0  0.57142524761E+00  0.23794798227E-01 -0.10325373219E+01  0.90007649913E+02  0.89999910092E+02 0.  0.
        -12    1    1    2    0    0 -0.57142524761E+00 -0.23794798227E-01  0.10325373219E+01  0.11803500867E+01  0.00000000000E+00 0.  1.
         11    1    3    3    0    0  0.41283248925E+01  0.33029413215E+02 -0.11672227191E+02  0.35273589151E+02  0.51100000000E-03 0. -1.
        -11    1    3    3    0    0  0.33600932492E+01  0.74786102451E+01 -0.62668446973E+01  0.10319553312E+02  0.51100000000E-03 0.  1.
        -12    1    3    3    0    0 -0.69169928941E+01 -0.40484228661E+02  0.16906534567E+02  0.44414507450E+02  0.00000000000E+00 0.  1.
</event>
<event>
 7    1  0.4195243E-015  0.9000772E+02  0.7816164E-02  0.1186339E+00
        -11   -1    0    0    0    0  0.00000000000E+00  0.00000000000E+00  0.45593999997E+02  0.45594000000E+02  0.51100000000E-03 0. -1.
         11   -1    0    0    0    0 -0.00000000000E+00 -0.00000000000E+00 -0.45593999997E+02  0.45594000000E+02  0.51100000000E-03 0.  1.
    9900012    2    1    2    0    0 -0.17901073350E+00 -0.11336814747E+01  0.27529926040E+00  0.90007716893E+02  0.89999977956E+02 0.  0.
        -12    1    1    2    0    0  0.17901073350E+00  0.11336814747E+01 -0.27529926040E+00  0.11802831066E+01  0.00000000000E+00 0.  1.
         11    1    3    3    0    0  0.17793596306E+01 -0.27755128868E+02  0.25073744151E+02  0.37446040447E+02  0.51100000000E-03 0. -1.
        -11    1    3    3    0    0  0.57778157593E+01 -0.14993838412E+01  0.71424296081E+01  0.93083622523E+01  0.51100000000E-03 0.  1.
        -12    1    3    3    0    0 -0.77361861234E+01  0.28120831234E+02 -0.31940874499E+02  0.43253314194E+02  0.00000000000E+00 0.  1.
</event>
<event>
 7    1  0.4195243E-015  0.9000769E+02  0.7816164E-02  0.1186339E+00
        -11   -1    0    0    0    0  0.00000000000E+00  0.00000000000E+00  0.45593999997E+02  0.45594000000E+02  0.51100000000E-03 0. -1.
         11   -1    0    0    0    0 -0.00000000000E+00 -0.00000000000E+00 -0.45593999997E+02  0.45594000000E+02  0.51100000000E-03 0.  1.
    9900012    2    1    2    0    0  0.10970826385E+01  0.32837383337E+00  0.28583323214E+00  0.90007694816E+02  0.89999955588E+02 0.  0.
        -12    1    1    2    0    0 -0.10970826385E+01 -0.32837383337E+00 -0.28583323214E+00  0.11803051838E+01  0.00000000000E+00 0.  1.
         11    1    3    3    0    0  0.43916522677E+01 -0.28069219516E+02 -0.22324916848E+02  0.36132666750E+02  0.51100000000E-03 0. -1.
        -11    1    3    3    0    0 -0.81998174164E+01 -0.64963001699E+01 -0.23135754657E+01  0.10714082007E+02  0.51100000000E-03 0.  1.
        -12    1    3    3    0    0  0.49052477872E+01  0.34893893520E+02  0.24924325546E+02  0.43160946059E+02  0.00000000000E+00 0.  1.
</event>
<event>
 7    1  0.4195243E-015  0.9000754E+02  0.7816164E-02  0.1186339E+00
        -11   -1    0    0    0    0  0.00000000000E+00  0.00000000000E+00  0.45593999997E+02  0.45594000000E+02  0.51100000000E-03 0.  1.
         11   -1    0    0    0    0 -0.00000000000E+00 -0.00000000000E+00 -0.45593999997E+02  0.45594000000E+02  0.51100000000E-03 0. -1.
    9900012    2    1    2    0    0  0.10310079121E+01 -0.44603557330E+00 -0.36272141197E+00  0.90007537434E+02  0.89999796128E+02 0.  0.
        -12    1    1    2    0    0 -0.10310079121E+01  0.44603557330E+00  0.36272141197E+00  0.11804625662E+01  0.00000000000E+00 0.  1.
         11    1    3    3    0    0 -0.14837297840E+00 -0.10108305563E+02 -0.11542232255E+01  0.10175071863E+02  0.51100000000E-03 0. -1.
        -11    1    3    3    0    0 -0.77976109869E+01 -0.31890617619E+02 -0.12745987463E+02  0.35217530093E+02  0.51100000000E-03 0.  1.
         12    1    3    3    0    0  0.89769918774E+01  0.41552887608E+02  0.13537489277E+02  0.44614935478E+02  0.00000000000E+00 0. -1.
</event>
<event>
 7    1  0.4195243E-015  0.9000800E+02  0.7816164E-02  0.1186339E+00
        -11   -1    0    0    0    0  0.00000000000E+00  0.00000000000E+00  0.45593999997E+02  0.45594000000E+02  0.51100000000E-03 0. -1.
         11   -1    0    0    0    0 -0.00000000000E+00 -0.00000000000E+00 -0.45593999997E+02  0.45594000000E+02  0.51100000000E-03 0.  1.
    9900012    2    1    2    0    0  0.10117707131E+01 -0.53780670453E+00  0.28192461229E+00  0.90008001053E+02  0.90000265867E+02 0.  0.
        -12    1    1    2    0    0 -0.10117707131E+01  0.53780670453E+00 -0.28192461229E+00  0.11799989468E+01  0.00000000000E+00 0.  1.
         11    1    3    3    0    0  0.31848831320E+02  0.11028013665E+02 -0.17740719890E+02  0.38088033348E+02  0.51100000000E-03 0. -1.
        -11    1    3    3    0    0  0.56193625515E+01  0.43138390803E+01 -0.20518310386E+01  0.73753951737E+01  0.51100000000E-03 0.  1.
        -12    1    3    3    0    0 -0.36456423159E+02 -0.15879659450E+02  0.20074475541E+02  0.44544572531E+02  0.00000000000E+00 0.  1.
</event>
<event>
 7    1  0.4195243E-015  0.9000774E+02  0.7816164E-02  0.1186339E+00
        -11   -1    0    0    0    0  0.00000000000E+00  0.00000000000E+00  0.45593999997E+02  0.45594000000E+02  0.51100000000E-03 0.  1.
         11   -1    0    0    0    0 -0.00000000000E+00 -0.00000000000E+00 -0.45593999997E+02  0.45594000000E+02  0.51100000000E-03 0. -1.
    9900012    2    1    2    0    0 -0.46680447035E+00  0.90630761792E+00  0.59474097911E+00  0.90007738697E+02  0.90000000047E+02 0.  0.
        -12    1    1    2    0    0  0.46680447035E+00 -0.90630761792E+00 -0.59474097911E+00  0.11802613033E+01  0.00000000000E+00 0.  1.
         11    1    3    3    0    0  0.50703604797E+01 -0.65209361476E+01 -0.38983888596E+01  0.91339257495E+01  0.51100000000E-03 0. -1.
        -11    1    3    3    0    0  0.29277862031E+02  0.12120755870E+02  0.24852170483E+02  0.40270787253E+02  0.51100000000E-03 0.  1.
         12    1    3    3    0    0 -0.34815026981E+02 -0.46935121047E+01 -0.20359040644E+02  0.40603025694E+02  0.00000000000E+00 0. -1.
</event>
<event>
 7    1  0.4195243E-015  0.9000778E+02  0.7816164E-02  0.1186339E+00
        -11   -1    0    0    0    0  0.00000000000E+00  0.00000000000E+00  0.45593999997E+02  0.45594000000E+02  0.51100000000E-03 0.  1.
         11   -1    0    0    0    0 -0.00000000000E+00 -0.00000000000E+00 -0.45593999997E+02  0.45594000000E+02  0.51100000000E-03 0. -1.
    9900012    2    1    2    0    0 -0.10814725555E+01  0.79227770606E-01 -0.46590048204E+00  0.90007778331E+02  0.90000040205E+02 0.  0.
        -12    1    1    2    0    0  0.10814725555E+01 -0.79227770606E-01  0.46590048204E+00  0.11802216686E+01  0.00000000000E+00 0.  1.
         11    1    3    3    0    0 -0.14242114004E+02  0.83883772147E+01 -0.39541720211E+02  0.42857325175E+02  0.51100000000E-03 0. -1.
        -11    1    3    3    0    0 -0.23410217725E+01  0.52488848833E+01  0.74258399462E+01  0.93901157940E+01  0.51100000000E-03 0.  1.
        -12    1    3    3    0    0  0.15501663221E+02 -0.13558034327E+02  0.31649979783E+02  0.37760337362E+02  0.00000000000E+00 0.  1.
</event>
<event>
 7    1  0.4195243E-015  0.9000792E+02  0.7816164E-02  0.1186339E+00
        -11   -1    0    0    0    0  0.00000000000E+00  0.00000000000E+00  0.45593999997E+02  0.45594000000E+02  0.51100000000E-03 0. -1.
         11   -1    0    0    0    0 -0.00000000000E+00 -0.00000000000E+00 -0.45593999997E+02  0.45594000000E+02  0.51100000000E-03 0.  1.
    9900012    2    1    2    0    0  0.10083102352E+01 -0.49261188122E+00 -0.36499856174E+00  0.90007923754E+02  0.90000187548E+02 0.  0.
        -12    1    1    2    0    0 -0.10083102352E+01  0.49261188122E+00  0.36499856174E+00  0.11800762458E+01  0.00000000000E+00 0.  1.
         11    1    3    3    0    0  0.77467731149E+01  0.10735926197E+01 -0.98016924589E+01  0.12539468495E+02  0.51100000000E-03 0. -1.
        -11    1    3    3    0    0  0.15050008611E+02 -0.26180372544E+02 -0.17559018131E+02  0.34931844837E+02  0.51100000000E-03 0.  1.
         12    1    3    3    0    0 -0.21788471491E+02  0.24614168043E+02  0.26995712028E+02  0.42536610423E+02  0.00000000000E+00 0. -1.
</event>
<event>
 7    1  0.4195243E-015  0.9000778E+02  0.7816164E-02  0.1186339E+00
        -11   -1    0    0    0    0  0.00000000000E+00  0.00000000000E+00  0.45593999997E+02  0.45594000000E+02  0.51100000000E-03 0. -1.
         11   -1    0    0    0    0 -0.00000000000E+00 -0.00000000000E+00 -0.45593999997E+02  0.45594000000E+02  0.51100000000E-03 0.  1.
    9900012    2    1    2    0    0  0.10779730331E+01 -0.48022827212E+00  0.16223819269E-01  0.90007784653E+02  0.90000046610E+02 0.  0.
        -12    1    1    2    0    0 -0.10779730331E+01  0.48022827212E+00 -0.16223819269E-01  0.11802153472E+01  0.00000000000E+00 0.  1.
         11    1    3    3    0    0 -0.15590192940E+02 -0.10941310833E+02  0.37782216678E+02  0.42311491300E+02  0.51100000000E-03 0. -1.
        -11    1    3    3    0    0  0.66585481547E+01  0.12321761575E+01  0.78010728092E+00  0.68163838832E+01  0.51100000000E-03 0.  1.
        -12    1    3    3    0    0  0.10009617818E+02  0.92289064029E+01 -0.38546100140E+02  0.40879909470E+02  0.00000000000E+00 0.  1.
</event>
<event>
 7    1  0.4195243E-015  0.9000775E+02  0.7816164E-02  0.1186339E+00
        -11   -1    0    0    0    0  0.00000000000E+00  0.00000000000E+00  0.45593999997E+02  0.45594000000E+02  0.51100000000E-03 0. -1.
         11   -1    0    0    0    0 -0.00000000000E+00 -0.00000000000E+00 -0.45593999997E+02  0.45594000000E+02  0.51100000000E-03 0.  1.
    9900012    2    1    2    0    0  0.97341654671E+00 -0.58160242119E+00 -0.32741324664E+00  0.90007745543E+02  0.90000006984E+02 0.  0.
        -12    1    1    2    0    0 -0.97341654671E+00  0.58160242119E+00  0.32741324664E+00  0.11802544572E+01  0.00000000000E+00 0.  1.
         11    1    3    3    0    0 -0.51839742688E+01 -0.35382408960E+02  0.84682319292E+01  0.36749141559E+02  0.51100000000E-03 0. -1.
        -11    1    3    3    0    0  0.74536599971E+00 -0.78070811575E+01 -0.66035683085E+01  0.10252472938E+02  0.51100000000E-03 0.  1.
        -12    1    3    3    0    0  0.54120248158E+01  0.42607887697E+02 -0.21920768673E+01  0.43006131046E+02  0.00000000000E+00 0.  1.
</event>
<event>
 7    1  0.4195243E-015  0.9000775E+02  0.7816164E-02  0.1186339E+00
        -11   -1    0    0    0    0  0.00000000000E+00  0.00000000000E+00  0.45593999997E+02  0.45594000000E+02  0.51100000000E-03 0. -1.
         11   -1    0    0    0    0 -0.00000000000E+00 -0.00000000000E+00 -0.45593999997E+02  0.45594000000E+02  0.51100000000E-03 0.  1.
    9900012    2    1    2    0    0  0.66530869233E+00 -0.13204203527E+00  0.96588061472E+00  0.90007747435E+02  0.90000008901E+02 0.  0.
        -12    1    1    2    0    0 -0.66530869233E+00  0.13204203527E+00 -0.96588061472E+00  0.11802525650E+01  0.00000000000E+00 0.  1.
         11    1    3    3    0    0 -0.95787024897E+01 -0.13932811217E+01  0.63903457972E+00  0.97005741648E+01  0.51100000000E-03 0. -1.
        -11    1    3    3    0    0 -0.13541174348E+02 -0.22395935136E+02 -0.26580619796E+02  0.37302421669E+02  0.51100000000E-03 0.  1.
         12    1    3    3    0    0  0.23785185530E+02  0.23657174222E+02  0.26907465831E+02  0.43004751602E+02  0.00000000000E+00 0. -1.
</event>
<event>
 7    1  0.4195243E-015  0.9000769E+02  0.7816164E-02  0.1186339E+00
        -11   -1    0    0    0    0  0.00000000000E+00  0.00000000000E+00  0.45593999997E+02  0.45594000000E+02  0.51100000000E-03 0. -1.
         11   -1    0    0    0    0 -0.00000000000E+00 -0.00000000000E+00 -0.45593999997E+02  0.45594000000E+02  0.51100000000E-03 0.  1.
    9900012    2    1    2    0    0  0.74997614676E+00  0.40536212517E+00  0.81629712741E+00  0.90007693399E+02  0.89999954151E+02 0.  0.
        -12    1    1    2    0    0 -0.74997614676E+00 -0.40536212517E+00 -0.81629712741E+00  0.11803066015E+01  0.00000000000E+00 0.  1.
         11    1    3    3    0    0 -0.27834099220E+02 -0.25285778474E+02  0.16381166734E+01  0.37640285585E+02  0.51100000000E-03 0. -1.
        -11    1    3    3    0    0  0.52857299663E-01 -0.71856613849E+01 -0.48213614780E+01  0.86534415233E+01  0.51100000000E-03 0.  1.
        -12    1    3    3    0    0  0.28531218067E+02  0.32876801984E+02  0.39995419321E+01  0.43713966290E+02  0.00000000000E+00 0.  1.
</event>
<event>
 7    1  0.4195243E-015  0.9000768E+02  0.7816164E-02  0.1186339E+00
        -11   -1    0    0    0    0  0.00000000000E+00  0.00000000000E+00  0.45593999997E+02  0.45594000000E+02  0.51100000000E-03 0. -1.
         11   -1    0    0    0    0 -0.00000000000E+00 -0.00000000000E+00 -0.45593999997E+02  0.45594000000E+02  0.51100000000E-03 0.  1.
    9900012    2    1    2    0    0  0.17297220227E+00 -0.59894337484E+00  0.10022525182E+01  0.90007676884E+02  0.89999937418E+02 0.  0.
        -12    1    1    2    0    0 -0.17297220227E+00  0.59894337484E+00 -0.10022525182E+01  0.11803231165E+01  0.00000000000E+00 0.  1.
         11    1    3    3    0    0 -0.12236895745E+01  0.39005092338E+01 -0.92750554660E+01  0.10135977635E+02  0.51100000000E-03 0. -1.
        -11    1    3    3    0    0  0.39729797860E+02  0.67679905849E+00  0.10836184264E+02  0.41186621428E+02  0.51100000000E-03 0.  1.
         12    1    3    3    0    0 -0.38333136083E+02 -0.51762516671E+01 -0.55887627970E+00  0.38685077821E+02  0.00000000000E+00 0. -1.
</event>
<event>
 7    1  0.4195243E-015  0.9000781E+02  0.7816164E-02  0.1186339E+00
        -11   -1    0    0    0    0  0.00000000000E+00  0.00000000000E+00  0.45593999997E+02  0.45594000000E+02  0.51100000000E-03 0.  1.
         11   -1    0    0    0    0 -0.00000000000E+00 -0.00000000000E+00 -0.45593999997E+02  0.45594000000E+02  0.51100000000E-03 0. -1.
    9900012    2    1    2    0    0 -0.76177312143E+00 -0.30722525617E+00  0.84744009669E+00  0.90007813420E+02  0.90000075757E+02 0.  0.
        -12    1    1    2    0    0  0.76177312143E+00  0.30722525617E+00 -0.84744009669E+00  0.11801865802E+01  0.00000000000E+00 0.  1.
         11    1    3    3    0    0  0.30345565566E+02 -0.78952657061E+01 -0.25587700754E+02  0.40471211993E+02  0.51100000000E-03 0. -1.
        -11    1    3    3    0    0  0.50030621735E+01  0.11352688219E+00  0.27616235400E+01  0.57157750395E+01  0.51100000000E-03 0.  1.
        -12    1    3    3    0    0 -0.36110400861E+02  0.74745135677E+01  0.23673517310E+02  0.43820826387E+02  0.00000000000E+00 0.  1.
</event>
<event>
 7    1  0.4195243E-015  0.9000770E+02  0.7816164E-02  0.1186339E+00
        -11   -1    0    0    0    0  0.00000000000E+00  0.00000000000E+00  0.45593999997E+02  0.45594000000E+02  0.51100000000E-03 0. -1.
         11   -1    0    0    0    0 -0.00000000000E+00 -0.00000000000E+00 -0.45593999997E+02  0.45594000000E+02  0.51100000000E-03 0.  1.
    9900012    2    1    2    0    0 -0.11155537481E+01  0.27695136143E-01 -0.38454684904E+00  0.90007701959E+02  0.89999962825E+02 0.  0.
        -12    1    1    2    0    0  0.11155537481E+01 -0.27695136143E-01  0.38454684904E+00  0.11802980406E+01  0.00000000000E+00 0.  1.
         11    1    3    3    0    0 -0.28099864175E+02 -0.30390548476E+01  0.16372560181E+02  0.32663419113E+02  0.51100000000E-03 0. -1.
        -11    1    3    3    0    0 -0.17906669390E+01 -0.10313478394E+02  0.10999535079E+02  0.15184337222E+02  0.51100000000E-03 0.  1.
        -12    1    3    3    0    0  0.28774977366E+02  0.13380228377E+02 -0.27756642109E+02  0.42159945624E+02  0.00000000000E+00 0.  1.
</event>
<event>
 7    1  0.4195243E-015  0.9000755E+02  0.7816164E-02  0.1186339E+00
        -11   -1    0    0    0    0  0.00000000000E+00  0.00000000000E+00  0.45593999997E+02  0.45594000000E+02  0.51100000000E-03 0. -1.
         11   -1    0    0    0    0 -0.00000000000E+00 -0.00000000000E+00 -0.45593999997E+02  0.45594000000E+02  0.51100000000E-03 0.  1.
    9900012    2    1    2    0    0 -0.45693214466E+00 -0.19561615150E+00  0.10707066390E+01  0.90007548658E+02  0.89999807500E+02 0.  0.
        -12    1    1    2    0    0  0.45693214466E+00  0.19561615150E+00 -0.10707066390E+01  0.11804513418E+01  0.00000000000E+00 0.  1.
         11    1    3    3    0    0  0.31421632689E+01  0.80394342302E+01  0.25347150232E+02  0.26776551643E+02  0.51100000000E-03 0. -1.
        -11    1    3    3    0    0  0.25357186059E+02  0.60711929658E+01 -0.11522661527E+02  0.28506455371E+02  0.51100000000E-03 0.  1.
        -12    1    3    3    0    0 -0.28956281473E+02 -0.14306243347E+02 -0.12753782066E+02  0.34724541645E+02  0.00000000000E+00 0.  1.
</event>
<event>
 7    1  0.4195243E-015  0.9000757E+02  0.7816164E-02  0.1186339E+00
        -11   -1    0    0    0    0  0.00000000000E+00  0.00000000000E+00  0.45593999997E+02  0.45594000000E+02  0.51100000000E-03 0.  1.
         11   -1    0    0    0    0 -0.00000000000E+00 -0.00000000000E+00 -0.45593999997E+02  0.45594000000E+02  0.51100000000E-03 0. -1.
    9900012    2    1    2    0    0  0.15920894731E+00 -0.22831423464E+00 -0.11471493165E+01  0.90007565151E+02  0.89999824211E+02 0.  0.
        -12    1    1    2    0    0 -0.15920894731E+00  0.22831423464E+00  0.11471493165E+01  0.11804348491E+01  0.00000000000E+00 0.  1.
         11    1    3    3    0    0  0.20942411120E+02  0.25676665907E+00  0.19325690726E+02  0.28497944399E+02  0.51100000000E-03 0. -1.
        -11    1    3    3    0    0  0.76722798598E+01 -0.17520511259E+01  0.14443819186E+02  0.16448631382E+02  0.51100000000E-03 0.  1.
         12    1    3    3    0    0 -0.28455482033E+02  0.12669702322E+01 -0.34916659229E+02  0.45060989370E+02  0.00000000000E+00 0. -1.
</event>
<event>
 7    1  0.4195243E-015  0.9000777E+02  0.7816164E-02  0.1186339E+00
        -11   -1    0    0    0    0  0.00000000000E+00  0.00000000000E+00  0.45593999997E+02  0.45594000000E+02  0.51100000000E-03 0. -1.
         11   -1    0    0    0    0 -0.00000000000E+00 -0.00000000000E+00 -0.45593999997E+02  0.45594000000E+02  0.51100000000E-03 0.  1.
    9900012    2    1    2    0    0  0.11508943925E+01  0.10072622847E+00 -0.24131774922E+00  0.90007772085E+02  0.90000033876E+02 0.  0.
        -12    1    1    2    0    0 -0.11508943925E+01 -0.10072622847E+00  0.24131774922E+00  0.11802279152E+01  0.00000000000E+00 0.  1.
         11    1    3    3    0    0 -0.11802660423E+02 -0.11779165452E+02 -0.13097794817E+01  0.16726238500E+02  0.51100000000E-03 0. -1.
        -11    1    3    3    0    0 -0.20999329062E+02  0.66306990056E+01 -0.22605430376E+02  0.31558572102E+02  0.51100000000E-03 0.  1.
         12    1    3    3    0    0  0.33952883877E+02  0.52491926748E+01  0.23673892109E+02  0.41722961483E+02  0.00000000000E+00 0. -1.
</event>
<event>
 7    1  0.4195243E-015  0.9000767E+02  0.7816164E-02  0.1186339E+00
        -11   -1    0    0    0    0  0.00000000000E+00  0.00000000000E+00  0.45593999997E+02  0.45594000000E+02  0.51100000000E-03 0. -1.
         11   -1    0    0    0    0 -0.00000000000E+00 -0.00000000000E+00 -0.45593999997E+02  0.45594000000E+02  0.51100000000E-03 0.  1.
    9900012    2    1    2    0    0 -0.64517418301E+00 -0.80297220144E+00  0.57634362220E+00  0.90007666973E+02  0.89999927377E+02 0.  0.
        -12    1    1    2    0    0  0.64517418301E+00  0.80297220144E+00 -0.57634362220E+00  0.11803330265E+01  0.00000000000E+00 0.  1.
         11    1    3    3    0    0 -0.30974639117E+02 -0.86531538328E+01  0.12828400621E+02  0.34624748410E+02  0.51100000000E-03 0. -1.
        -11    1    3    3    0    0 -0.11299032830E+02  0.45472845097E+01 -0.39683986169E+01  0.12809922995E+02  0.51100000000E-03 0.  1.
        -12    1    3    3    0    0  0.41628497764E+02  0.33028971217E+01 -0.82836583818E+01  0.42572995568E+02  0.00000000000E+00 0.  1.
</event>
<event>
 7    1  0.4195243E-015  0.9000765E+02  0.7816164E-02  0.1186339E+00
        -11   -1    0    0    0    0  0.00000000000E+00  0.00000000000E+00  0.45593999997E+02  0.45594000000E+02  0.51100000000E-03 0. -1.
         11   -1    0    0    0    0 -0.00000000000E+00 -0.00000000000E+00 -0.45593999997E+02  0.45594000000E+02  0.51100000000E-03 0.  1.
    9900012    2    1    2    0    0  0.95106609604E+00 -0.76175319465E-01 -0.69490939715E+00  0.90007649006E+02  0.89999909173E+02 0.  0.
        -12    1    1    2    0    0 -0.95106609604E+00  0.76175319465E-01  0.69490939715E+00  0.11803509938E+01  0.00000000000E+00 0.  1.
         11    1    3    3    0    0  0.45513083817E+01  0.98280588174E+01  0.22376236039E+00  0.10833061338E+02  0.51100000000E-03 0. -1.
        -11    1    3    3    0    0 -0.13072706166E+01  0.34551722850E+02 -0.21420092540E+01  0.34642729573E+02  0.51100000000E-03 0.  1.
         12    1    3    3    0    0 -0.22929716691E+01 -0.44455956987E+02  0.12233374965E+01  0.44531858095E+02  0.00000000000E+00 0. -1.
</event>
<event>
 7    1  0.4195243E-015  0.9000769E+02  0.7816164E-02  0.1186339E+00
        -11   -1    0    0    0    0  0.00000000000E+00  0.00000000000E+00  0.45593999997E+02  0.45594000000E+02  0.51100000000E-03 0. -1.
         11   -1    0    0    0    0 -0.00000000000E+00 -0.00000000000E+00 -0.45593999997E+02  0.45594000000E+02  0.51100000000E-03 0.  1.
    9900012    2    1    2    0    0 -0.36287448676E+00 -0.11170955780E+01  0.11643994367E+00  0.90007687040E+02  0.89999947709E+02 0.  0.
        -12    1    1    2    0    0  0.36287448676E+00  0.11170955780E+01 -0.11643994367E+00  0.11803129602E+01  0.00000000000E+00 0.  1.
         11    1    3    3    0    0  0.44715257577E+01  0.59229425554E+01 -0.45379869596E+00  0.74351680972E+01  0.51100000000E-03 0. -1.
        -11    1    3    3    0    0  0.33678488236E+02 -0.96213490124E+01 -0.18398599918E+02  0.39564117656E+02  0.51100000000E-03 0.  1.
         12    1    3    3    0    0 -0.38512888481E+02  0.25813108790E+01  0.18968838557E+02  0.43008401286E+02  0.00000000000E+00 0. -1.
</event>
<event>
 7    1  0.4195243E-015  0.9000748E+02  0.7816164E-02  0.1186340E+00
        -11   -1    0    0    0    0  0.00000000000E+00  0.00000000000E+00  0.45593999997E+02  0.45594000000E+02  0.51100000000E-03 0.  1.
         11   -1    0    0    0    0 -0.00000000000E+00 -0.00000000000E+00 -0.45593999997E+02  0.45594000000E+02  0.51100000000E-03 0. -1.
    9900012    2    1    2    0    0 -0.90965264390E+00 -0.93718322307E-01 -0.74657194541E+00  0.90007482856E+02  0.89999740830E+02 0.  0.
        -12    1    1    2    0    0  0.90965264390E+00  0.93718322307E-01  0.74657194541E+00  0.11805171435E+01  0.00000000000E+00 0.  1.
         11    1    3    3    0    0  0.14738961749E+02 -0.33896438046E+02 -0.98104828181E+01  0.38242006734E+02  0.51100000000E-03 0. -1.
        -11    1    3    3    0    0  0.10442765348E+01 -0.21040851676E+01 -0.82282897098E+01  0.85570111420E+01  0.51100000000E-03 0.  1.
        -12    1    3    3    0    0 -0.16692890928E+02  0.35906804891E+02  0.17292200583E+02  0.43208464981E+02  0.00000000000E+00 0.  1.
</event>
<event>
 7    1  0.4195243E-015  0.9000775E+02  0.7816164E-02  0.1186339E+00
        -11   -1    0    0    0    0  0.00000000000E+00  0.00000000000E+00  0.45593999997E+02  0.45594000000E+02  0.51100000000E-03 0. -1.
         11   -1    0    0    0    0 -0.00000000000E+00 -0.00000000000E+00 -0.45593999997E+02  0.45594000000E+02  0.51100000000E-03 0.  1.
    9900012    2    1    2    0    0 -0.16455117343E+00  0.31982786550E+00  0.11241143905E+01  0.90007745741E+02  0.90000007185E+02 0.  0.
        -12    1    1    2    0    0  0.16455117343E+00 -0.31982786550E+00 -0.11241143905E+01  0.11802542587E+01  0.00000000000E+00 0.  1.
         11    1    3    3    0    0  0.29548035983E+01  0.53446493045E+01 -0.59434282236E+01  0.85217650638E+01  0.51100000000E-03 0. -1.
        -11    1    3    3    0    0  0.33313296196E+02  0.17956996590E+02  0.64312030925E-01  0.37844861821E+02  0.51100000000E-03 0.  1.
         12    1    3    3    0    0 -0.36432650967E+02 -0.22981818029E+02  0.70032305832E+01  0.43641118856E+02  0.00000000000E+00 0. -1.
</event>
<event>
 7    1  0.4195243E-015  0.9000779E+02  0.7816164E-02  0.1186339E+00
        -11   -1    0    0    0    0  0.00000000000E+00  0.00000000000E+00  0.45593999997E+02  0.45594000000E+02  0.51100000000E-03 0.  1.
         11   -1    0    0    0    0 -0.00000000000E+00 -0.00000000000E+00 -0.45593999997E+02  0.45594000000E+02  0.51100000000E-03 0. -1.
    9900012    2    1    2    0    0  0.11013199699E+01 -0.13376162397E+00 -0.40260802983E+00  0.90007791936E+02  0.90000053990E+02 0.  0.
        -12    1    1    2    0    0 -0.11013199699E+01  0.13376162397E+00  0.40260802983E+00  0.11802080638E+01  0.00000000000E+00 0.  1.
         11    1    3    3    0    0  0.19987164724E+02 -0.32143336970E+02 -0.54673050676E+01  0.38243591493E+02  0.51100000000E-03 0. -1.
        -11    1    3    3    0    0  0.54682847405E+00 -0.20614759430E+01 -0.96415286179E+01  0.98746027158E+01  0.51100000000E-03 0.  1.
        -12    1    3    3    0    0 -0.19432673228E+02  0.34071051289E+02  0.14706225656E+02  0.41889597728E+02  0.00000000000E+00 0.  1.
</event>
<event>
 7    1  0.4195243E-015  0.9000778E+02  0.7816164E-02  0.1186339E+00
        -11   -1    0    0    0    0  0.00000000000E+00  0.00000000000E+00  0.45593999997E+02  0.45594000000E+02  0.51100000000E-03 0.  1.
         11   -1    0    0    0    0 -0.00000000000E+00 -0.00000000000E+00 -0.45593999997E+02  0.45594000000E+02  0.51100000000E-03 0. -1.
    9900012    2    1    2    0    0  0.10510691407E+01 -0.23007322154E+00 -0.48500971870E+00  0.90007782032E+02  0.90000043954E+02 0.  0.
        -12    1    1    2    0    0 -0.10510691407E+01  0.23007322154E+00  0.48500971870E+00  0.11802179684E+01  0.00000000000E+00 0.  1.
         11    1    3    3    0    0 -0.27034833304E+02 -0.30036650726E+02  0.11611494426E+02  0.42046514738E+02  0.51100000000E-03 0. -1.
        -11    1    3    3    0    0 -0.68411421714E+00  0.87147690681E+01  0.29763902018E+01  0.92343982515E+01  0.51100000000E-03 0.  1.
        -12    1    3    3    0    0  0.28770016661E+02  0.21091808436E+02 -0.15072894347E+02  0.38726869042E+02  0.00000000000E+00 0.  1.
</event>
<event>
 7    1  0.4195243E-015  0.9000781E+02  0.7816164E-02  0.1186339E+00
        -11   -1    0    0    0    0  0.00000000000E+00  0.00000000000E+00  0.45593999997E+02  0.45594000000E+02  0.51100000000E-03 0. -1.
         11   -1    0    0    0    0 -0.00000000000E+00 -0.00000000000E+00 -0.45593999997E+02  0.45594000000E+02  0.51100000000E-03 0.  1.
    9900012    2    1    2    0    0 -0.11333683993E+01  0.15171551752E+00  0.29206265062E+00  0.90007812676E+02  0.90000075004E+02 0.  0.
        -12    1    1    2    0    0  0.11333683993E+01 -0.15171551752E+00 -0.29206265062E+00  0.11801873236E+01  0.00000000000E+00 0.  1.
         11    1    3    3    0    0 -0.13054625134E+02 -0.44578318818E+01 -0.15052141809E+02  0.20417210283E+02  0.51100000000E-03 0. -1.
        -11    1    3    3    0    0  0.31133516161E+01  0.25032866640E+02 -0.16940463458E+02  0.30386126323E+02  0.51100000000E-03 0.  1.
         12    1    3    3    0    0  0.88079051185E+01 -0.20423319241E+02  0.32284667917E+02  0.39204476070E+02  0.00000000000E+00 0. -1.
</event>
<event>
 7    1  0.4195243E-015  0.9000773E+02  0.7816164E-02  0.1186339E+00
        -11   -1    0    0    0    0  0.00000000000E+00  0.00000000000E+00  0.45593999997E+02  0.45594000000E+02  0.51100000000E-03 0.  1.
         11   -1    0    0    0    0 -0.00000000000E+00 -0.00000000000E+00 -0.45593999997E+02  0.45594000000E+02  0.51100000000E-03 0. -1.
    9900012    2    1    2    0    0 -0.32620368820E-01 -0.92827587419E-01 -0.11761590756E+01  0.90007732564E+02  0.89999993834E+02 0.  0.
        -12    1    1    2    0    0  0.32620368820E-01  0.92827587419E-01  0.11761590756E+01  0.11802674360E+01  0.00000000000E+00 0.  1.
         11    1    3    3    0    0 -0.59386288095E+00 -0.10722325222E+02  0.40799786017E-01  0.10738835885E+02  0.51100000000E-03 0. -1.
        -11    1    3    3    0    0 -0.33977896488E+02  0.17367786476E+02  0.14377515492E+02  0.40778062838E+02  0.51100000000E-03 0.  1.
         12    1    3    3    0    0  0.34539139000E+02 -0.67382888416E+01 -0.15594474354E+02  0.38490833841E+02  0.00000000000E+00 0. -1.
</event>
<event>
 7    1  0.4195243E-015  0.9000769E+02  0.7816164E-02  0.1186339E+00
        -11   -1    0    0    0    0  0.00000000000E+00  0.00000000000E+00  0.45593999997E+02  0.45594000000E+02  0.51100000000E-03 0. -1.
         11   -1    0    0    0    0 -0.00000000000E+00 -0.00000000000E+00 -0.45593999997E+02  0.45594000000E+02  0.51100000000E-03 0.  1.
    9900012    2    1    2    0    0 -0.99077690646E+00 -0.43135362118E-01  0.64001881184E+00  0.90007693422E+02  0.89999954175E+02 0.  0.
        -12    1    1    2    0    0  0.99077690646E+00  0.43135362118E-01 -0.64001881184E+00  0.11803065777E+01  0.00000000000E+00 0.  1.
         11    1    3    3    0    0 -0.26043351626E+01 -0.96492633451E+01  0.13454454670E+01  0.10084694765E+02  0.51100000000E-03 0. -1.
        -11    1    3    3    0    0 -0.15056920280E+02  0.71665291772E+01 -0.36628248102E+02  0.40245478603E+02  0.51100000000E-03 0.  1.
         12    1    3    3    0    0  0.16670478536E+02  0.24395988058E+01  0.35922821446E+02  0.39677520054E+02  0.00000000000E+00 0. -1.
</event>
<event>
 7    1  0.4195243E-015  0.9000677E+02  0.7816164E-02  0.1186341E+00
        -11   -1    0    0    0    0  0.00000000000E+00  0.00000000000E+00  0.45593999997E+02  0.45594000000E+02  0.51100000000E-03 0.  1.
         11   -1    0    0    0    0 -0.00000000000E+00 -0.00000000000E+00 -0.45593999997E+02  0.45594000000E+02  0.51100000000E-03 0. -1.
    9900012    2    1    2    0    0  0.43000929638E+00 -0.67214914328E-01 -0.10981219040E+01  0.90006772860E+02  0.89999021457E+02 0.  0.
        -12    1    1    2    0    0 -0.43000929638E+00  0.67214914328E-01  0.10981219040E+01  0.11812271398E+01  0.00000000000E+00 0.  1.
         11    1    3    3    0    0  0.27714505589E+02 -0.32279155331E+02  0.24634863388E+01  0.42615800522E+02  0.51100000000E-03 0. -1.
        -11    1    3    3    0    0 -0.70002245747E+01 -0.20751605420E+01  0.65451882462E+00  0.73306091510E+01  0.51100000000E-03 0.  1.
        -12    1    3    3    0    0 -0.20284271718E+02  0.34287100958E+02 -0.42161270675E+01  0.40060363187E+02  0.00000000000E+00 0.  1.
</event>
<event>
 7    1  0.4195243E-015  0.9000762E+02  0.7816164E-02  0.1186339E+00
        -11   -1    0    0    0    0  0.00000000000E+00  0.00000000000E+00  0.45593999997E+02  0.45594000000E+02  0.51100000000E-03 0. -1.
         11   -1    0    0    0    0 -0.00000000000E+00 -0.00000000000E+00 -0.45593999997E+02  0.45594000000E+02  0.51100000000E-03 0.  1.
    9900012    2    1    2    0    0 -0.78927021354E+00 -0.87643692943E+00  0.46970926196E-01  0.90007620642E+02  0.89999880434E+02 0.  0.
        -12    1    1    2    0    0  0.78927021354E+00  0.87643692943E+00 -0.46970926196E-01  0.11803793582E+01  0.00000000000E+00 0.  1.
         11    1    3    3    0    0 -0.17554873958E+02 -0.26012679994E+02 -0.19107668022E+02  0.36741476531E+02  0.51100000000E-03 0. -1.
        -11    1    3    3    0    0 -0.73041926671E+01 -0.44787266879E+01 -0.30725620787E+01  0.91022448468E+01  0.51100000000E-03 0.  1.
        -12    1    3    3    0    0  0.24069796411E+02  0.29614969753E+02  0.22227201027E+02  0.44163899264E+02  0.00000000000E+00 0.  1.
</event>
<event>
 7    1  0.4195243E-015  0.9000767E+02  0.7816164E-02  0.1186339E+00
        -11   -1    0    0    0    0  0.00000000000E+00  0.00000000000E+00  0.45593999997E+02  0.45594000000E+02  0.51100000000E-03 0. -1.
         11   -1    0    0    0    0 -0.00000000000E+00 -0.00000000000E+00 -0.45593999997E+02  0.45594000000E+02  0.51100000000E-03 0.  1.
    9900012    2    1    2    0    0 -0.99499818048E+00 -0.18878693625E+00 -0.60622288951E+00  0.90007674588E+02  0.89999935093E+02 0.  0.
        -12    1    1    2    0    0  0.99499818048E+00  0.18878693625E+00  0.60622288951E+00  0.11803254120E+01  0.00000000000E+00 0.  1.
         11    1    3    3    0    0 -0.91959363245E+01 -0.13974899992E+01 -0.40670846679E+01  0.10151817627E+02  0.51100000000E-03 0. -1.
        -11    1    3    3    0    0 -0.33173305437E+02 -0.12315772622E+02 -0.42824880906E+01  0.35643879606E+02  0.51100000000E-03 0.  1.
         12    1    3    3    0    0  0.41374243581E+02  0.13524475684E+02  0.77433498689E+01  0.44211977355E+02  0.00000000000E+00 0. -1.
</event>
<event>
 7    1  0.4195243E-015  0.9000773E+02  0.7816164E-02  0.1186339E+00
        -11   -1    0    0    0    0  0.00000000000E+00  0.00000000000E+00  0.45593999997E+02  0.45594000000E+02  0.51100000000E-03 0.  1.
         11   -1    0    0    0    0 -0.00000000000E+00 -0.00000000000E+00 -0.45593999997E+02  0.45594000000E+02  0.51100000000E-03 0. -1.
    9900012    2    1    2    0    0 -0.48130012918E+00 -0.22537338096E+00 -0.10538456878E+01  0.90007731510E+02  0.89999992766E+02 0.  0.
        -12    1    1    2    0    0  0.48130012918E+00  0.22537338096E+00  0.10538456878E+01  0.11802684902E+01  0.00000000000E+00 0.  1.
         11    1    3    3    0    0  0.35157404760E+01 -0.28190036592E+01  0.17335352038E+02  0.17911494724E+02  0.51100000000E-03 0. -1.
        -11    1    3    3    0    0 -0.12353125493E+02  0.29018271551E+02  0.93395364755E+01  0.32892046685E+02  0.51100000000E-03 0.  1.
         12    1    3    3    0    0  0.83560848879E+01 -0.26424641273E+02 -0.27728734201E+02  0.39204190101E+02  0.00000000000E+00 0. -1.
</event>
<event>
 7    1  0.4195243E-015  0.9000778E+02  0.7816164E-02  0.1186339E+00
        -11   -1    0    0    0    0  0.00000000000E+00  0.00000000000E+00  0.45593999997E+02  0.45594000000E+02  0.51100000000E-03 0. -1.
         11   -1    0    0    0    0 -0.00000000000E+00 -0.00000000000E+00 -0.45593999997E+02  0.45594000000E+02  0.51100000000E-03 0.  1.
    9900012    2    1    2    0    0 -0.85778121578E+00 -0.78722478736E+00  0.19340786949E+00  0.90007780493E+02  0.90000042396E+02 0.  0.
        -12    1    1    2    0    0  0.85778121578E+00  0.78722478736E+00 -0.19340786949E+00  0.11802195067E+01  0.00000000000E+00 0.  1.
         11    1    3    3    0    0 -0.97376034328E+01  0.30462555422E+02  0.10023742287E+02  0.33515125140E+02  0.51100000000E-03 0. -1.
        -11    1    3    3    0    0 -0.51837304010E+01  0.75173092250E+01  0.74445547103E+01  0.11781442779E+02  0.51100000000E-03 0.  1.
        -12    1    3    3    0    0  0.14063552618E+02 -0.38767089435E+02 -0.17274889127E+02  0.44711212574E+02  0.00000000000E+00 0.  1.
</event>
<event>
 7    1  0.4195243E-015  0.9000791E+02  0.7816164E-02  0.1186339E+00
        -11   -1    0    0    0    0  0.00000000000E+00  0.00000000000E+00  0.45593999997E+02  0.45594000000E+02  0.51100000000E-03 0. -1.
         11   -1    0    0    0    0 -0.00000000000E+00 -0.00000000000E+00 -0.45593999997E+02  0.45594000000E+02  0.51100000000E-03 0.  1.
    9900012    2    1    2    0    0 -0.10828159835E+01  0.46799902663E+00 -0.33117151042E-01  0.90007910898E+02  0.90000174522E+02 0.  0.
        -12    1    1    2    0    0  0.10828159835E+01 -0.46799902663E+00  0.33117151042E-01  0.11800891021E+01  0.00000000000E+00 0.  1.
         11    1    3    3    0    0  0.10966373743E+02 -0.33340513678E+01  0.25166056383E+02  0.27653347821E+02  0.51100000000E-03 0. -1.
        -11    1    3    3    0    0  0.87564909333E+01 -0.14609057827E+02  0.82062053556E+01  0.18906150075E+02  0.51100000000E-03 0.  1.
        -12    1    3    3    0    0 -0.20805680659E+02  0.18411108222E+02 -0.33405378889E+02  0.43448413002E+02  0.00000000000E+00 0.  1.
</event>
<event>
 7    1  0.4195243E-015  0.9000768E+02  0.7816164E-02  0.1186339E+00
        -11   -1    0    0    0    0  0.00000000000E+00  0.00000000000E+00  0.45593999997E+02  0.45594000000E+02  0.51100000000E-03 0.  1.
         11   -1    0    0    0    0 -0.00000000000E+00 -0.00000000000E+00 -0.45593999997E+02  0.45594000000E+02  0.51100000000E-03 0. -1.
    9900012    2    1    2    0    0  0.97121251656E+00  0.59436724540E+00 -0.31086016181E+00  0.90007677919E+02  0.89999938467E+02 0.  0.
        -12    1    1    2    0    0 -0.97121251656E+00 -0.59436724540E+00  0.31086016181E+00  0.11803220810E+01  0.00000000000E+00 0.  1.
         11    1    3    3    0    0 -0.49777236391E+01  0.18833723060E+02 -0.13205938741E+02  0.23534733379E+02  0.51100000000E-03 0. -1.
        -11    1    3    3    0    0 -0.26634992926E+01  0.21729066791E+02 -0.39639079279E+01  0.22247677146E+02  0.51100000000E-03 0.  1.
        -12    1    3    3    0    0  0.86124354482E+01 -0.39968422606E+02  0.16858986507E+02  0.44225267393E+02  0.00000000000E+00 0.  1.
</event>
<event>
 7    1  0.4195243E-015  0.9000771E+02  0.7816164E-02  0.1186339E+00
        -11   -1    0    0    0    0  0.00000000000E+00  0.00000000000E+00  0.45593999997E+02  0.45594000000E+02  0.51100000000E-03 0.  1.
         11   -1    0    0    0    0 -0.00000000000E+00 -0.00000000000E+00 -0.45593999997E+02  0.45594000000E+02  0.51100000000E-03 0. -1.
    9900012    2    1    2    0    0 -0.79837980629E-01  0.11126224671E+01 -0.38573226647E+00  0.90007706715E+02  0.89999967644E+02 0.  0.
        -12    1    1    2    0    0  0.79837980629E-01 -0.11126224671E+01  0.38573226647E+00  0.11802932851E+01  0.00000000000E+00 0.  1.
         11    1    3    3    0    0 -0.17949202789E+02 -0.24028707650E+01  0.35828455303E+02  0.40145060448E+02  0.51100000000E-03 0. -1.
        -11    1    3    3    0    0 -0.10828174887E+01  0.10543190763E+02 -0.30581999375E+01  0.11031044932E+02  0.51100000000E-03 0.  1.
        -12    1    3    3    0    0  0.18952182297E+02 -0.70276975308E+01 -0.33155987632E+02  0.38831601335E+02  0.00000000000E+00 0.  1.
</event>
<event>
 7    1  0.4195243E-015  0.9000769E+02  0.7816164E-02  0.1186339E+00
        -11   -1    0    0    0    0  0.00000000000E+00  0.00000000000E+00  0.45593999997E+02  0.45594000000E+02  0.51100000000E-03 0.  1.
         11   -1    0    0    0    0 -0.00000000000E+00 -0.00000000000E+00 -0.45593999997E+02  0.45594000000E+02  0.51100000000E-03 0. -1.
    9900012    2    1    2    0    0  0.72415502500E-01 -0.76978604332E-02 -0.11780607480E+01  0.90007690554E+02  0.89999951269E+02 0.  0.
        -12    1    1    2    0    0 -0.72415502500E-01  0.76978604332E-02  0.11780607480E+01  0.11803094458E+01  0.00000000000E+00 0.  1.
         11    1    3    3    0    0 -0.42155795685E+01 -0.11635557118E+02 -0.64455464584E+01  0.13953579109E+02  0.51100000000E-03 0. -1.
        -11    1    3    3    0    0  0.65896366946E+01 -0.17856324059E+02  0.31314516464E+02  0.36645198353E+02  0.51100000000E-03 0.  1.
         12    1    3    3    0    0 -0.23016416236E+01  0.29484183317E+02 -0.26047030753E+02  0.39408913092E+02  0.00000000000E+00 0. -1.
</event>
<event>
 7    1  0.4195243E-015  0.9000774E+02  0.7816164E-02  0.1186339E+00
        -11   -1    0    0    0    0  0.00000000000E+00  0.00000000000E+00  0.45593999997E+02  0.45594000000E+02  0.51100000000E-03 0.  1.
         11   -1    0    0    0    0 -0.00000000000E+00 -0.00000000000E+00 -0.45593999997E+02  0.45594000000E+02  0.51100000000E-03 0. -1.
    9900012    2    1    2    0    0 -0.90714574815E+00 -0.71127269264E+00 -0.25336260066E+00  0.90007739495E+02  0.90000000857E+02 0.  0.
        -12    1    1    2    0    0  0.90714574815E+00  0.71127269264E+00  0.25336260066E+00  0.11802605048E+01  0.00000000000E+00 0.  1.
         11    1    3    3    0    0 -0.14390666803E+02 -0.35009718278E+01 -0.27072158481E+01  0.15055799968E+02  0.51100000000E-03 0. -1.
        -11    1    3    3    0    0  0.42718381255E+02 -0.57748701025E+01 -0.55282494640E+01  0.43459990384E+02  0.51100000000E-03 0.  1.
         12    1    3    3    0    0 -0.29234860200E+02  0.85645692377E+01  0.79821027114E+01  0.31491949144E+02  0.00000000000E+00 0. -1.
</event>
<event>
 7    1  0.4195243E-015  0.9000777E+02  0.7816164E-02  0.1186339E+00
        -11   -1    0    0    0    0  0.00000000000E+00  0.00000000000E+00  0.45593999997E+02  0.45594000000E+02  0.51100000000E-03 0.  1.
         11   -1    0    0    0    0 -0.00000000000E+00 -0.00000000000E+00 -0.45593999997E+02  0.45594000000E+02  0.51100000000E-03 0. -1.
    9900012    2    1    2    0    0  0.76266478541E+00  0.88765069928E+00  0.15287049331E+00  0.90007766664E+02  0.90000028384E+02 0.  0.
        -12    1    1    2    0    0 -0.76266478541E+00 -0.88765069928E+00 -0.15287049331E+00  0.11802333356E+01  0.00000000000E+00 0.  1.
         11    1    3    3    0    0 -0.22358760784E+02  0.59125493101E+01 -0.30066838590E+02  0.37932666743E+02  0.51100000000E-03 0. -1.
        -11    1    3    3    0    0 -0.74938288291E+01 -0.54499567503E+01  0.30812880012E+00  0.92711618861E+01  0.51100000000E-03 0.  1.
        -12    1    3    3    0    0  0.30615254398E+02  0.42505813944E+00  0.29911580284E+02  0.42803938036E+02  0.00000000000E+00 0.  1.
</event>
<event>
 7    1  0.4195243E-015  0.9000780E+02  0.7816164E-02  0.1186339E+00
        -11   -1    0    0    0    0  0.00000000000E+00  0.00000000000E+00  0.45593999997E+02  0.45594000000E+02  0.51100000000E-03 0. -1.
         11   -1    0    0    0    0 -0.00000000000E+00 -0.00000000000E+00 -0.45593999997E+02  0.45594000000E+02  0.51100000000E-03 0.  1.
    9900012    2    1    2    0    0  0.77019120476E+00 -0.47308516119E+00  0.75886208262E+00  0.90007798440E+02  0.90000060579E+02 0.  0.
        -12    1    1    2    0    0 -0.77019120476E+00  0.47308516119E+00 -0.75886208262E+00  0.11802015599E+01  0.00000000000E+00 0.  1.
         11    1    3    3    0    0 -0.24039943743E+02 -0.24402160406E+02 -0.13224759514E+02  0.36718913275E+02  0.51100000000E-03 0. -1.
        -11    1    3    3    0    0 -0.45309086102E+01 -0.72138315699E+01  0.10140953976E+01  0.85788628902E+01  0.51100000000E-03 0.  1.
        -12    1    3    3    0    0  0.29341043558E+02  0.31142906814E+02  0.12969526199E+02  0.44710022274E+02  0.00000000000E+00 0.  1.
</event>
<event>
 7    1  0.4195243E-015  0.9000772E+02  0.7816164E-02  0.1186339E+00
        -11   -1    0    0    0    0  0.00000000000E+00  0.00000000000E+00  0.45593999997E+02  0.45594000000E+02  0.51100000000E-03 0. -1.
         11   -1    0    0    0    0 -0.00000000000E+00 -0.00000000000E+00 -0.45593999997E+02  0.45594000000E+02  0.51100000000E-03 0.  1.
    9900012    2    1    2    0    0 -0.81701029481E+00 -0.44410580554E+00  0.72685631891E+00  0.90007722110E+02  0.89999983242E+02 0.  0.
        -12    1    1    2    0    0  0.81701029481E+00  0.44410580554E+00 -0.72685631891E+00  0.11802778896E+01  0.00000000000E+00 0.  1.
         11    1    3    3    0    0 -0.43663962617E+01 -0.69548808857E+01  0.34412363821E+01  0.89038133711E+01  0.51100000000E-03 0. -1.
        -11    1    3    3    0    0 -0.23139066804E+02 -0.70454177990E+01 -0.31405499560E+02  0.39640380011E+02  0.51100000000E-03 0.  1.
         12    1    3    3    0    0  0.26688452771E+02  0.13556192879E+02  0.28691119496E+02  0.41463528729E+02  0.00000000000E+00 0. -1.
</event>
<event>
 7    1  0.4195243E-015  0.9000781E+02  0.7816164E-02  0.1186339E+00
        -11   -1    0    0    0    0  0.00000000000E+00  0.00000000000E+00  0.45593999997E+02  0.45594000000E+02  0.51100000000E-03 0.  1.
         11   -1    0    0    0    0 -0.00000000000E+00 -0.00000000000E+00 -0.45593999997E+02  0.45594000000E+02  0.51100000000E-03 0. -1.
    9900012    2    1    2    0    0 -0.10235414882E+01 -0.51900842678E+00 -0.27539802062E+00  0.90007808916E+02  0.90000071194E+02 0.  0.
        -12    1    1    2    0    0  0.10235414882E+01  0.51900842678E+00  0.27539802062E+00  0.11801910841E+01  0.00000000000E+00 0.  1.
         11    1    3    3    0    0 -0.30116165292E+02 -0.82876604334E+01 -0.20266474439E+02  0.37234375432E+02  0.51100000000E-03 0. -1.
        -11    1    3    3    0    0 -0.25643601034E+01 -0.10808046423E+02  0.28210662305E+00  0.11111678300E+02  0.51100000000E-03 0.  1.
        -12    1    3    3    0    0  0.31656983907E+02  0.18576698430E+02  0.19708969795E+02  0.41661755184E+02  0.00000000000E+00 0.  1.
</event>
<event>
 7    1  0.4195243E-015  0.9000772E+02  0.7816164E-02  0.1186339E+00
        -11   -1    0    0    0    0  0.00000000000E+00  0.00000000000E+00  0.45593999997E+02  0.45594000000E+02  0.51100000000E-03 0. -1.
         11   -1    0    0    0    0 -0.00000000000E+00 -0.00000000000E+00 -0.45593999997E+02  0.45594000000E+02  0.51100000000E-03 0.  1.
    9900012    2    1    2    0    0  0.62973726917E+00 -0.93477538573E+00 -0.35026132786E+00  0.90007721623E+02  0.89999982748E+02 0.  0.
        -12    1    1    2    0    0 -0.62973726917E+00  0.93477538573E+00  0.35026132786E+00  0.11802783772E+01  0.00000000000E+00 0.  1.
         11    1    3    3    0    0  0.28111570678E+01 -0.94222545925E+00 -0.98982407243E+01  0.10332742258E+02  0.51100000000E-03 0. -1.
        -11    1    3    3    0    0  0.12357997755E+02  0.31867643032E+02 -0.14566802716E+02  0.37154522235E+02  0.51100000000E-03 0.  1.
         12    1    3    3    0    0 -0.14539417554E+02 -0.31860192958E+02  0.24114782113E+02  0.42520457129E+02  0.00000000000E+00 0. -1.
</event>
<event>
 7    1  0.4195243E-015  0.9000779E+02  0.7816164E-02  0.1186339E+00
        -11   -1    0    0    0    0  0.00000000000E+00  0.00000000000E+00  0.45593999997E+02  0.45594000000E+02  0.51100000000E-03 0. -1.
         11   -1    0    0    0    0 -0.00000000000E+00 -0.00000000000E+00 -0.45593999997E+02  0.45594000000E+02  0.51100000000E-03 0.  1.
    9900012    2    1    2    0    0 -0.11084743811E+00 -0.10490155358E+01 -0.52931661462E+00  0.90007789499E+02  0.90000051520E+02 0.  0.
        -12    1    1    2    0    0  0.11084743811E+00  0.10490155358E+01  0.52931661462E+00  0.11802105013E+01  0.00000000000E+00 0.  1.
         11    1    3    3    0    0 -0.81035812327E+01 -0.81847508010E+01  0.45026488481E+01  0.12366568699E+02  0.51100000000E-03 0. -1.
        -11    1    3    3    0    0 -0.17953483795E+02 -0.25599479438E+02 -0.15027220561E+02  0.34691184556E+02  0.51100000000E-03 0.  1.
         12    1    3    3    0    0  0.25946217589E+02  0.32735214703E+02  0.99952550987E+01  0.42950036244E+02  0.00000000000E+00 0. -1.
</event>
<event>
 7    1  0.4195243E-015  0.9000783E+02  0.7816164E-02  0.1186339E+00
        -11   -1    0    0    0    0  0.00000000000E+00  0.00000000000E+00  0.45593999997E+02  0.45594000000E+02  0.51100000000E-03 0. -1.
         11   -1    0    0    0    0 -0.00000000000E+00 -0.00000000000E+00 -0.45593999997E+02  0.45594000000E+02  0.51100000000E-03 0.  1.
    9900012    2    1    2    0    0 -0.80950887271E+00  0.67802681748E+00 -0.52705412743E+00  0.90007825846E+02  0.90000088347E+02 0.  0.
        -12    1    1    2    0    0  0.80950887271E+00 -0.67802681748E+00  0.52705412743E+00  0.11801741539E+01  0.00000000000E+00 0.  1.
         11    1    3    3    0    0  0.99157008217E+01  0.49904323613E+00  0.55758632163E+00  0.99438961028E+01  0.51100000000E-03 0. -1.
        -11    1    3    3    0    0 -0.71129274788E+01  0.12743020109E+01 -0.40160876251E+02  0.40805803073E+02  0.51100000000E-03 0.  1.
         12    1    3    3    0    0 -0.36122822156E+01 -0.10953184295E+01  0.39076235802E+02  0.39258126671E+02  0.00000000000E+00 0. -1.
</event>
<event>
 7    1  0.4195243E-015  0.9000834E+02  0.7816164E-02  0.1186338E+00
        -11   -1    0    0    0    0  0.00000000000E+00  0.00000000000E+00  0.45593999997E+02  0.45594000000E+02  0.51100000000E-03 0. -1.
         11   -1    0    0    0    0 -0.00000000000E+00 -0.00000000000E+00 -0.45593999997E+02  0.45594000000E+02  0.51100000000E-03 0.  1.
    9900012    2    1    2    0    0 -0.10631550109E+01 -0.37332153122E+00  0.34917155299E+00  0.90008343984E+02  0.90000613322E+02 0.  0.
        -12    1    1    2    0    0  0.10631550109E+01  0.37332153122E+00 -0.34917155299E+00  0.11796560161E+01  0.00000000000E+00 0.  1.
         11    1    3    3    0    0 -0.73853255202E+01  0.51104974967E+01  0.13944737699E+01  0.90887169094E+01  0.51100000000E-03 0. -1.
        -11    1    3    3    0    0 -0.42450865604E+01  0.36673446248E+02 -0.51020782652E+01  0.37269204747E+02  0.51100000000E-03 0.  1.
         12    1    3    3    0    0  0.10567257070E+02 -0.42157265275E+02  0.40567760483E+01  0.43650422328E+02  0.00000000000E+00 0. -1.
</event>
<event>
 7    1  0.4195243E-015  0.9000784E+02  0.7816164E-02  0.1186339E+00
        -11   -1    0    0    0    0  0.00000000000E+00  0.00000000000E+00  0.45593999997E+02  0.45594000000E+02  0.51100000000E-03 0.  1.
         11   -1    0    0    0    0 -0.00000000000E+00 -0.00000000000E+00 -0.45593999997E+02  0.45594000000E+02  0.51100000000E-03 0. -1.
    9900012    2    1    2    0    0  0.11669364814E+01  0.13079801624E+00 -0.11802349383E+00  0.90007839664E+02  0.90000102348E+02 0.  0.
        -12    1    1    2    0    0 -0.11669364814E+01 -0.13079801624E+00  0.11802349383E+00  0.11801603356E+01  0.00000000000E+00 0.  1.
         11    1    3    3    0    0  0.53858272738E+00 -0.11476937278E+02 -0.38039675871E+01  0.12102905862E+02  0.51100000000E-03 0. -1.
        -11    1    3    3    0    0  0.21705715213E+02 -0.25643427146E+02 -0.57275923514E+01  0.34081208064E+02  0.51100000000E-03 0.  1.
         12    1    3    3    0    0 -0.21077361459E+02  0.37251162440E+02  0.94135364447E+01  0.43823725739E+02  0.00000000000E+00 0. -1.
</event>
<event>
 7    1  0.4195243E-015  0.9000764E+02  0.7816164E-02  0.1186339E+00
        -11   -1    0    0    0    0  0.00000000000E+00  0.00000000000E+00  0.45593999997E+02  0.45594000000E+02  0.51100000000E-03 0. -1.
         11   -1    0    0    0    0 -0.00000000000E+00 -0.00000000000E+00 -0.45593999997E+02  0.45594000000E+02  0.51100000000E-03 0.  1.
    9900012    2    1    2    0    0 -0.10874311309E+01 -0.45463644807E+00 -0.63720183553E-01  0.90007635215E+02  0.89999895200E+02 0.  0.
        -12    1    1    2    0    0  0.10874311309E+01  0.45463644807E+00  0.63720183553E-01  0.11803647852E+01  0.00000000000E+00 0.  1.
         11    1    3    3    0    0 -0.32572764617E+02  0.12699084412E+02  0.53071156540E+01  0.35361238900E+02  0.51100000000E-03 0. -1.
        -11    1    3    3    0    0 -0.95368957558E+01  0.29164429924E+01 -0.34293775230E+01  0.10546025358E+02  0.51100000000E-03 0.  1.
        -12    1    3    3    0    0  0.41022229242E+02 -0.16070163852E+02 -0.19414583146E+01  0.44100370958E+02  0.00000000000E+00 0.  1.
</event>
<event>
 7    1  0.4195243E-015  0.9000754E+02  0.7816164E-02  0.1186339E+00
        -11   -1    0    0    0    0  0.00000000000E+00  0.00000000000E+00  0.45593999997E+02  0.45594000000E+02  0.51100000000E-03 0.  1.
         11   -1    0    0    0    0 -0.00000000000E+00 -0.00000000000E+00 -0.45593999997E+02  0.45594000000E+02  0.51100000000E-03 0. -1.
    9900012    2    1    2    0    0 -0.10904550125E+01 -0.38759934574E+00  0.23273859725E+00  0.90007537107E+02  0.89999795797E+02 0.  0.
        -12    1    1    2    0    0  0.10904550125E+01  0.38759934574E+00 -0.23273859725E+00  0.11804628930E+01  0.00000000000E+00 0.  1.
         11    1    3    3    0    0  0.28132841107E+02 -0.30085232828E+02  0.13650512945E+02  0.43392562577E+02  0.51100000000E-03 0. -1.
        -11    1    3    3    0    0 -0.11562078622E+02  0.22476702330E+01 -0.56456271829E+01  0.13061653421E+02  0.51100000000E-03 0.  1.
        -12    1    3    3    0    0 -0.17661217497E+02  0.27449963249E+02 -0.77721471645E+01  0.33553321109E+02  0.00000000000E+00 0.  1.
</event>
<event>
 7    1  0.4195243E-015  0.9000779E+02  0.7816164E-02  0.1186339E+00
        -11   -1    0    0    0    0  0.00000000000E+00  0.00000000000E+00  0.45593999997E+02  0.45594000000E+02  0.51100000000E-03 0.  1.
         11   -1    0    0    0    0 -0.00000000000E+00 -0.00000000000E+00 -0.45593999997E+02  0.45594000000E+02  0.51100000000E-03 0. -1.
    9900012    2    1    2    0    0  0.10315458930E+01  0.25450728185E+00  0.51385326108E+00  0.90007785587E+02  0.90000047557E+02 0.  0.
        -12    1    1    2    0    0 -0.10315458930E+01 -0.25450728185E+00 -0.51385326108E+00  0.11802144126E+01  0.00000000000E+00 0.  1.
         11    1    3    3    0    0 -0.79329223053E+01  0.13859561625E+02 -0.32600298844E+02  0.36301490185E+02  0.51100000000E-03 0. -1.
        -11    1    3    3    0    0 -0.20717371051E+01  0.31879413398E+01 -0.74911529133E+01  0.84007402561E+01  0.51100000000E-03 0.  1.
        -12    1    3    3    0    0  0.11036205303E+02 -0.16792995683E+02  0.40605305018E+02  0.45305555146E+02  0.00000000000E+00 0.  1.
</event>
<event>
 7    1  0.4195243E-015  0.9000773E+02  0.7816164E-02  0.1186339E+00
        -11   -1    0    0    0    0  0.00000000000E+00  0.00000000000E+00  0.45593999997E+02  0.45594000000E+02  0.51100000000E-03 0.  1.
         11   -1    0    0    0    0 -0.00000000000E+00 -0.00000000000E+00 -0.45593999997E+02  0.45594000000E+02  0.51100000000E-03 0. -1.
    9900012    2    1    2    0    0 -0.29840966360E+00  0.10482743250E+01 -0.45287934303E+00  0.90007734315E+02  0.89999995608E+02 0.  0.
        -12    1    1    2    0    0  0.29840966360E+00 -0.10482743250E+01  0.45287934303E+00  0.11802656850E+01  0.00000000000E+00 0.  1.
         11    1    3    3    0    0 -0.74132216514E+01 -0.77922263347E+01  0.62450714151E+01  0.12436863099E+02  0.51100000000E-03 0. -1.
        -11    1    3    3    0    0  0.37726206528E+01 -0.28090523591E+01  0.34401598110E+02  0.34721655988E+02  0.51100000000E-03 0.  1.
         12    1    3    3    0    0  0.33421913351E+01  0.11649553019E+02 -0.41099548868E+02  0.42849215228E+02  0.00000000000E+00 0. -1.
</event>
<event>
 7    1  0.4195243E-015  0.9000778E+02  0.7816164E-02  0.1186339E+00
        -11   -1    0    0    0    0  0.00000000000E+00  0.00000000000E+00  0.45593999997E+02  0.45594000000E+02  0.51100000000E-03 0. -1.
         11   -1    0    0    0    0 -0.00000000000E+00 -0.00000000000E+00 -0.45593999997E+02  0.45594000000E+02  0.51100000000E-03 0.  1.
    9900012    2    1    2    0    0  0.72198518925E+00 -0.49007536120E+00  0.79465581855E+00  0.90007782078E+02  0.90000044002E+02 0.  0.
        -12    1    1    2    0    0 -0.72198518925E+00  0.49007536120E+00 -0.79465581855E+00  0.11802179219E+01  0.00000000000E+00 0.  1.
         11    1    3    3    0    0  0.35437761047E+02  0.10844589332E+02  0.18208950746E+02  0.41291717249E+02  0.51100000000E-03 0. -1.
        -11    1    3    3    0    0  0.21781760911E+00 -0.80047478219E+01  0.24726583588E+01  0.83807799054E+01  0.51100000000E-03 0.  1.
        -12    1    3    3    0    0 -0.34933593467E+02 -0.33299168714E+01 -0.19886953286E+02  0.40335284924E+02  0.00000000000E+00 0.  1.
</event>
<event>
 7    1  0.4195243E-015  0.9000775E+02  0.7816164E-02  0.1186339E+00
        -11   -1    0    0    0    0  0.00000000000E+00  0.00000000000E+00  0.45593999997E+02  0.45594000000E+02  0.51100000000E-03 0.  1.
         11   -1    0    0    0    0 -0.00000000000E+00 -0.00000000000E+00 -0.45593999997E+02  0.45594000000E+02  0.51100000000E-03 0. -1.
    9900012    2    1    2    0    0 -0.26670551404E+00 -0.47651311652E+00 -0.10463265930E+01  0.90007747518E+02  0.90000008986E+02 0.  0.
        -12    1    1    2    0    0  0.26670551404E+00  0.47651311652E+00  0.10463265930E+01  0.11802524817E+01  0.00000000000E+00 0.  1.
         11    1    3    3    0    0 -0.27570862305E+02 -0.14664792337E+02 -0.24441117524E+02  0.39655728572E+02  0.51100000000E-03 0. -1.
        -11    1    3    3    0    0  0.16238781396E+01  0.31793193450E+01 -0.77368395393E+01  0.85207827121E+01  0.51100000000E-03 0.  1.
        -12    1    3    3    0    0  0.25680278651E+02  0.11008959876E+02  0.31131630470E+02  0.41831236234E+02  0.00000000000E+00 0.  1.
</event>
<event>
 7    1  0.4195243E-015  0.9000778E+02  0.7816164E-02  0.1186339E+00
        -11   -1    0    0    0    0  0.00000000000E+00  0.00000000000E+00  0.45593999997E+02  0.45594000000E+02  0.51100000000E-03 0. -1.
         11   -1    0    0    0    0 -0.00000000000E+00 -0.00000000000E+00 -0.45593999997E+02  0.45594000000E+02  0.51100000000E-03 0.  1.
    9900012    2    1    2    0    0 -0.31401796362E+00 -0.11368005582E+01 -0.44672402551E-01  0.90007780353E+02  0.90000042254E+02 0.  0.
        -12    1    1    2    0    0  0.31401796362E+00  0.11368005582E+01  0.44672402551E-01  0.11802196466E+01  0.00000000000E+00 0.  1.
         11    1    3    3    0    0 -0.11260060386E+02 -0.20718629116E+02 -0.18710213470E+02  0.30101871050E+02  0.51100000000E-03 0. -1.
        -11    1    3    3    0    0 -0.15696443266E+00 -0.14281514658E+02 -0.70809416401E+01  0.15941330984E+02  0.51100000000E-03 0.  1.
        -12    1    3    3    0    0  0.11103006855E+02  0.33863343216E+02  0.25746482708E+02  0.43964578320E+02  0.00000000000E+00 0.  1.
</event>
<event>
 7    1  0.4195243E-015  0.9000785E+02  0.7816164E-02  0.1186339E+00
        -11   -1    0    0    0    0  0.00000000000E+00  0.00000000000E+00  0.45593999997E+02  0.45594000000E+02  0.51100000000E-03 0.  1.
         11   -1    0    0    0    0 -0.00000000000E+00 -0.00000000000E+00 -0.45593999997E+02  0.45594000000E+02  0.51100000000E-03 0. -1.
    9900012    2    1    2    0    0  0.12585621021E+00  0.11732379299E+01 -0.20678513204E-01  0.90007849744E+02  0.90000112561E+02 0.  0.
        -12    1    1    2    0    0 -0.12585621021E+00 -0.11732379299E+01  0.20678513204E-01  0.11801502560E+01  0.00000000000E+00 0.  1.
         11    1    3    3    0    0 -0.77864315647E+01 -0.69473345752E+00 -0.67009374455E+01  0.10296297101E+02  0.51100000000E-03 0. -1.
        -11    1    3    3    0    0  0.10678356538E+02  0.39885600439E+02  0.25210101450E+01  0.41367184013E+02  0.51100000000E-03 0.  1.
         12    1    3    3    0    0 -0.27660687634E+01 -0.38017629052E+02  0.41592487873E+01  0.38344368630E+02  0.00000000000E+00 0. -1.
</event>
<event>
 7    1  0.4195243E-015  0.9000765E+02  0.7816164E-02  0.1186339E+00
        -11   -1    0    0    0    0  0.00000000000E+00  0.00000000000E+00  0.45593999997E+02  0.45594000000E+02  0.51100000000E-03 0. -1.
         11   -1    0    0    0    0 -0.00000000000E+00 -0.00000000000E+00 -0.45593999997E+02  0.45594000000E+02  0.51100000000E-03 0.  1.
    9900012    2    1    2    0    0  0.97485033643E+00  0.64959160323E+00  0.14462271149E+00  0.90007653374E+02  0.89999913598E+02 0.  0.
        -12    1    1    2    0    0 -0.97485033643E+00 -0.64959160323E+00 -0.14462271149E+00  0.11803466263E+01  0.00000000000E+00 0.  1.
         11    1    3    3    0    0  0.17237992208E+02  0.14542531405E+02  0.32287615561E+02  0.39384307965E+02  0.51100000000E-03 0. -1.
        -11    1    3    3    0    0 -0.58398183645E+01  0.34848775418E+01  0.49122577709E+01  0.83891672221E+01  0.51100000000E-03 0.  1.
        -12    1    3    3    0    0 -0.10423323507E+02 -0.17377817343E+02 -0.37055250620E+02  0.42234178186E+02  0.00000000000E+00 0.  1.
</event>
<event>
 7    1  0.4195243E-015  0.9000775E+02  0.7816164E-02  0.1186339E+00
        -11   -1    0    0    0    0  0.00000000000E+00  0.00000000000E+00  0.45593999997E+02  0.45594000000E+02  0.51100000000E-03 0.  1.
         11   -1    0    0    0    0 -0.00000000000E+00 -0.00000000000E+00 -0.45593999997E+02  0.45594000000E+02  0.51100000000E-03 0. -1.
    9900012    2    1    2    0    0  0.36375464105E-01 -0.62493770591E+00 -0.10005590054E+01  0.90007750605E+02  0.90000012113E+02 0.  0.
        -12    1    1    2    0    0 -0.36375464105E-01  0.62493770591E+00  0.10005590054E+01  0.11802493948E+01  0.00000000000E+00 0.  1.
         11    1    3    3    0    0 -0.97216913077E+01  0.43046769916E+01 -0.14366524992E+01  0.10728722969E+02  0.51100000000E-03 0. -1.
        -11    1    3    3    0    0 -0.20534982520E+02  0.13909982805E+02  0.25583601443E+02  0.35632762899E+02  0.51100000000E-03 0.  1.
         12    1    3    3    0    0  0.30293049292E+02 -0.18839597502E+02 -0.25147507950E+02  0.43646264737E+02  0.00000000000E+00 0. -1.
</event>
<event>
 7    1  0.4195243E-015  0.9000780E+02  0.7816164E-02  0.1186339E+00
        -11   -1    0    0    0    0  0.00000000000E+00  0.00000000000E+00  0.45593999997E+02  0.45594000000E+02  0.51100000000E-03 0.  1.
         11   -1    0    0    0    0 -0.00000000000E+00 -0.00000000000E+00 -0.45593999997E+02  0.45594000000E+02  0.51100000000E-03 0. -1.
    9900012    2    1    2    0    0 -0.46158327125E+00  0.10861927183E+01 -0.25178641427E-02  0.90007796595E+02  0.90000058710E+02 0.  0.
        -12    1    1    2    0    0  0.46158327125E+00 -0.10861927183E+01  0.25178641428E-02  0.11802034050E+01  0.00000000000E+00 0.  1.
         11    1    3    3    0    0 -0.32585344071E+02 -0.32020668473E+01 -0.23064719219E+02  0.40050457591E+02  0.51100000000E-03 0. -1.
        -11    1    3    3    0    0 -0.20824134887E+01 -0.76335463907E+01  0.24690462313E+01  0.82887674590E+01  0.51100000000E-03 0.  1.
        -12    1    3    3    0    0  0.34206174288E+02  0.11921805956E+02  0.20593155123E+02  0.41668571545E+02  0.00000000000E+00 0.  1.
</event>
<event>
 7    1  0.4195243E-015  0.9000769E+02  0.7816164E-02  0.1186339E+00
        -11   -1    0    0    0    0  0.00000000000E+00  0.00000000000E+00  0.45593999997E+02  0.45594000000E+02  0.51100000000E-03 0.  1.
         11   -1    0    0    0    0 -0.00000000000E+00 -0.00000000000E+00 -0.45593999997E+02  0.45594000000E+02  0.51100000000E-03 0. -1.
    9900012    2    1    2    0    0  0.69517554420E+00 -0.12833144047E+00 -0.94519256758E+00  0.90007691995E+02  0.89999952730E+02 0.  0.
        -12    1    1    2    0    0 -0.69517554420E+00  0.12833144047E+00  0.94519256758E+00  0.11803080046E+01  0.00000000000E+00 0.  1.
         11    1    3    3    0    0  0.14545431293E+02 -0.13522833686E+02  0.19854997306E+02  0.28083046855E+02  0.51100000000E-03 0.  1.
        -11    1    3    3    0    0  0.89155877338E+01  0.84409224256E+01  0.14892477006E+02  0.19300848367E+02  0.51100000000E-03 0. -1.
         12    1    3    3    0    0 -0.22765843482E+02  0.49535798197E+01 -0.35692666879E+02  0.42623796774E+02  0.00000000000E+00 0. -1.
</event>
<event>
 7    1  0.4195243E-015  0.9000790E+02  0.7816164E-02  0.1186339E+00
        -11   -1    0    0    0    0  0.00000000000E+00  0.00000000000E+00  0.45593999997E+02  0.45594000000E+02  0.51100000000E-03 0.  1.
         11   -1    0    0    0    0 -0.00000000000E+00 -0.00000000000E+00 -0.45593999997E+02  0.45594000000E+02  0.51100000000E-03 0. -1.
    9900012    2    1    2    0    0 -0.26821097904E+00  0.93226428543E+00 -0.67199478194E+00  0.90007902201E+02  0.90000165710E+02 0.  0.
        -12    1    1    2    0    0  0.26821097904E+00 -0.93226428543E+00  0.67199478194E+00  0.11800977985E+01  0.00000000000E+00 0.  1.
         11    1    3    3    0    0 -0.34096141638E+01  0.36135907508E+01  0.90300558919E+01  0.10306571522E+02  0.51100000000E-03 0. -1.
        -11    1    3    3    0    0 -0.25402445718E+02  0.22923939674E+02  0.11232566105E+02  0.36013355859E+02  0.51100000000E-03 0.  1.
         12    1    3    3    0    0  0.28543848903E+02 -0.25605266140E+02 -0.20934616779E+02  0.43687974821E+02  0.00000000000E+00 0. -1.
</event>
<event>
 7    1  0.4195243E-015  0.9000769E+02  0.7816164E-02  0.1186339E+00
        -11   -1    0    0    0    0  0.00000000000E+00  0.00000000000E+00  0.45593999997E+02  0.45594000000E+02  0.51100000000E-03 0. -1.
         11   -1    0    0    0    0 -0.00000000000E+00 -0.00000000000E+00 -0.45593999997E+02  0.45594000000E+02  0.51100000000E-03 0.  1.
    9900012    2    1    2    0    0 -0.62086804898E-01  0.41687759652E+00  0.11024927780E+01  0.90007689860E+02  0.89999950566E+02 0.  0.
        -12    1    1    2    0    0  0.62086804898E-01 -0.41687759652E+00 -0.11024927780E+01  0.11803101403E+01  0.00000000000E+00 0.  1.
         11    1    3    3    0    0  0.21046270040E+01  0.56180963816E+01  0.88589736453E+01  0.10699246520E+02  0.51100000000E-03 0. -1.
        -11    1    3    3    0    0  0.21320669439E+02  0.13306180638E+01 -0.36085119889E+02  0.41934202835E+02  0.51100000000E-03 0.  1.
         12    1    3    3    0    0 -0.23487383248E+02 -0.65318368489E+01  0.28328639022E+02  0.37374240505E+02  0.00000000000E+00 0. -1.
</event>
<event>
 7    1  0.7147958E-015  0.9000775E+02  0.7816164E-02  0.1186339E+00
        -11   -1    0    0    0    0  0.00000000000E+00  0.00000000000E+00  0.45593999997E+02  0.45594000000E+02  0.51100000000E-03 0.  1.
         11   -1    0    0    0    0 -0.00000000000E+00 -0.00000000000E+00 -0.45593999997E+02  0.45594000000E+02  0.51100000000E-03 0. -1.
    9900012    2    1    2    0    0 -0.11609871333E+00  0.87397649508E+00 -0.78465322035E+00  0.90007748120E+02  0.90000009595E+02 0.  0.
        -12    1    1    2    0    0  0.11609871333E+00 -0.87397649508E+00  0.78465322035E+00  0.11802518805E+01  0.00000000000E+00 0.  1.
         11    1    3    3    0    0 -0.48558078073E+01  0.23935353330E+01 -0.39329681964E+02  0.39700525998E+02  0.51100000000E-03 0. -1.
        -11    1    3    3    0    0 -0.44097770472E+01  0.85908860013E+01  0.25310754947E+00  0.96598923175E+01  0.51100000000E-03 0.  1.
        -12    1    3    3    0    0  0.91494861411E+01 -0.10110444839E+02  0.38291921194E+02  0.40647329804E+02  0.00000000000E+00 0.  1.
</event>
<event>
 7    1  0.4195243E-015  0.9000780E+02  0.7816164E-02  0.1186339E+00
        -11   -1    0    0    0    0  0.00000000000E+00  0.00000000000E+00  0.45593999997E+02  0.45594000000E+02  0.51100000000E-03 0.  1.
         11   -1    0    0    0    0 -0.00000000000E+00 -0.00000000000E+00 -0.45593999997E+02  0.45594000000E+02  0.51100000000E-03 0. -1.
    9900012    2    1    2    0    0  0.46665559892E+00 -0.37922856302E+00  0.10155189176E+01  0.90007804922E+02  0.90000067147E+02 0.  0.
        -12    1    1    2    0    0 -0.46665559892E+00  0.37922856302E+00 -0.10155189176E+01  0.11801950784E+01  0.00000000000E+00 0.  1.
         11    1    3    3    0    0  0.41387810755E-01 -0.66738895108E+01 -0.37859952813E+02  0.38443706136E+02  0.51100000000E-03 0. -1.
        -11    1    3    3    0    0  0.10415487338E+02  0.26551265277E+01 -0.51789986537E+00  0.10761054498E+02  0.51100000000E-03 0.  1.
        -12    1    3    3    0    0 -0.99902195500E+01  0.36395344202E+01  0.39393371596E+02  0.40803044288E+02  0.00000000000E+00 0.  1.
</event>
<event>
 7    1  0.4195243E-015  0.9000760E+02  0.7816164E-02  0.1186339E+00
        -11   -1    0    0    0    0  0.00000000000E+00  0.00000000000E+00  0.45593999997E+02  0.45594000000E+02  0.51100000000E-03 0.  1.
         11   -1    0    0    0    0 -0.00000000000E+00 -0.00000000000E+00 -0.45593999997E+02  0.45594000000E+02  0.51100000000E-03 0. -1.
    9900012    2    1    2    0    0  0.98789425446E+00 -0.38882001009E+00 -0.51598418471E+00  0.90007595096E+02  0.89999854551E+02 0.  0.
        -12    1    1    2    0    0 -0.98789425446E+00  0.38882001009E+00  0.51598418471E+00  0.11804049039E+01  0.00000000000E+00 0.  1.
         11    1    3    3    0    0  0.27059624816E+02  0.21453521421E+02 -0.25790619380E+00  0.34533221576E+02  0.51100000000E-03 0. -1.
        -11    1    3    3    0    0 -0.41525510566E+01 -0.11090045435E+02 -0.20556838550E+02  0.23723751800E+02  0.51100000000E-03 0.  1.
        -12    1    3    3    0    0 -0.21919179505E+02 -0.10752295995E+02  0.20298760559E+02  0.31750621720E+02  0.00000000000E+00 0.  1.
</event>
<event>
 7    1  0.4195243E-015  0.9000774E+02  0.7816164E-02  0.1186339E+00
        -11   -1    0    0    0    0  0.00000000000E+00  0.00000000000E+00  0.45593999997E+02  0.45594000000E+02  0.51100000000E-03 0. -1.
         11   -1    0    0    0    0 -0.00000000000E+00 -0.00000000000E+00 -0.45593999997E+02  0.45594000000E+02  0.51100000000E-03 0.  1.
    9900012    2    1    2    0    0 -0.59990228652E+00 -0.92954600668E+00 -0.41118178997E+00  0.90007741979E+02  0.90000003373E+02 0.  0.
        -12    1    1    2    0    0  0.59990228652E+00  0.92954600668E+00  0.41118178997E+00  0.11802580211E+01  0.00000000000E+00 0.  1.
         11    1    3    3    0    0 -0.22926163334E+02  0.28188545624E+02  0.37991966001E+01  0.36532683514E+02  0.51100000000E-03 0. -1.
        -11    1    3    3    0    0  0.63238644655E+01  0.87754607132E+01  0.39948288427E+01  0.11530768849E+02  0.51100000000E-03 0.  1.
        -12    1    3    3    0    0  0.16002396582E+02 -0.37893552344E+02 -0.82052072328E+01  0.41944289616E+02  0.00000000000E+00 0.  1.
</event>
<event>
 7    1  0.4195243E-015  0.9000828E+02  0.7816164E-02  0.1186338E+00
        -11   -1    0    0    0    0  0.00000000000E+00  0.00000000000E+00  0.45593999997E+02  0.45594000000E+02  0.51100000000E-03 0. -1.
         11   -1    0    0    0    0 -0.00000000000E+00 -0.00000000000E+00 -0.45593999997E+02  0.45594000000E+02  0.51100000000E-03 0.  1.
    9900012    2    1    2    0    0  0.31674023008E-01  0.11787908862E+01  0.34470707536E-01  0.90008279937E+02  0.90000548431E+02 0.  0.
        -12    1    1    2    0    0 -0.31674023008E-01 -0.11787908862E+01 -0.34470707536E-01  0.11797200628E+01  0.00000000000E+00 0.  1.
         11    1    3    3    0    0  0.23140761639E+01  0.34145039918E+01  0.89439121418E+01  0.98492309682E+01  0.51100000000E-03 0. -1.
        -11    1    3    3    0    0  0.33292084657E+02 -0.89384981073E+01  0.14123530235E+02  0.37252298665E+02  0.51100000000E-03 0.  1.
         12    1    3    3    0    0 -0.35574486798E+02  0.67027850016E+01 -0.23032971669E+02  0.42906750304E+02  0.00000000000E+00 0. -1.
</event>
<event>
 7    1  0.4195243E-015  0.9000769E+02  0.7816164E-02  0.1186339E+00
        -11   -1    0    0    0    0  0.00000000000E+00  0.00000000000E+00  0.45593999997E+02  0.45594000000E+02  0.51100000000E-03 0. -1.
         11   -1    0    0    0    0 -0.00000000000E+00 -0.00000000000E+00 -0.45593999997E+02  0.45594000000E+02  0.51100000000E-03 0.  1.
    9900012    2    1    2    0    0  0.11770706001E+01  0.84103924138E-02 -0.86956687532E-01  0.90007691821E+02  0.89999952553E+02 0.  0.
        -12    1    1    2    0    0 -0.11770706001E+01 -0.84103924138E-02  0.86956687532E-01  0.11803081792E+01  0.00000000000E+00 0.  1.
         11    1    3    3    0    0  0.28352341121E+02  0.12928835958E+02  0.19167797539E+02  0.36584347869E+02  0.51100000000E-03 0. -1.
        -11    1    3    3    0    0  0.76965152455E+01  0.33362970232E+01  0.30793686920E+01  0.89358679799E+01  0.51100000000E-03 0.  1.
        -12    1    3    3    0    0 -0.34871785766E+02 -0.16256722588E+02 -0.22334122918E+02  0.44487475972E+02  0.00000000000E+00 0.  1.
</event>
<event>
 7    1  0.4195243E-015  0.9000766E+02  0.7816164E-02  0.1186339E+00
        -11   -1    0    0    0    0  0.00000000000E+00  0.00000000000E+00  0.45593999997E+02  0.45594000000E+02  0.51100000000E-03 0. -1.
         11   -1    0    0    0    0 -0.00000000000E+00 -0.00000000000E+00 -0.45593999997E+02  0.45594000000E+02  0.51100000000E-03 0.  1.
    9900012    2    1    2    0    0 -0.93350022919E+00 -0.30883468189E+00  0.65300279598E+00  0.90007655055E+02  0.89999915301E+02 0.  0.
        -12    1    1    2    0    0  0.93350022919E+00  0.30883468189E+00 -0.65300279598E+00  0.11803449454E+01  0.00000000000E+00 0.  1.
         11    1    3    3    0    0  0.25976298069E+01  0.42196960105E+02  0.13113842072E+01  0.42297173091E+02  0.51100000000E-03 0. -1.
        -11    1    3    3    0    0 -0.86787904024E+01 -0.56530005147E+01  0.13534771768E+01  0.10445559746E+02  0.51100000000E-03 0.  1.
        -12    1    3    3    0    0  0.51476603663E+01 -0.36852794272E+02 -0.20118585880E+01  0.37264922218E+02  0.00000000000E+00 0.  1.
</event>
<event>
 7    1  0.4195243E-015  0.9000777E+02  0.7816164E-02  0.1186339E+00
        -11   -1    0    0    0    0  0.00000000000E+00  0.00000000000E+00  0.45593999997E+02  0.45594000000E+02  0.51100000000E-03 0.  1.
         11   -1    0    0    0    0 -0.00000000000E+00 -0.00000000000E+00 -0.45593999997E+02  0.45594000000E+02  0.51100000000E-03 0. -1.
    9900012    2    1    2    0    0 -0.65712536850E+00  0.33670474217E+00 -0.92074122698E+00  0.90007767718E+02  0.90000029451E+02 0.  0.
        -12    1    1    2    0    0  0.65712536850E+00 -0.33670474217E+00  0.92074122698E+00  0.11802322824E+01  0.00000000000E+00 0.  1.
         11    1    3    3    0    0  0.74665463172E+01 -0.54866917282E+01 -0.36183776809E-01  0.92657654597E+01  0.51100000000E-03 0. -1.
        -11    1    3    3    0    0  0.75213285536E+00  0.20987553830E+02  0.34982581979E+02  0.40802256822E+02  0.51100000000E-03 0.  1.
         12    1    3    3    0    0 -0.88758045411E+01 -0.15164157360E+02 -0.35867139429E+02  0.39939745436E+02  0.00000000000E+00 0. -1.
</event>
<event>
 7    1  0.4195243E-015  0.9000743E+02  0.7816164E-02  0.1186340E+00
        -11   -1    0    0    0    0  0.00000000000E+00  0.00000000000E+00  0.45593999997E+02  0.45594000000E+02  0.51100000000E-03 0.  1.
         11   -1    0    0    0    0 -0.00000000000E+00 -0.00000000000E+00 -0.45593999997E+02  0.45594000000E+02  0.51100000000E-03 0. -1.
    9900012    2    1    2    0    0  0.68621750698E+00 -0.92937357938E+00 -0.24311365812E+00  0.90007434895E+02  0.89999692235E+02 0.  0.
        -12    1    1    2    0    0 -0.68621750698E+00  0.92937357938E+00  0.24311365812E+00  0.11805651052E+01  0.00000000000E+00 0.  1.
         11    1    3    3    0    0 -0.81355754111E+01 -0.89488365527E+01 -0.48082811257E+01  0.13014946429E+02  0.51100000000E-03 0. -1.
        -11    1    3    3    0    0 -0.32178131278E+02 -0.74189425268E+01  0.10006296409E+01  0.33037465107E+02  0.51100000000E-03 0.  1.
         12    1    3    3    0    0  0.40999924196E+02  0.15438405500E+02  0.35645378267E+01  0.43955023358E+02  0.00000000000E+00 0. -1.
</event>
<event>
 7    1  0.4195243E-015  0.9000784E+02  0.7816164E-02  0.1186339E+00
        -11   -1    0    0    0    0  0.00000000000E+00  0.00000000000E+00  0.45593999997E+02  0.45594000000E+02  0.51100000000E-03 0. -1.
         11   -1    0    0    0    0 -0.00000000000E+00 -0.00000000000E+00 -0.45593999997E+02  0.45594000000E+02  0.51100000000E-03 0.  1.
    9900012    2    1    2    0    0 -0.29480366053E+00  0.27903334306E+00  0.11081582272E+01  0.90007837528E+02  0.90000100183E+02 0.  0.
        -12    1    1    2    0    0  0.29480366053E+00 -0.27903334306E+00 -0.11081582272E+01  0.11801624724E+01  0.00000000000E+00 0.  1.
         11    1    3    3    0    0 -0.56126832414E+01 -0.25679043900E+01 -0.36483492531E+01  0.71698534614E+01  0.51100000000E-03 0. -1.
        -11    1    3    3    0    0 -0.77110144620E+01 -0.37870992396E+02  0.95726798737E+01  0.39815926578E+02  0.51100000000E-03 0.  1.
         12    1    3    3    0    0  0.13028894043E+02  0.40717930129E+02 -0.48161723933E+01  0.43022057488E+02  0.00000000000E+00 0. -1.
</event>
<event>
 7    1  0.4195243E-015  0.9000767E+02  0.7816164E-02  0.1186339E+00
        -11   -1    0    0    0    0  0.00000000000E+00  0.00000000000E+00  0.45593999997E+02  0.45594000000E+02  0.51100000000E-03 0.  1.
         11   -1    0    0    0    0 -0.00000000000E+00 -0.00000000000E+00 -0.45593999997E+02  0.45594000000E+02  0.51100000000E-03 0. -1.
    9900012    2    1    2    0    0  0.54483639515E+00 -0.10331465947E+01 -0.17011640049E+00  0.90007670312E+02  0.89999930760E+02 0.  0.
        -12    1    1    2    0    0 -0.54483639515E+00  0.10331465947E+01  0.17011640049E+00  0.11803296884E+01  0.00000000000E+00 0.  1.
         11    1    3    3    0    0  0.53755029133E+01 -0.30268380043E+02 -0.28339225976E+02  0.41811273494E+02  0.51100000000E-03 0. -1.
        -11    1    3    3    0    0  0.80703625091E+01  0.15645718607E+01  0.34566052679E+01  0.89177775468E+01  0.51100000000E-03 0.  1.
        -12    1    3    3    0    0 -0.12901029027E+02  0.27670661588E+02  0.24712504308E+02  0.39278619271E+02  0.00000000000E+00 0.  1.
</event>
<event>
 7    1  0.4195243E-015  0.9000794E+02  0.7816164E-02  0.1186339E+00
        -11   -1    0    0    0    0  0.00000000000E+00  0.00000000000E+00  0.45593999997E+02  0.45594000000E+02  0.51100000000E-03 0.  1.
         11   -1    0    0    0    0 -0.00000000000E+00 -0.00000000000E+00 -0.45593999997E+02  0.45594000000E+02  0.51100000000E-03 0. -1.
    9900012    2    1    2    0    0  0.87539637587E+00  0.50378475017E+00 -0.61026935533E+00  0.90007937893E+02  0.90000201873E+02 0.  0.
        -12    1    1    2    0    0 -0.87539637587E+00 -0.50378475017E+00  0.61026935533E+00  0.11800621066E+01  0.00000000000E+00 0.  1.
         11    1    3    3    0    0 -0.63940698515E+01 -0.76259511060E+01  0.23070663904E+01  0.10215763071E+02  0.51100000000E-03 0. -1.
        -11    1    3    3    0    0  0.40546657427E+02  0.10358860096E+02 -0.14796861663E+02  0.44387887158E+02  0.51100000000E-03 0.  1.
         12    1    3    3    0    0 -0.33277191199E+02 -0.22291242396E+01  0.11879525918E+02  0.35404287664E+02  0.00000000000E+00 0. -1.
</event>
<event>
 7    1  0.4195243E-015  0.9000813E+02  0.7816164E-02  0.1186338E+00
        -11   -1    0    0    0    0  0.00000000000E+00  0.00000000000E+00  0.45593999997E+02  0.45594000000E+02  0.51100000000E-03 0. -1.
         11   -1    0    0    0    0 -0.00000000000E+00 -0.00000000000E+00 -0.45593999997E+02  0.45594000000E+02  0.51100000000E-03 0.  1.
    9900012    2    1    2    0    0  0.47749528935E+00 -0.62431407986E+00  0.87995056563E+00  0.90008134406E+02  0.90000400979E+02 0.  0.
        -12    1    1    2    0    0 -0.47749528935E+00  0.62431407986E+00 -0.87995056563E+00  0.11798655939E+01  0.00000000000E+00 0.  1.
         11    1    3    3    0    0 -0.77574285225E+01 -0.15450861562E+02  0.36866685053E+01  0.17677622725E+02  0.51100000000E-03 0. -1.
        -11    1    3    3    0    0 -0.24609963217E+02  0.35315890692E+01 -0.21515813831E+02  0.32879365201E+02  0.51100000000E-03 0.  1.
         12    1    3    3    0    0  0.32844887029E+02  0.11294958413E+02  0.18709095892E+02  0.39451146480E+02  0.00000000000E+00 0. -1.
</event>
<event>
 7    1  0.4195243E-015  0.9000759E+02  0.7816164E-02  0.1186339E+00
        -11   -1    0    0    0    0  0.00000000000E+00  0.00000000000E+00  0.45593999997E+02  0.45594000000E+02  0.51100000000E-03 0. -1.
         11   -1    0    0    0    0 -0.00000000000E+00 -0.00000000000E+00 -0.45593999997E+02  0.45594000000E+02  0.51100000000E-03 0.  1.
    9900012    2    1    2    0    0 -0.10544869034E+01 -0.50174710660E+00  0.17227704528E+00  0.90007588136E+02  0.89999847499E+02 0.  0.
        -12    1    1    2    0    0  0.10544869034E+01  0.50174710660E+00 -0.17227704528E+00  0.11804118641E+01  0.00000000000E+00 0.  1.
         11    1    3    3    0    0 -0.47250477155E+01  0.74438513453E+01 -0.45251296335E+01  0.99102874442E+01  0.51100000000E-03 0. -1.
        -11    1    3    3    0    0 -0.46284484407E+00  0.14409802907E+02 -0.33035718877E+02  0.36044630212E+02  0.51100000000E-03 0.  1.
         12    1    3    3    0    0  0.41334056562E+01 -0.22355401359E+02  0.37733125555E+02  0.44052670480E+02  0.00000000000E+00 0. -1.
</event>
<event>
 7    1  0.4195243E-015  0.9000776E+02  0.7816164E-02  0.1186339E+00
        -11   -1    0    0    0    0  0.00000000000E+00  0.00000000000E+00  0.45593999997E+02  0.45594000000E+02  0.51100000000E-03 0. -1.
         11   -1    0    0    0    0 -0.00000000000E+00 -0.00000000000E+00 -0.45593999997E+02  0.45594000000E+02  0.51100000000E-03 0.  1.
    9900012    2    1    2    0    0 -0.23097877421E+00  0.96883249720E+00 -0.63322272955E+00  0.90007763317E+02  0.90000024993E+02 0.  0.
        -12    1    1    2    0    0  0.23097877421E+00 -0.96883249720E+00  0.63322272955E+00  0.11802366826E+01  0.00000000000E+00 0.  1.
         11    1    3    3    0    0  0.38786660871E+01  0.19699579409E+01  0.14278923721E+02  0.14926903489E+02  0.51100000000E-03 0. -1.
        -11    1    3    3    0    0  0.19363458322E+02 -0.19598985445E+02  0.16147962645E+02  0.31934627702E+02  0.51100000000E-03 0.  1.
         12    1    3    3    0    0 -0.23473103183E+02  0.18597860001E+02 -0.31060109095E+02  0.43146232126E+02  0.00000000000E+00 0. -1.
</event>
<event>
 7    1  0.4195243E-015  0.9000772E+02  0.7816164E-02  0.1186339E+00
        -11   -1    0    0    0    0  0.00000000000E+00  0.00000000000E+00  0.45593999997E+02  0.45594000000E+02  0.51100000000E-03 0. -1.
         11   -1    0    0    0    0 -0.00000000000E+00 -0.00000000000E+00 -0.45593999997E+02  0.45594000000E+02  0.51100000000E-03 0.  1.
    9900012    2    1    2    0    0  0.11550041790E+01 -0.21535499451E+00  0.11248590516E+00  0.90007718040E+02  0.89999979118E+02 0.  0.
        -12    1    1    2    0    0 -0.11550041790E+01  0.21535499451E+00 -0.11248590516E+00  0.11802819604E+01  0.00000000000E+00 0.  1.
         11    1    3    3    0    0 -0.10460266449E+02  0.20668503846E+02  0.33941654344E+02  0.41093066633E+02  0.51100000000E-03 0. -1.
        -11    1    3    3    0    0 -0.65498180320E+01  0.12164390874E+01 -0.53010856200E+01  0.85135979067E+01  0.51100000000E-03 0.  1.
        -12    1    3    3    0    0  0.18165088660E+02 -0.22100297928E+02 -0.28528082819E+02  0.40401053500E+02  0.00000000000E+00 0.  1.
</event>
<event>
 7    1  0.4195243E-015  0.9000774E+02  0.7816164E-02  0.1186339E+00
        -11   -1    0    0    0    0  0.00000000000E+00  0.00000000000E+00  0.45593999997E+02  0.45594000000E+02  0.51100000000E-03 0.  1.
         11   -1    0    0    0    0 -0.00000000000E+00 -0.00000000000E+00 -0.45593999997E+02  0.45594000000E+02  0.51100000000E-03 0. -1.
    9900012    2    1    2    0    0  0.11331272947E+01  0.32419571415E+00 -0.62790229237E-01  0.90007736072E+02  0.89999997388E+02 0.  0.
        -12    1    1    2    0    0 -0.11331272947E+01 -0.32419571415E+00  0.62790229237E-01  0.11802639281E+01  0.00000000000E+00 0.  1.
         11    1    3    3    0    0 -0.31820990330E+02 -0.18949264424E+02  0.11869359423E+02  0.38891281043E+02  0.51100000000E-03 0. -1.
        -11    1    3    3    0    0  0.13477635794E+01 -0.59625418290E+01 -0.85767297219E+01  0.10532267786E+02  0.51100000000E-03 0.  1.
        -12    1    3    3    0    0  0.31606354045E+02  0.25236001967E+02 -0.33554199300E+01  0.40584187243E+02  0.00000000000E+00 0.  1.
</event>
<event>
 7    1  0.4195243E-015  0.9000790E+02  0.7816164E-02  0.1186339E+00
        -11   -1    0    0    0    0  0.00000000000E+00  0.00000000000E+00  0.45593999997E+02  0.45594000000E+02  0.51100000000E-03 0.  1.
         11   -1    0    0    0    0 -0.00000000000E+00 -0.00000000000E+00 -0.45593999997E+02  0.45594000000E+02  0.51100000000E-03 0. -1.
    9900012    2    1    2    0    0 -0.52607130433E+00 -0.65101167349E+00 -0.83191187943E+00  0.90007896364E+02  0.90000159796E+02 0.  0.
        -12    1    1    2    0    0  0.52607130433E+00  0.65101167349E+00  0.83191187943E+00  0.11801036359E+01  0.00000000000E+00 0.  1.
         11    1    3    3    0    0 -0.11942263910E+01 -0.56588687806E+01  0.84616577734E+01  0.10249323153E+02  0.51100000000E-03 0. -1.
        -11    1    3    3    0    0  0.22570729149E+02 -0.12300009190E+02  0.24783954033E+02  0.35706755918E+02  0.51100000000E-03 0.  1.
         12    1    3    3    0    0 -0.21902574063E+02  0.17307866297E+02 -0.34077523686E+02  0.44051817294E+02  0.00000000000E+00 0. -1.
</event>
<event>
 7    1  0.4195243E-015  0.9000777E+02  0.7816164E-02  0.1186339E+00
        -11   -1    0    0    0    0  0.00000000000E+00  0.00000000000E+00  0.45593999997E+02  0.45594000000E+02  0.51100000000E-03 0.  1.
         11   -1    0    0    0    0 -0.00000000000E+00 -0.00000000000E+00 -0.45593999997E+02  0.45594000000E+02  0.51100000000E-03 0. -1.
    9900012    2    1    2    0    0 -0.31409286764E-01  0.35879697604E+00 -0.11239295143E+01  0.90007771477E+02  0.90000033261E+02 0.  0.
        -12    1    1    2    0    0  0.31409286764E-01 -0.35879697604E+00  0.11239295143E+01  0.11802285230E+01  0.00000000000E+00 0.  1.
         11    1    3    3    0    0  0.24661648828E+01 -0.87184690146E+01  0.14090232045E+01  0.91694611532E+01  0.51100000000E-03 0. -1.
        -11    1    3    3    0    0  0.22906833403E+02 -0.24662421747E+02  0.12649455220E+02  0.35957847274E+02  0.51100000000E-03 0.  1.
         12    1    3    3    0    0 -0.25404407572E+02  0.33739687738E+02 -0.15182407938E+02  0.44880463050E+02  0.00000000000E+00 0. -1.
</event>
<event>
 7    1  0.4195243E-015  0.9000773E+02  0.7816164E-02  0.1186339E+00
        -11   -1    0    0    0    0  0.00000000000E+00  0.00000000000E+00  0.45593999997E+02  0.45594000000E+02  0.51100000000E-03 0. -1.
         11   -1    0    0    0    0 -0.00000000000E+00 -0.00000000000E+00 -0.45593999997E+02  0.45594000000E+02  0.51100000000E-03 0.  1.
    9900012    2    1    2    0    0 -0.37162248264E+00 -0.45602574274E+00  0.10232201520E+01  0.90007727901E+02  0.89999989110E+02 0.  0.
        -12    1    1    2    0    0  0.37162248264E+00  0.45602574274E+00 -0.10232201520E+01  0.11802720987E+01  0.00000000000E+00 0.  1.
         11    1    3    3    0    0 -0.58207391459E+01 -0.67787655709E+01  0.41303738547E+01  0.98434066923E+01  0.51100000000E-03 0. -1.
        -11    1    3    3    0    0 -0.13361293920E+02 -0.13801025537E+02 -0.33828399488E+02  0.38901839202E+02  0.51100000000E-03 0.  1.
         12    1    3    3    0    0  0.18810410584E+02  0.20123765366E+02  0.30721245785E+02  0.41262482007E+02  0.00000000000E+00 0. -1.
</event>
<event>
 7    1  0.4195243E-015  0.9000770E+02  0.7816164E-02  0.1186339E+00
        -11   -1    0    0    0    0  0.00000000000E+00  0.00000000000E+00  0.45593999997E+02  0.45594000000E+02  0.51100000000E-03 0. -1.
         11   -1    0    0    0    0 -0.00000000000E+00 -0.00000000000E+00 -0.45593999997E+02  0.45594000000E+02  0.51100000000E-03 0.  1.
    9900012    2    1    2    0    0 -0.68761129173E+00  0.74799146698E+00  0.60067827827E+00  0.90007697108E+02  0.89999957910E+02 0.  0.
        -12    1    1    2    0    0  0.68761129173E+00 -0.74799146698E+00 -0.60067827827E+00  0.11803028921E+01  0.00000000000E+00 0.  1.
         11    1    3    3    0    0  0.48515192750E+01 -0.99501396426E+01 -0.18363445158E+01  0.11221171045E+02  0.51100000000E-03 0. -1.
        -11    1    3    3    0    0  0.10306532271E+02  0.36459449393E+02 -0.18339390201E+02  0.42093340218E+02  0.51100000000E-03 0.  1.
         12    1    3    3    0    0 -0.15845662838E+02 -0.25761318283E+02  0.20776412995E+02  0.36693185845E+02  0.00000000000E+00 0. -1.
</event>
<event>
 7    1  0.4195243E-015  0.9000774E+02  0.7816164E-02  0.1186339E+00
        -11   -1    0    0    0    0  0.00000000000E+00  0.00000000000E+00  0.45593999997E+02  0.45594000000E+02  0.51100000000E-03 0. -1.
         11   -1    0    0    0    0 -0.00000000000E+00 -0.00000000000E+00 -0.45593999997E+02  0.45594000000E+02  0.51100000000E-03 0.  1.
    9900012    2    1    2    0    0  0.71629067648E+00  0.24245092872E+00  0.90617545892E+00  0.90007742084E+02  0.90000003479E+02 0.  0.
        -12    1    1    2    0    0 -0.71629067648E+00 -0.24245092872E+00 -0.90617545892E+00  0.11802579161E+01  0.00000000000E+00 0.  1.
         11    1    3    3    0    0 -0.19633296259E+02 -0.96942649828E+01  0.29538149105E+02  0.36768836647E+02  0.51100000000E-03 0. -1.
        -11    1    3    3    0    0  0.12243175104E+01 -0.95166511868E+01  0.42666913738E+01  0.10500964657E+02  0.51100000000E-03 0.  1.
        -12    1    3    3    0    0  0.19125269425E+02  0.19453367098E+02 -0.32898665020E+02  0.42737940780E+02  0.00000000000E+00 0.  1.
</event>
<event>
 7    1  0.4195243E-015  0.9000772E+02  0.7816164E-02  0.1186339E+00
        -11   -1    0    0    0    0  0.00000000000E+00  0.00000000000E+00  0.45593999997E+02  0.45594000000E+02  0.51100000000E-03 0.  1.
         11   -1    0    0    0    0 -0.00000000000E+00 -0.00000000000E+00 -0.45593999997E+02  0.45594000000E+02  0.51100000000E-03 0. -1.
    9900012    2    1    2    0    0 -0.97718122504E+00 -0.17602274026E+00 -0.63811937920E+00  0.90007718892E+02  0.89999979981E+02 0.  0.
        -12    1    1    2    0    0  0.97718122504E+00  0.17602274026E+00  0.63811937920E+00  0.11802811079E+01  0.00000000000E+00 0.  1.
         11    1    3    3    0    0  0.52246327151E+00  0.38005858011E+02 -0.55396451930E+01  0.38411012485E+02  0.51100000000E-03 0. -1.
        -11    1    3    3    0    0 -0.68465172252E+01  0.45746071908E+01  0.44425916822E-01  0.82343064668E+01  0.51100000000E-03 0.  1.
        -12    1    3    3    0    0  0.53468727287E+01 -0.42756487942E+02  0.48570998970E+01  0.43362399940E+02  0.00000000000E+00 0.  1.
</event>
<event>
 7    1  0.4195243E-015  0.9000762E+02  0.7816164E-02  0.1186339E+00
        -11   -1    0    0    0    0  0.00000000000E+00  0.00000000000E+00  0.45593999997E+02  0.45594000000E+02  0.51100000000E-03 0.  1.
         11   -1    0    0    0    0 -0.00000000000E+00 -0.00000000000E+00 -0.45593999997E+02  0.45594000000E+02  0.51100000000E-03 0. -1.
    9900012    2    1    2    0    0  0.33042631698E+00 -0.79764118640E+00 -0.80490782529E+00  0.90007623102E+02  0.89999882927E+02 0.  0.
        -12    1    1    2    0    0 -0.33042631698E+00  0.79764118640E+00  0.80490782529E+00  0.11803768976E+01  0.00000000000E+00 0.  1.
         11    1    3    3    0    0 -0.23481824709E+01 -0.77511413797E+01  0.62416030702E+01  0.10225055636E+02  0.51100000000E-03 0. -1.
        -11    1    3    3    0    0 -0.37906629315E+02  0.26498675601E+00  0.76227335028E+00  0.37915218909E+02  0.51100000000E-03 0.  1.
         12    1    3    3    0    0  0.40585238103E+02  0.66885134373E+01 -0.78087842458E+01  0.41867348558E+02  0.00000000000E+00 0. -1.
</event>
<event>
 7    1  0.4195243E-015  0.9000765E+02  0.7816164E-02  0.1186339E+00
        -11   -1    0    0    0    0  0.00000000000E+00  0.00000000000E+00  0.45593999997E+02  0.45594000000E+02  0.51100000000E-03 0.  1.
         11   -1    0    0    0    0 -0.00000000000E+00 -0.00000000000E+00 -0.45593999997E+02  0.45594000000E+02  0.51100000000E-03 0. -1.
    9900012    2    1    2    0    0  0.68892605089E+00 -0.41879951699E+00 -0.86210460508E+00  0.90007645609E+02  0.89999905731E+02 0.  0.
        -12    1    1    2    0    0 -0.68892605089E+00  0.41879951699E+00  0.86210460508E+00  0.11803543913E+01  0.00000000000E+00 0.  1.
         11    1    3    3    0    0  0.34296795832E+01 -0.24639399549E+02 -0.26246656926E+02  0.36162822238E+02  0.51100000000E-03 0. -1.
        -11    1    3    3    0    0 -0.10371800868E+01 -0.81257094815E+01 -0.48632388861E+01  0.95264888513E+01  0.51100000000E-03 0.  1.
        -12    1    3    3    0    0 -0.17035734456E+01  0.32346309514E+02  0.30247791207E+02  0.44318334519E+02  0.00000000000E+00 0.  1.
</event>
<event>
 7    1  0.4195243E-015  0.9000721E+02  0.7816164E-02  0.1186340E+00
        -11   -1    0    0    0    0  0.00000000000E+00  0.00000000000E+00  0.45593999997E+02  0.45594000000E+02  0.51100000000E-03 0.  1.
         11   -1    0    0    0    0 -0.00000000000E+00 -0.00000000000E+00 -0.45593999997E+02  0.45594000000E+02  0.51100000000E-03 0. -1.
    9900012    2    1    2    0    0  0.23294211510E+00 -0.10369489812E+01 -0.51452580578E+00  0.90007211271E+02  0.89999465658E+02 0.  0.
        -12    1    1    2    0    0 -0.23294211510E+00  0.10369489812E+01  0.51452580578E+00  0.11807887294E+01  0.00000000000E+00 0.  1.
         11    1    3    3    0    0 -0.31544072682E+02 -0.24725372448E+02 -0.12435767533E+02  0.41964519280E+02  0.51100000000E-03 0. -1.
        -11    1    3    3    0    0  0.21714396706E+01 -0.38537865719E+01  0.55671891677E+01  0.71105848336E+01  0.51100000000E-03 0.  1.
        -12    1    3    3    0    0  0.29605575126E+02  0.27542210039E+02  0.63540525590E+01  0.40932107157E+02  0.00000000000E+00 0.  1.
</event>
<event>
 7    1  0.4195243E-015  0.9000774E+02  0.7816164E-02  0.1186339E+00
        -11   -1    0    0    0    0  0.00000000000E+00  0.00000000000E+00  0.45593999997E+02  0.45594000000E+02  0.51100000000E-03 0.  1.
         11   -1    0    0    0    0 -0.00000000000E+00 -0.00000000000E+00 -0.45593999997E+02  0.45594000000E+02  0.51100000000E-03 0. -1.
    9900012    2    1    2    0    0  0.16893976821E-01 -0.10727223930E+01 -0.49193474583E+00  0.90007737939E+02  0.89999999280E+02 0.  0.
        -12    1    1    2    0    0 -0.16893976821E-01  0.10727223930E+01  0.49193474583E+00  0.11802620611E+01  0.00000000000E+00 0.  1.
         11    1    3    3    0    0 -0.14977208698E+02  0.25729610693E+02 -0.13494717696E+02  0.32686955391E+02  0.51100000000E-03 0. -1.
        -11    1    3    3    0    0  0.52486622019E+01 -0.15394859343E+01  0.26505089323E+02  0.27063596068E+02  0.51100000000E-03 0.  1.
         12    1    3    3    0    0  0.97454404731E+01 -0.25262847152E+02 -0.13502306374E+02  0.30257186479E+02  0.00000000000E+00 0. -1.
</event>
<event>
 7    1  0.4195243E-015  0.9000721E+02  0.7816164E-02  0.1186340E+00
        -11   -1    0    0    0    0  0.00000000000E+00  0.00000000000E+00  0.45593999997E+02  0.45594000000E+02  0.51100000000E-03 0.  1.
         11   -1    0    0    0    0 -0.00000000000E+00 -0.00000000000E+00 -0.45593999997E+02  0.45594000000E+02  0.51100000000E-03 0. -1.
    9900012    2    1    2    0    0  0.63193282670E+00  0.97142420380E+00  0.22638685623E+00  0.90007214207E+02  0.89999468633E+02 0.  0.
        -12    1    1    2    0    0 -0.63193282670E+00 -0.97142420380E+00 -0.22638685623E+00  0.11807857934E+01  0.00000000000E+00 0.  1.
         11    1    3    3    0    0  0.37300134417E+02 -0.97591963460E+01 -0.81183573861E+01  0.39401137900E+02  0.51100000000E-03 0. -1.
        -11    1    3    3    0    0 -0.12737129404E+01 -0.91324543175E+01  0.28343230367E+01  0.96466291446E+01  0.51100000000E-03 0.  1.
        -12    1    3    3    0    0 -0.35394488650E+02  0.19863074867E+02  0.55104212057E+01  0.40959447163E+02  0.00000000000E+00 0.  1.
</event>
<event>
 7    1  0.4195243E-015  0.9000772E+02  0.7816164E-02  0.1186339E+00
        -11   -1    0    0    0    0  0.00000000000E+00  0.00000000000E+00  0.45593999997E+02  0.45594000000E+02  0.51100000000E-03 0. -1.
         11   -1    0    0    0    0 -0.00000000000E+00 -0.00000000000E+00 -0.45593999997E+02  0.45594000000E+02  0.51100000000E-03 0.  1.
    9900012    2    1    2    0    0  0.84526518205E+00 -0.22973253389E+00  0.79108341702E+00  0.90007719000E+02  0.89999980091E+02 0.  0.
        -12    1    1    2    0    0 -0.84526518205E+00  0.22973253389E+00 -0.79108341702E+00  0.11802809995E+01  0.00000000000E+00 0.  1.
         11    1    3    3    0    0 -0.35882165171E+01  0.41684110092E+02  0.73401237742E+01  0.42477261555E+02  0.51100000000E-03 0. -1.
        -11    1    3    3    0    0 -0.29531641826E+01 -0.62946519099E+01  0.58621690065E+01  0.90944404489E+01  0.51100000000E-03 0.  1.
        -12    1    3    3    0    0  0.73866458818E+01 -0.35619190716E+02 -0.12411209364E+02  0.38436016996E+02  0.00000000000E+00 0.  1.
</event>
<event>
 7    1  0.4195243E-015  0.9000774E+02  0.7816164E-02  0.1186339E+00
        -11   -1    0    0    0    0  0.00000000000E+00  0.00000000000E+00  0.45593999997E+02  0.45594000000E+02  0.51100000000E-03 0.  1.
         11   -1    0    0    0    0 -0.00000000000E+00 -0.00000000000E+00 -0.45593999997E+02  0.45594000000E+02  0.51100000000E-03 0. -1.
    9900012    2    1    2    0    0 -0.10034614276E+00 -0.46503964785E+00 -0.10801259358E+01  0.90007744409E+02  0.90000005835E+02 0.  0.
        -12    1    1    2    0    0  0.10034614276E+00  0.46503964785E+00  0.10801259358E+01  0.11802555908E+01  0.00000000000E+00 0.  1.
         11    1    3    3    0    0 -0.34612652601E+02  0.11981582739E+02 -0.10771341422E+02  0.38178735459E+02  0.51100000000E-03 0. -1.
        -11    1    3    3    0    0 -0.69792785671E+01  0.59446548332E+00 -0.90850613737E+00  0.70632217996E+01  0.51100000000E-03 0.  1.
        -12    1    3    3    0    0  0.41491585025E+02 -0.13041087870E+02  0.10599721624E+02  0.44765787150E+02  0.00000000000E+00 0.  1.
</event>
<event>
 7    1  0.4195243E-015  0.9000763E+02  0.7816164E-02  0.1186339E+00
        -11   -1    0    0    0    0  0.00000000000E+00  0.00000000000E+00  0.45593999997E+02  0.45594000000E+02  0.51100000000E-03 0.  1.
         11   -1    0    0    0    0 -0.00000000000E+00 -0.00000000000E+00 -0.45593999997E+02  0.45594000000E+02  0.51100000000E-03 0. -1.
    9900012    2    1    2    0    0  0.54534598227E+00 -0.39655341415E+00 -0.96882704152E+00  0.90007626039E+02  0.89999885903E+02 0.  0.
        -12    1    1    2    0    0 -0.54534598227E+00  0.39655341415E+00  0.96882704152E+00  0.11803739607E+01  0.00000000000E+00 0.  1.
         11    1    3    3    0    0 -0.49070037468E+01  0.62788873932E+01  0.60069031433E+01  0.99792784459E+01  0.51100000000E-03 0. -1.
        -11    1    3    3    0    0 -0.77532822826E+01  0.33323326320E+02  0.83275173647E+01  0.35212284914E+02  0.51100000000E-03 0.  1.
         12    1    3    3    0    0  0.13205632012E+02 -0.39998767127E+02 -0.15303247549E+02  0.44816062679E+02  0.00000000000E+00 0. -1.
</event>
<event>
 7    1  0.4195243E-015  0.9000768E+02  0.7816164E-02  0.1186339E+00
        -11   -1    0    0    0    0  0.00000000000E+00  0.00000000000E+00  0.45593999997E+02  0.45594000000E+02  0.51100000000E-03 0. -1.
         11   -1    0    0    0    0 -0.00000000000E+00 -0.00000000000E+00 -0.45593999997E+02  0.45594000000E+02  0.51100000000E-03 0.  1.
    9900012    2    1    2    0    0  0.60534323574E+00  0.17447959924E+00  0.99813844243E+00  0.90007676352E+02  0.89999936880E+02 0.  0.
        -12    1    1    2    0    0 -0.60534323574E+00 -0.17447959924E+00 -0.99813844243E+00  0.11803236479E+01  0.00000000000E+00 0.  1.
         11    1    3    3    0    0 -0.32247615077E+02 -0.70686327408E+01 -0.17966584370E+02  0.37585534467E+02  0.51100000000E-03 0. -1.
        -11    1    3    3    0    0 -0.61862104641E+01  0.76253551079E+01  0.33620731739E+01  0.10378765664E+02  0.51100000000E-03 0.  1.
        -12    1    3    3    0    0  0.39039168777E+02 -0.38224276794E+00  0.15602649638E+02  0.42043376221E+02  0.00000000000E+00 0.  1.
</event>
<event>
 7    1  0.4195243E-015  0.9000773E+02  0.7816164E-02  0.1186339E+00
        -11   -1    0    0    0    0  0.00000000000E+00  0.00000000000E+00  0.45593999997E+02  0.45594000000E+02  0.51100000000E-03 0.  1.
         11   -1    0    0    0    0 -0.00000000000E+00 -0.00000000000E+00 -0.45593999997E+02  0.45594000000E+02  0.51100000000E-03 0. -1.
    9900012    2    1    2    0    0  0.33119303685E+00 -0.11267075913E+01 -0.11784990099E+00  0.90007725700E+02  0.89999986879E+02 0.  0.
        -12    1    1    2    0    0 -0.33119303685E+00  0.11267075913E+01  0.11784990099E+00  0.11802742999E+01  0.00000000000E+00 0.  1.
         11    1    3    3    0    0  0.17955237336E+02  0.30267361807E+02 -0.13893491048E+02  0.37835602708E+02  0.51100000000E-03 0. -1.
        -11    1    3    3    0    0 -0.37697020210E+01  0.47961787818E+01 -0.60947248049E+01  0.86232044475E+01  0.51100000000E-03 0.  1.
        -12    1    3    3    0    0 -0.13854342279E+02 -0.36190248180E+02  0.19870365952E+02  0.43548918544E+02  0.00000000000E+00 0.  1.
</event>
<event>
 7    1  0.4195243E-015  0.9000866E+02  0.7816164E-02  0.1186337E+00
        -11   -1    0    0    0    0  0.00000000000E+00  0.00000000000E+00  0.45593999997E+02  0.45594000000E+02  0.51100000000E-03 0.  1.
         11   -1    0    0    0    0 -0.00000000000E+00 -0.00000000000E+00 -0.45593999997E+02  0.45594000000E+02  0.51100000000E-03 0. -1.
    9900012    2    1    2    0    0  0.16698166636E+00 -0.11533396149E+01 -0.18104704968E+00  0.90008655615E+02  0.90000929064E+02 0.  0.
        -12    1    1    2    0    0 -0.16698166636E+00  0.11533396149E+01  0.18104704968E+00  0.11793443850E+01  0.00000000000E+00 0.  1.
         11    1    3    3    0    0 -0.57165353381E+01 -0.67931986950E+01  0.67098133538E+01  0.11128698050E+02  0.51100000000E-03 0. -1.
        -11    1    3    3    0    0  0.39315492748E+02  0.45453733130E+01  0.10821234276E+02  0.41030080430E+02  0.51100000000E-03 0.  1.
         12    1    3    3    0    0 -0.33431975744E+02  0.10944857671E+01 -0.17712094679E+02  0.37849877135E+02  0.00000000000E+00 0. -1.
</event>
<event>
 7    1  0.4195243E-015  0.9000771E+02  0.7816164E-02  0.1186339E+00
        -11   -1    0    0    0    0  0.00000000000E+00  0.00000000000E+00  0.45593999997E+02  0.45594000000E+02  0.51100000000E-03 0.  1.
         11   -1    0    0    0    0 -0.00000000000E+00 -0.00000000000E+00 -0.45593999997E+02  0.45594000000E+02  0.51100000000E-03 0. -1.
    9900012    2    1    2    0    0 -0.24322513964E+00 -0.11324410431E+01 -0.22694953457E+00  0.90007708817E+02  0.89999969774E+02 0.  0.
        -12    1    1    2    0    0  0.24322513964E+00  0.11324410431E+01  0.22694953457E+00  0.11802911827E+01  0.00000000000E+00 0.  1.
         11    1    3    3    0    0 -0.38574285217E+02 -0.82051085500E+01  0.12607079627E+02  0.41403354252E+02  0.51100000000E-03 0. -1.
        -11    1    3    3    0    0 -0.76449329638E+00  0.18484894477E+01 -0.87209597658E+01  0.89474299515E+01  0.51100000000E-03 0.  1.
        -12    1    3    3    0    0  0.39095553374E+02  0.52241780591E+01 -0.41130693962E+01  0.39656924614E+02  0.00000000000E+00 0.  1.
</event>
<event>
 7    1  0.4347889E-015  0.9000776E+02  0.7816164E-02  0.1186339E+00
        -11   -1    0    0    0    0  0.00000000000E+00  0.00000000000E+00  0.45593999997E+02  0.45594000000E+02  0.51100000000E-03 0.  1.
         11   -1    0    0    0    0 -0.00000000000E+00 -0.00000000000E+00 -0.45593999997E+02  0.45594000000E+02  0.51100000000E-03 0. -1.
    9900012    2    1    2    0    0 -0.10735881906E+00 -0.51217779474E+00 -0.10578796089E+01  0.90007762195E+02  0.90000023856E+02 0.  0.
        -12    1    1    2    0    0  0.10735881906E+00  0.51217779474E+00  0.10578796089E+01  0.11802378050E+01  0.00000000000E+00 0.  1.
         11    1    3    3    0    0 -0.23024956142E+02  0.25319760946E+02 -0.18330113651E+02  0.38823085483E+02  0.51100000000E-03 0. -1.
        -11    1    3    3    0    0  0.34142155565E+01  0.29936627220E+00 -0.87946695042E+01  0.94388929425E+01  0.51100000000E-03 0.  1.
        -12    1    3    3    0    0  0.19503381766E+02 -0.26131305013E+02  0.26066903547E+02  0.41745783769E+02  0.00000000000E+00 0.  1.
</event>
<event>
 7    1  0.4195243E-015  0.9000761E+02  0.7816164E-02  0.1186339E+00
        -11   -1    0    0    0    0  0.00000000000E+00  0.00000000000E+00  0.45593999997E+02  0.45594000000E+02  0.51100000000E-03 0.  1.
         11   -1    0    0    0    0 -0.00000000000E+00 -0.00000000000E+00 -0.45593999997E+02  0.45594000000E+02  0.51100000000E-03 0. -1.
    9900012    2    1    2    0    0  0.26551193558E+00 -0.78971363446E+00 -0.83617196048E+00  0.90007606947E+02  0.89999866558E+02 0.  0.
        -12    1    1    2    0    0 -0.26551193558E+00  0.78971363446E+00  0.83617196048E+00  0.11803930531E+01  0.00000000000E+00 0.  1.
         11    1    3    3    0    0  0.38241154536E+02  0.10258738500E+02  0.31632075133E+01  0.39719434763E+02  0.51100000000E-03 0. -1.
        -11    1    3    3    0    0  0.82898649836E+00  0.69744350762E+01 -0.25685576457E+01  0.74784658780E+01  0.51100000000E-03 0.  1.
        -12    1    3    3    0    0 -0.38804629099E+02 -0.18022887210E+02 -0.14308218280E+01  0.42809706306E+02  0.00000000000E+00 0.  1.
</event>
<event>
 7    1  0.6586656E-015  0.9000771E+02  0.7816164E-02  0.1186339E+00
        -11   -1    0    0    0    0  0.00000000000E+00  0.00000000000E+00  0.45593999997E+02  0.45594000000E+02  0.51100000000E-03 0.  1.
         11   -1    0    0    0    0 -0.00000000000E+00 -0.00000000000E+00 -0.45593999997E+02  0.45594000000E+02  0.51100000000E-03 0. -1.
    9900012    2    1    2    0    0 -0.26708290830E+00  0.23626938939E+00 -0.11251368896E+01  0.90007707865E+02  0.89999968809E+02 0.  0.
        -12    1    1    2    0    0  0.26708290830E+00 -0.23626938939E+00  0.11251368896E+01  0.11802921353E+01  0.00000000000E+00 0.  1.
         11    1    3    3    0    0 -0.10161144101E+02  0.28737736091E+02 -0.19636668446E+02  0.36258861993E+02  0.51100000000E-03 0. -1.
        -11    1    3    3    0    0 -0.30760917546E+01  0.45359334483E+01 -0.78244316055E+01  0.95529452495E+01  0.51100000000E-03 0.  1.
        -12    1    3    3    0    0  0.12970152948E+02 -0.33037400150E+02  0.26335963162E+02  0.44195900622E+02  0.00000000000E+00 0.  1.
</event>
<event>
 7    1  0.4195243E-015  0.9000767E+02  0.7816164E-02  0.1186339E+00
        -11   -1    0    0    0    0  0.00000000000E+00  0.00000000000E+00  0.45593999997E+02  0.45594000000E+02  0.51100000000E-03 0.  1.
         11   -1    0    0    0    0 -0.00000000000E+00 -0.00000000000E+00 -0.45593999997E+02  0.45594000000E+02  0.51100000000E-03 0. -1.
    9900012    2    1    2    0    0  0.67819481102E+00 -0.32643301578E+00 -0.90921339962E+00  0.90007671350E+02  0.89999931812E+02 0.  0.
        -12    1    1    2    0    0 -0.67819481102E+00  0.32643301578E+00  0.90921339962E+00  0.11803286498E+01  0.00000000000E+00 0.  1.
         11    1    3    3    0    0 -0.13641640626E+01 -0.30547009096E+02 -0.23653795282E+02  0.38658540322E+02  0.51100000000E-03 0. -1.
        -11    1    3    3    0    0 -0.19077175687E+01 -0.76889987437E+01  0.38583676707E+01  0.88117585842E+01  0.51100000000E-03 0.  1.
        -12    1    3    3    0    0  0.39500764423E+01  0.37909574824E+02  0.18886214211E+02  0.42537372444E+02  0.00000000000E+00 0.  1.
</event>
<event>
 7    1  0.4195243E-015  0.9000767E+02  0.7816164E-02  0.1186339E+00
        -11   -1    0    0    0    0  0.00000000000E+00  0.00000000000E+00  0.45593999997E+02  0.45594000000E+02  0.51100000000E-03 0. -1.
         11   -1    0    0    0    0 -0.00000000000E+00 -0.00000000000E+00 -0.45593999997E+02  0.45594000000E+02  0.51100000000E-03 0.  1.
    9900012    2    1    2    0    0 -0.38231946979E+00 -0.26488111975E+00  0.10848243648E+01  0.90007672043E+02  0.89999932514E+02 0.  0.
        -12    1    1    2    0    0  0.38231946979E+00  0.26488111975E+00 -0.10848243648E+01  0.11803279574E+01  0.00000000000E+00 0.  1.
         11    1    3    3    0    0 -0.11643802413E+02 -0.14188035653E+02  0.34616746972E+02  0.39181598506E+02  0.51100000000E-03 0. -1.
        -11    1    3    3    0    0  0.17085842752E-01  0.65807340267E+01  0.61046650521E+01  0.89762624692E+01  0.51100000000E-03 0.  1.
        -12    1    3    3    0    0  0.11244397101E+02  0.73424205064E+01 -0.39636587659E+02  0.41849811067E+02  0.00000000000E+00 0.  1.
</event>
<event>
 7    1  0.4195243E-015  0.9000769E+02  0.7816164E-02  0.1186339E+00
        -11   -1    0    0    0    0  0.00000000000E+00  0.00000000000E+00  0.45593999997E+02  0.45594000000E+02  0.51100000000E-03 0.  1.
         11   -1    0    0    0    0 -0.00000000000E+00 -0.00000000000E+00 -0.45593999997E+02  0.45594000000E+02  0.51100000000E-03 0. -1.
    9900012    2    1    2    0    0 -0.93441165339E+00  0.37732590240E+00  0.61451626768E+00  0.90007690626E+02  0.89999951342E+02 0.  0.
        -12    1    1    2    0    0  0.93441165339E+00 -0.37732590240E+00 -0.61451626768E+00  0.11803093738E+01  0.00000000000E+00 0.  1.
         11    1    3    3    0    0  0.12682149001E+02  0.67677957153E+00 -0.36003671060E+02  0.38177994498E+02  0.51100000000E-03 0. -1.
        -11    1    3    3    0    0 -0.97871695933E+01 -0.41073989384E+01 -0.36323850075E+01  0.11218450686E+02  0.51100000000E-03 0.  1.
        -12    1    3    3    0    0 -0.38293910609E+01  0.38079452693E+01  0.40250572335E+02  0.40611245442E+02  0.00000000000E+00 0.  1.
</event>
<event>
 7    1  0.4195243E-015  0.9000767E+02  0.7816164E-02  0.1186339E+00
        -11   -1    0    0    0    0  0.00000000000E+00  0.00000000000E+00  0.45593999997E+02  0.45594000000E+02  0.51100000000E-03 0. -1.
         11   -1    0    0    0    0 -0.00000000000E+00 -0.00000000000E+00 -0.45593999997E+02  0.45594000000E+02  0.51100000000E-03 0.  1.
    9900012    2    1    2    0    0 -0.33643921678E+00 -0.11313585599E+01 -0.21081261624E-02  0.90007674629E+02  0.89999935134E+02 0.  0.
        -12    1    1    2    0    0  0.33643921678E+00  0.11313585599E+01  0.21081261624E-02  0.11803253712E+01  0.00000000000E+00 0.  1.
         11    1    3    3    0    0  0.21990987525E+02  0.29780129191E+02 -0.39580970404E+01  0.37230715268E+02  0.51100000000E-03 0. -1.
        -11    1    3    3    0    0  0.16760694593E+01  0.45648541509E+01  0.84073899627E+01  0.97124306173E+01  0.51100000000E-03 0.  1.
        -12    1    3    3    0    0 -0.24003496201E+02 -0.35476341901E+02 -0.44514010485E+01  0.43064528743E+02  0.00000000000E+00 0.  1.
</event>
<event>
 7    1  0.4195243E-015  0.9000774E+02  0.7816164E-02  0.1186339E+00
        -11   -1    0    0    0    0  0.00000000000E+00  0.00000000000E+00  0.45593999997E+02  0.45594000000E+02  0.51100000000E-03 0. -1.
         11   -1    0    0    0    0 -0.00000000000E+00 -0.00000000000E+00 -0.45593999997E+02  0.45594000000E+02  0.51100000000E-03 0.  1.
    9900012    2    1    2    0    0 -0.47605643618E+00  0.10794522269E+01  0.33992771134E-01  0.90007744795E+02  0.90000006226E+02 0.  0.
        -12    1    1    2    0    0  0.47605643618E+00 -0.10794522269E+01 -0.33992771134E-01  0.11802552051E+01  0.00000000000E+00 0.  1.
         11    1    3    3    0    0  0.24500923679E+02 -0.25626130414E+02  0.44700138244E+01  0.35734784804E+02  0.51100000000E-03 0. -1.
        -11    1    3    3    0    0  0.60552483333E+01 -0.50915796929E+01 -0.58191838885E+01  0.98210548077E+01  0.51100000000E-03 0.  1.
        -12    1    3    3    0    0 -0.31032228449E+02  0.31797162334E+02  0.13831628352E+01  0.44451905183E+02  0.00000000000E+00 0.  1.
</event>
<event>
 7    1  0.4195243E-015  0.9000782E+02  0.7816164E-02  0.1186339E+00
        -11   -1    0    0    0    0  0.00000000000E+00  0.00000000000E+00  0.45593999997E+02  0.45594000000E+02  0.51100000000E-03 0.  1.
         11   -1    0    0    0    0 -0.00000000000E+00 -0.00000000000E+00 -0.45593999997E+02  0.45594000000E+02  0.51100000000E-03 0. -1.
    9900012    2    1    2    0    0 -0.74790093832E+00  0.82781893058E+00 -0.38494670788E+00  0.90007820368E+02  0.90000082797E+02 0.  0.
        -12    1    1    2    0    0  0.74790093832E+00 -0.82781893058E+00  0.38494670788E+00  0.11801796318E+01  0.00000000000E+00 0.  1.
         11    1    3    3    0    0 -0.44289516260E+01  0.82454891631E+01  0.47532750555E+01  0.10497491513E+02  0.51100000000E-03 0. -1.
        -11    1    3    3    0    0 -0.25351760091E+02 -0.47583365539E+00  0.26039990164E+02  0.36345828445E+02  0.51100000000E-03 0.  1.
         12    1    3    3    0    0  0.29032810778E+02 -0.69418365771E+01 -0.31178211927E+02  0.43164500411E+02  0.00000000000E+00 0. -1.
</event>
<event>
 7    1  0.4195243E-015  0.9000761E+02  0.7816164E-02  0.1186339E+00
        -11   -1    0    0    0    0  0.00000000000E+00  0.00000000000E+00  0.45593999997E+02  0.45594000000E+02  0.51100000000E-03 0. -1.
         11   -1    0    0    0    0 -0.00000000000E+00 -0.00000000000E+00 -0.45593999997E+02  0.45594000000E+02  0.51100000000E-03 0.  1.
    9900012    2    1    2    0    0  0.10861869249E+01  0.44906293639E+00  0.10891765721E+00  0.90007609127E+02  0.89999868767E+02 0.  0.
        -12    1    1    2    0    0 -0.10861869249E+01 -0.44906293639E+00 -0.10891765721E+00  0.11803908729E+01  0.00000000000E+00 0.  1.
         11    1    3    3    0    0 -0.21977215733E+02  0.12987934179E+02 -0.19465086606E+02  0.32102555077E+02  0.51100000000E-03 0. -1.
        -11    1    3    3    0    0  0.19844587700E+02  0.10916103037E+02 -0.56171366551E+01  0.23334977844E+02  0.51100000000E-03 0.  1.
         12    1    3    3    0    0  0.32188149580E+01 -0.23454974279E+02  0.25191140918E+02  0.34570076207E+02  0.00000000000E+00 0. -1.
</event>
<event>
 7    1  0.4195243E-015  0.9000770E+02  0.7816164E-02  0.1186339E+00
        -11   -1    0    0    0    0  0.00000000000E+00  0.00000000000E+00  0.45593999997E+02  0.45594000000E+02  0.51100000000E-03 0.  1.
         11   -1    0    0    0    0 -0.00000000000E+00 -0.00000000000E+00 -0.45593999997E+02  0.45594000000E+02  0.51100000000E-03 0. -1.
    9900012    2    1    2    0    0 -0.11481900211E+00  0.11718946516E+01  0.81160893914E-01  0.90007700221E+02  0.89999961064E+02 0.  0.
        -12    1    1    2    0    0  0.11481900211E+00 -0.11718946516E+01 -0.81160893914E-01  0.11802997791E+01  0.00000000000E+00 0.  1.
         11    1    3    3    0    0 -0.98111527250E+01 -0.40531612198E+00  0.36807589989E+01  0.10486705203E+02  0.51100000000E-03 0. -1.
        -11    1    3    3    0    0  0.19962850366E+02 -0.16820971564E+02  0.30058999903E+02  0.39812108139E+02  0.51100000000E-03 0.  1.
         12    1    3    3    0    0 -0.10266516643E+02  0.18398182337E+02 -0.33658598008E+02  0.39708886879E+02  0.00000000000E+00 0. -1.
</event>
<event>
 7    1  0.4195243E-015  0.9000766E+02  0.7816164E-02  0.1186339E+00
        -11   -1    0    0    0    0  0.00000000000E+00  0.00000000000E+00  0.45593999997E+02  0.45594000000E+02  0.51100000000E-03 0. -1.
         11   -1    0    0    0    0 -0.00000000000E+00 -0.00000000000E+00 -0.45593999997E+02  0.45594000000E+02  0.51100000000E-03 0.  1.
    9900012    2    1    2    0    0 -0.79557299392E+00  0.63099569497E+00 -0.60174753834E+00  0.90007664431E+02  0.89999924801E+02 0.  0.
        -12    1    1    2    0    0  0.79557299392E+00 -0.63099569497E+00  0.60174753834E+00  0.11803355691E+01  0.00000000000E+00 0.  1.
         11    1    3    3    0    0 -0.44364996536E+01 -0.98529963856E+01  0.95724133610E+00  0.10848058729E+02  0.51100000000E-03 0. -1.
        -11    1    3    3    0    0 -0.20288899564E+02  0.37195816803E+02 -0.68131480751E+01  0.42913718321E+02  0.51100000000E-03 0.  1.
         12    1    3    3    0    0  0.23929826224E+02 -0.26711824723E+02  0.52541592007E+01  0.36245887381E+02  0.00000000000E+00 0. -1.
</event>
<event>
 7    1  0.4195243E-015  0.9000759E+02  0.7816164E-02  0.1186339E+00
        -11   -1    0    0    0    0  0.00000000000E+00  0.00000000000E+00  0.45593999997E+02  0.45594000000E+02  0.51100000000E-03 0.  1.
         11   -1    0    0    0    0 -0.00000000000E+00 -0.00000000000E+00 -0.45593999997E+02  0.45594000000E+02  0.51100000000E-03 0. -1.
    9900012    2    1    2    0    0  0.11497538637E+01  0.75832597133E-01  0.25627531738E+00  0.90007592626E+02  0.89999852049E+02 0.  0.
        -12    1    1    2    0    0 -0.11497538637E+01 -0.75832597133E-01 -0.25627531738E+00  0.11804073739E+01  0.00000000000E+00 0.  1.
         11    1    3    3    0    0 -0.15101040701E+02  0.10574785690E+02 -0.35140036753E+02  0.39682360135E+02  0.51100000000E-03 0. -1.
        -11    1    3    3    0    0 -0.17846929724E+01  0.84349245487E+01  0.41129526633E+01  0.95524583757E+01  0.51100000000E-03 0.  1.
        -12    1    3    3    0    0  0.18035487537E+02 -0.18933877642E+02  0.31283359407E+02  0.40772774115E+02  0.00000000000E+00 0.  1.
</event>
<event>
 7    1  0.4195243E-015  0.9000773E+02  0.7816164E-02  0.1186339E+00
        -11   -1    0    0    0    0  0.00000000000E+00  0.00000000000E+00  0.45593999997E+02  0.45594000000E+02  0.51100000000E-03 0. -1.
         11   -1    0    0    0    0 -0.00000000000E+00 -0.00000000000E+00 -0.45593999997E+02  0.45594000000E+02  0.51100000000E-03 0.  1.
    9900012    2    1    2    0    0  0.45545412079E-01 -0.11112074707E+01  0.39518504914E+00  0.90007734076E+02  0.89999995366E+02 0.  0.
        -12    1    1    2    0    0 -0.45545412079E-01  0.11112074707E+01 -0.39518504914E+00  0.11802659237E+01  0.00000000000E+00 0.  1.
         11    1    3    3    0    0 -0.25188096581E+02 -0.16237579502E+02 -0.24092810652E+02  0.38452083465E+02  0.51100000000E-03 0. -1.
        -11    1    3    3    0    0 -0.53503001890E+01  0.87313183644E+01 -0.21885323136E+01  0.10471451974E+02  0.51100000000E-03 0.  1.
        -12    1    3    3    0    0  0.30583942182E+02  0.63950536667E+01  0.26676528014E+02  0.41084198637E+02  0.00000000000E+00 0.  1.
</event>
<event>
 7    1  0.4195243E-015  0.9000775E+02  0.7816164E-02  0.1186339E+00
        -11   -1    0    0    0    0  0.00000000000E+00  0.00000000000E+00  0.45593999997E+02  0.45594000000E+02  0.51100000000E-03 0. -1.
         11   -1    0    0    0    0 -0.00000000000E+00 -0.00000000000E+00 -0.45593999997E+02  0.45594000000E+02  0.51100000000E-03 0.  1.
    9900012    2    1    2    0    0 -0.11422805691E+00  0.11346288268E+01 -0.30425281942E+00  0.90007745620E+02  0.90000007062E+02 0.  0.
        -12    1    1    2    0    0  0.11422805691E+00 -0.11346288268E+01  0.30425281942E+00  0.11802543801E+01  0.00000000000E+00 0.  1.
         11    1    3    3    0    0  0.75061709809E+01  0.56052637186E+01 -0.58466149808E+00  0.93863418582E+01  0.51100000000E-03 0. -1.
        -11    1    3    3    0    0  0.31496099610E+02 -0.82618195566E+01  0.18339300613E+02  0.37371003469E+02  0.51100000000E-03 0.  1.
         12    1    3    3    0    0 -0.39116498648E+02  0.37911846649E+01 -0.18058891934E+02  0.43250400293E+02  0.00000000000E+00 0. -1.
</event>
<event>
 7    1  0.4195243E-015  0.9000771E+02  0.7816164E-02  0.1186339E+00
        -11   -1    0    0    0    0  0.00000000000E+00  0.00000000000E+00  0.45593999997E+02  0.45594000000E+02  0.51100000000E-03 0. -1.
         11   -1    0    0    0    0 -0.00000000000E+00 -0.00000000000E+00 -0.45593999997E+02  0.45594000000E+02  0.51100000000E-03 0.  1.
    9900012    2    1    2    0    0 -0.52188852166E+00 -0.98226901302E+00 -0.39480425919E+00  0.90007707474E+02  0.89999968413E+02 0.  0.
        -12    1    1    2    0    0  0.52188852166E+00  0.98226901302E+00  0.39480425919E+00  0.11802925256E+01  0.00000000000E+00 0.  1.
         11    1    3    3    0    0  0.29302210485E+02 -0.24728824485E+02  0.11971516834E+02  0.40167792014E+02  0.51100000000E-03 0. -1.
        -11    1    3    3    0    0 -0.96509228786E+01 -0.66472230935E+01 -0.42750895942E+01  0.12474064236E+02  0.51100000000E-03 0.  1.
        -12    1    3    3    0    0 -0.20173176128E+02  0.30393778566E+02 -0.80912314989E+01  0.37365851225E+02  0.00000000000E+00 0.  1.
</event>
<event>
 7    1  0.4195243E-015  0.9000776E+02  0.7816164E-02  0.1186339E+00
        -11   -1    0    0    0    0  0.00000000000E+00  0.00000000000E+00  0.45593999997E+02  0.45594000000E+02  0.51100000000E-03 0. -1.
         11   -1    0    0    0    0 -0.00000000000E+00 -0.00000000000E+00 -0.45593999997E+02  0.45594000000E+02  0.51100000000E-03 0.  1.
    9900012    2    1    2    0    0 -0.83112469577E+00 -0.82472402579E+00  0.14842853573E+00  0.90007758919E+02  0.90000020537E+02 0.  0.
        -12    1    1    2    0    0  0.83112469577E+00  0.82472402579E+00 -0.14842853573E+00  0.11802410808E+01  0.00000000000E+00 0.  1.
         11    1    3    3    0    0  0.65430474515E+01  0.36130596353E+02 -0.69847933596E+00  0.36724914383E+02  0.51100000000E-03 0. -1.
        -11    1    3    3    0    0  0.79467471826E+01  0.14132656109E+01 -0.76308891569E+01  0.11107591100E+02  0.51100000000E-03 0.  1.
        -12    1    3    3    0    0 -0.15320919330E+02 -0.38368585989E+02  0.84777970285E+01  0.42175253436E+02  0.00000000000E+00 0.  1.
</event>
<event>
 7    1  0.4195243E-015  0.9000776E+02  0.7816164E-02  0.1186339E+00
        -11   -1    0    0    0    0  0.00000000000E+00  0.00000000000E+00  0.45593999997E+02  0.45594000000E+02  0.51100000000E-03 0. -1.
         11   -1    0    0    0    0 -0.00000000000E+00 -0.00000000000E+00 -0.45593999997E+02  0.45594000000E+02  0.51100000000E-03 0.  1.
    9900012    2    1    2    0    0 -0.52726448163E+00  0.43093328277E+00  0.96397386245E+00  0.90007764034E+02  0.90000025719E+02 0.  0.
        -12    1    1    2    0    0  0.52726448163E+00 -0.43093328277E+00 -0.96397386245E+00  0.11802359659E+01  0.00000000000E+00 0.  1.
         11    1    3    3    0    0 -0.47518149727E+01 -0.86889220126E+01  0.28577763835E+02  0.30245093773E+02  0.51100000000E-03 0. -1.
        -11    1    3    3    0    0 -0.32009411002E+01 -0.83566908164E-01  0.15103283655E+02  0.15438982634E+02  0.51100000000E-03 0.  1.
        -12    1    3    3    0    0  0.74254915912E+01  0.92034222035E+01 -0.42717073627E+02  0.44323687627E+02  0.00000000000E+00 0.  1.
</event>
<event>
 7    1  0.4195243E-015  0.9000775E+02  0.7816164E-02  0.1186339E+00
        -11   -1    0    0    0    0  0.00000000000E+00  0.00000000000E+00  0.45593999997E+02  0.45594000000E+02  0.51100000000E-03 0.  1.
         11   -1    0    0    0    0 -0.00000000000E+00 -0.00000000000E+00 -0.45593999997E+02  0.45594000000E+02  0.51100000000E-03 0. -1.
    9900012    2    1    2    0    0 -0.38167145346E+00 -0.10957360222E+01 -0.21605429412E+00  0.90007750032E+02  0.90000011533E+02 0.  0.
        -12    1    1    2    0    0  0.38167145346E+00  0.10957360222E+01  0.21605429412E+00  0.11802499679E+01  0.00000000000E+00 0.  1.
         11    1    3    3    0    0  0.67836110816E+01 -0.69841033783E+00 -0.21346889305E+01  0.71457717146E+01  0.51100000000E-03 0. -1.
        -11    1    3    3    0    0 -0.31546119651E+02 -0.23563112780E+01  0.31388511590E+02  0.44563982407E+02  0.51100000000E-03 0.  1.
         12    1    3    3    0    0  0.24380837116E+02  0.19589855936E+01 -0.29469876954E+02  0.38297995910E+02  0.00000000000E+00 0. -1.
</event>
<event>
 7    1  0.4195243E-015  0.9000762E+02  0.7816164E-02  0.1186339E+00
        -11   -1    0    0    0    0  0.00000000000E+00  0.00000000000E+00  0.45593999997E+02  0.45594000000E+02  0.51100000000E-03 0. -1.
         11   -1    0    0    0    0 -0.00000000000E+00 -0.00000000000E+00 -0.45593999997E+02  0.45594000000E+02  0.51100000000E-03 0.  1.
    9900012    2    1    2    0    0 -0.77396791321E+00  0.82485199948E+00 -0.33747636963E+00  0.90007619785E+02  0.89999879566E+02 0.  0.
        -12    1    1    2    0    0  0.77396791321E+00 -0.82485199948E+00  0.33747636963E+00  0.11803802149E+01  0.00000000000E+00 0.  1.
         11    1    3    3    0    0  0.15216911873E+01 -0.79746476422E+01 -0.18991222203E+01  0.83376983968E+01  0.51100000000E-03 0. -1.
        -11    1    3    3    0    0 -0.47181094513E+01 -0.15576613679E+02 -0.34458886729E+02  0.38109137033E+02  0.51100000000E-03 0.  1.
         12    1    3    3    0    0  0.24224503507E+01  0.24376113321E+02  0.36020532580E+02  0.43560784356E+02  0.00000000000E+00 0. -1.
</event>
<event>
 7    1  0.4195243E-015  0.9000777E+02  0.7816164E-02  0.1186339E+00
        -11   -1    0    0    0    0  0.00000000000E+00  0.00000000000E+00  0.45593999997E+02  0.45594000000E+02  0.51100000000E-03 0. -1.
         11   -1    0    0    0    0 -0.00000000000E+00 -0.00000000000E+00 -0.45593999997E+02  0.45594000000E+02  0.51100000000E-03 0.  1.
    9900012    2    1    2    0    0 -0.47857462130E+00 -0.62345689072E+00 -0.88046641668E+00  0.90007765585E+02  0.90000027291E+02 0.  0.
        -12    1    1    2    0    0  0.47857462130E+00  0.62345689072E+00  0.88046641668E+00  0.11802344147E+01  0.00000000000E+00 0.  1.
         11    1    3    3    0    0 -0.11130027333E+01  0.36920934657E+02 -0.96178356630E+01  0.38169319540E+02  0.51100000000E-03 0. -1.
        -11    1    3    3    0    0  0.38254345406E+01 -0.61135925146E+01  0.17605225756E+02  0.19025087044E+02  0.51100000000E-03 0.  1.
        -12    1    3    3    0    0 -0.31910064286E+01 -0.31430799033E+02 -0.88678565095E+01  0.32813359002E+02  0.00000000000E+00 0.  1.
</event>
<event>
 7    1  0.4195243E-015  0.9000775E+02  0.7816164E-02  0.1186339E+00
        -11   -1    0    0    0    0  0.00000000000E+00  0.00000000000E+00  0.45593999997E+02  0.45594000000E+02  0.51100000000E-03 0.  1.
         11   -1    0    0    0    0 -0.00000000000E+00 -0.00000000000E+00 -0.45593999997E+02  0.45594000000E+02  0.51100000000E-03 0. -1.
    9900012    2    1    2    0    0  0.56184782204E-01 -0.10675631744E+01 -0.50015193237E+00  0.90007745868E+02  0.90000007313E+02 0.  0.
        -12    1    1    2    0    0 -0.56184782204E-01  0.10675631744E+01  0.50015193237E+00  0.11802541322E+01  0.00000000000E+00 0.  1.
         11    1    3    3    0    0  0.14059776808E+02  0.33731965958E+02  0.44116193094E+01  0.36810124103E+02  0.51100000000E-03 0. -1.
        -11    1    3    3    0    0  0.15806204147E+01  0.29086551360E+01 -0.11411095203E+02  0.11881571007E+02  0.51100000000E-03 0.  1.
        -12    1    3    3    0    0 -0.15584212441E+02 -0.37708184269E+02  0.64993239617E+01  0.41316050757E+02  0.00000000000E+00 0.  1.
</event>
<event>
 7    1  0.4195243E-015  0.9000779E+02  0.7816164E-02  0.1186339E+00
        -11   -1    0    0    0    0  0.00000000000E+00  0.00000000000E+00  0.45593999997E+02  0.45594000000E+02  0.51100000000E-03 0. -1.
         11   -1    0    0    0    0 -0.00000000000E+00 -0.00000000000E+00 -0.45593999997E+02  0.45594000000E+02  0.51100000000E-03 0.  1.
    9900012    2    1    2    0    0 -0.48345277024E+00  0.10727668170E+01  0.91335902850E-01  0.90007789226E+02  0.90000051243E+02 0.  0.
        -12    1    1    2    0    0  0.48345277024E+00 -0.10727668170E+01 -0.91335902850E-01  0.11802107743E+01  0.00000000000E+00 0.  1.
         11    1    3    3    0    0  0.68725568558E+01  0.35271145323E+02  0.12210659718E+02  0.37952416803E+02  0.51100000000E-03 0. -1.
        -11    1    3    3    0    0 -0.38789297681E+01  0.69345287300E+01 -0.67543908952E+01  0.10428594415E+02  0.51100000000E-03 0.  1.
        -12    1    3    3    0    0 -0.34770798579E+01 -0.41132907236E+02 -0.53649329196E+01  0.41626778008E+02  0.00000000000E+00 0.  1.
</event>
<event>
 7    1  0.4195243E-015  0.9000773E+02  0.7816164E-02  0.1186339E+00
        -11   -1    0    0    0    0  0.00000000000E+00  0.00000000000E+00  0.45593999997E+02  0.45594000000E+02  0.51100000000E-03 0.  1.
         11   -1    0    0    0    0 -0.00000000000E+00 -0.00000000000E+00 -0.45593999997E+02  0.45594000000E+02  0.51100000000E-03 0. -1.
    9900012    2    1    2    0    0  0.41980828126E+00  0.85631312159E+00 -0.69535489274E+00  0.90007733258E+02  0.89999994537E+02 0.  0.
        -12    1    1    2    0    0 -0.41980828126E+00 -0.85631312159E+00  0.69535489274E+00  0.11802667419E+01  0.00000000000E+00 0.  1.
         11    1    3    3    0    0  0.14913211297E+02 -0.29694943835E+02 -0.15965775303E+02  0.36865967258E+02  0.51100000000E-03 0. -1.
        -11    1    3    3    0    0  0.12079258401E+02  0.28425931171E+01  0.23126773101E+01  0.12622887773E+02  0.51100000000E-03 0.  1.
        -12    1    3    3    0    0 -0.26572661416E+02  0.27708663840E+02  0.12957743100E+02  0.40518878227E+02  0.00000000000E+00 0.  1.
</event>
<event>
 7    1  0.4195243E-015  0.9000774E+02  0.7816164E-02  0.1186339E+00
        -11   -1    0    0    0    0  0.00000000000E+00  0.00000000000E+00  0.45593999997E+02  0.45594000000E+02  0.51100000000E-03 0.  1.
         11   -1    0    0    0    0 -0.00000000000E+00 -0.00000000000E+00 -0.45593999997E+02  0.45594000000E+02  0.51100000000E-03 0. -1.
    9900012    2    1    2    0    0 -0.82927743888E+00  0.33437968752E+00 -0.77039014970E+00  0.90007740779E+02  0.90000002157E+02 0.  0.
        -12    1    1    2    0    0  0.82927743888E+00 -0.33437968752E+00  0.77039014970E+00  0.11802592210E+01  0.00000000000E+00 0.  1.
         11    1    3    3    0    0 -0.27021053610E+02 -0.13509474066E+02  0.17489343650E+02  0.34907311116E+02  0.51100000000E-03 0. -1.
        -11    1    3    3    0    0 -0.73950111314E+01 -0.68539536857E+01 -0.11114444093E+02  0.15006456561E+02  0.51100000000E-03 0.  1.
        -12    1    3    3    0    0  0.33586787303E+02  0.20697807439E+02 -0.71452897068E+01  0.40093973102E+02  0.00000000000E+00 0.  1.
</event>
<event>
 7    1  0.4195243E-015  0.9000774E+02  0.7816164E-02  0.1186339E+00
        -11   -1    0    0    0    0  0.00000000000E+00  0.00000000000E+00  0.45593999997E+02  0.45594000000E+02  0.51100000000E-03 0. -1.
         11   -1    0    0    0    0 -0.00000000000E+00 -0.00000000000E+00 -0.45593999997E+02  0.45594000000E+02  0.51100000000E-03 0.  1.
    9900012    2    1    2    0    0  0.11424377424E+01 -0.28527454221E+00  0.80471836183E-01  0.90007736777E+02  0.89999998102E+02 0.  0.
        -12    1    1    2    0    0 -0.11424377424E+01  0.28527454221E+00 -0.80471836183E-01  0.11802632232E+01  0.00000000000E+00 0.  1.
         11    1    3    3    0    0 -0.39084170103E+01 -0.18578382912E+02  0.31170929544E+02  0.36497381880E+02  0.51100000000E-03 0. -1.
        -11    1    3    3    0    0 -0.15012589671E+02  0.19829080988E+01 -0.31984041289E+01  0.15477065690E+02  0.51100000000E-03 0.  1.
        -12    1    3    3    0    0  0.20063444424E+02  0.16310200271E+02 -0.27892053579E+02  0.38033289207E+02  0.00000000000E+00 0.  1.
</event>
<event>
 7    1  0.4195243E-015  0.9000769E+02  0.7816164E-02  0.1186339E+00
        -11   -1    0    0    0    0  0.00000000000E+00  0.00000000000E+00  0.45593999997E+02  0.45594000000E+02  0.51100000000E-03 0.  1.
         11   -1    0    0    0    0 -0.00000000000E+00 -0.00000000000E+00 -0.45593999997E+02  0.45594000000E+02  0.51100000000E-03 0. -1.
    9900012    2    1    2    0    0  0.11139349480E+01 -0.37570461851E+00  0.10543943987E+00  0.90007693894E+02  0.89999954653E+02 0.  0.
        -12    1    1    2    0    0 -0.11139349480E+01  0.37570461851E+00 -0.10543943987E+00  0.11803061062E+01  0.00000000000E+00 0.  1.
         11    1    3    3    0    0 -0.29509832131E+02  0.24239215986E+02  0.52820220175E+01  0.38552166487E+02  0.51100000000E-03 0. -1.
        -11    1    3    3    0    0 -0.54002704078E+01 -0.27082481005E+00 -0.58578234291E+01  0.79718481008E+01  0.51100000000E-03 0.  1.
        -12    1    3    3    0    0  0.36024037487E+02 -0.24344095794E+02  0.68124085154E+00  0.43483679306E+02  0.00000000000E+00 0.  1.
</event>
<event>
 7    1  0.4195243E-015  0.9000773E+02  0.7816164E-02  0.1186339E+00
        -11   -1    0    0    0    0  0.00000000000E+00  0.00000000000E+00  0.45593999997E+02  0.45594000000E+02  0.51100000000E-03 0.  1.
         11   -1    0    0    0    0 -0.00000000000E+00 -0.00000000000E+00 -0.45593999997E+02  0.45594000000E+02  0.51100000000E-03 0. -1.
    9900012    2    1    2    0    0  0.54983158466E+00 -0.24865520882E+00 -0.10143384781E+01  0.90007734465E+02  0.89999995760E+02 0.  0.
        -12    1    1    2    0    0 -0.54983158466E+00  0.24865520882E+00  0.10143384781E+01  0.11802655347E+01  0.00000000000E+00 0.  1.
         11    1    3    3    0    0  0.16493452049E+02 -0.96238930645E+01 -0.10399777255E+02  0.21744163480E+02  0.51100000000E-03 0. -1.
        -11    1    3    3    0    0 -0.20369966392E+02 -0.20095960855E+02 -0.12563917540E+02  0.31251163141E+02  0.51100000000E-03 0.  1.
         12    1    3    3    0    0  0.44263459271E+01  0.29471198710E+02  0.21949356317E+02  0.37012407844E+02  0.00000000000E+00 0. -1.
</event>
<event>
 7    1  0.4195243E-015  0.9000769E+02  0.7816164E-02  0.1186339E+00
        -11   -1    0    0    0    0  0.00000000000E+00  0.00000000000E+00  0.45593999997E+02  0.45594000000E+02  0.51100000000E-03 0. -1.
         11   -1    0    0    0    0 -0.00000000000E+00 -0.00000000000E+00 -0.45593999997E+02  0.45594000000E+02  0.51100000000E-03 0.  1.
    9900012    2    1    2    0    0  0.11507324544E+01 -0.19695931267E+00  0.17367628484E+00  0.90007685803E+02  0.89999946455E+02 0.  0.
        -12    1    1    2    0    0 -0.11507324544E+01  0.19695931267E+00 -0.17367628484E+00  0.11803141973E+01  0.00000000000E+00 0.  1.
         11    1    3    3    0    0  0.30268863472E+01 -0.48662559560E+01 -0.66524251990E+01  0.87805039308E+01  0.51100000000E-03 0. -1.
        -11    1    3    3    0    0  0.28361922914E+02 -0.22531395357E+01  0.30868736245E+02  0.41980402413E+02  0.51100000000E-03 0.  1.
         12    1    3    3    0    0 -0.30238076806E+02  0.69224361790E+01 -0.24042634762E+02  0.39246779459E+02  0.00000000000E+00 0. -1.
</event>
<event>
 7    1  0.4195243E-015  0.9000770E+02  0.7816164E-02  0.1186339E+00
        -11   -1    0    0    0    0  0.00000000000E+00  0.00000000000E+00  0.45593999997E+02  0.45594000000E+02  0.51100000000E-03 0.  1.
         11   -1    0    0    0    0 -0.00000000000E+00 -0.00000000000E+00 -0.45593999997E+02  0.45594000000E+02  0.51100000000E-03 0. -1.
    9900012    2    1    2    0    0 -0.10448634576E+01 -0.81294131870E-02  0.54890343481E+00  0.90007703125E+02  0.89999964006E+02 0.  0.
        -12    1    1    2    0    0  0.10448634576E+01  0.81294131870E-02 -0.54890343481E+00  0.11802968750E+01  0.00000000000E+00 0.  1.
         11    1    3    3    0    0  0.11701355361E+02  0.17901001261E+02 -0.25183051593E+02  0.33038669029E+02  0.51100000000E-03 0. -1.
        -11    1    3    3    0    0  0.86407441495E+01  0.46996925621E+00 -0.88295898270E+01  0.12363049273E+02  0.51100000000E-03 0.  1.
        -12    1    3    3    0    0 -0.21386962968E+02 -0.18379099930E+02  0.34561544855E+02  0.44605984823E+02  0.00000000000E+00 0.  1.
</event>
<event>
 7    1  0.4195243E-015  0.9000808E+02  0.7816164E-02  0.1186338E+00
        -11   -1    0    0    0    0  0.00000000000E+00  0.00000000000E+00  0.45593999997E+02  0.45594000000E+02  0.51100000000E-03 0. -1.
         11   -1    0    0    0    0 -0.00000000000E+00 -0.00000000000E+00 -0.45593999997E+02  0.45594000000E+02  0.51100000000E-03 0.  1.
    9900012    2    1    2    0    0 -0.93821890270E+00  0.61703645251E-01 -0.71284319452E+00  0.90008081584E+02  0.90000347460E+02 0.  0.
        -12    1    1    2    0    0  0.93821890270E+00 -0.61703645251E-01  0.71284319452E+00  0.11799184163E+01  0.00000000000E+00 0.  1.
         11    1    3    3    0    0 -0.10178347464E+02 -0.24003030106E+00 -0.14312093385E+01  0.10281280663E+02  0.51100000000E-03 0. -1.
        -11    1    3    3    0    0  0.26575265441E+02 -0.31797519067E+02 -0.80299193541E+01  0.42211450545E+02  0.51100000000E-03 0.  1.
         12    1    3    3    0    0 -0.17335136879E+02  0.32099253013E+02  0.87482854981E+01  0.37515350375E+02  0.00000000000E+00 0. -1.
</event>
<event>
 7    1  0.4195243E-015  0.9000780E+02  0.7816164E-02  0.1186339E+00
        -11   -1    0    0    0    0  0.00000000000E+00  0.00000000000E+00  0.45593999997E+02  0.45594000000E+02  0.51100000000E-03 0. -1.
         11   -1    0    0    0    0 -0.00000000000E+00 -0.00000000000E+00 -0.45593999997E+02  0.45594000000E+02  0.51100000000E-03 0.  1.
    9900012    2    1    2    0    0 -0.44095743747E-01 -0.64086594464E+00  0.99005555480E+00  0.90007803578E+02  0.90000065785E+02 0.  0.
        -12    1    1    2    0    0  0.44095743747E-01  0.64086594464E+00 -0.99005555480E+00  0.11801964223E+01  0.00000000000E+00 0.  1.
         11    1    3    3    0    0  0.70982340236E+01 -0.45932248151E+01  0.32686347538E+01  0.90645801818E+01  0.51100000000E-03 0. -1.
        -11    1    3    3    0    0  0.14653775171E+02  0.34411907456E+02  0.14222306262E+02  0.40014828466E+02  0.51100000000E-03 0.  1.
         12    1    3    3    0    0 -0.21796104938E+02 -0.30459548585E+02 -0.16500885461E+02  0.40928394930E+02  0.00000000000E+00 0. -1.
</event>
<event>
 7    1  0.4195243E-015  0.9000709E+02  0.7816164E-02  0.1186340E+00
        -11   -1    0    0    0    0  0.00000000000E+00  0.00000000000E+00  0.45593999997E+02  0.45594000000E+02  0.51100000000E-03 0. -1.
         11   -1    0    0    0    0 -0.00000000000E+00 -0.00000000000E+00 -0.45593999997E+02  0.45594000000E+02  0.51100000000E-03 0.  1.
    9900012    2    1    2    0    0  0.10974644110E+01 -0.23680291780E+00 -0.36612187960E+00  0.90007089764E+02  0.89999342546E+02 0.  0.
        -12    1    1    2    0    0 -0.10974644110E+01  0.23680291780E+00  0.36612187960E+00  0.11809102362E+01  0.00000000000E+00 0.  1.
         11    1    3    3    0    0 -0.46067966329E+01  0.70280974105E+01 -0.49172941913E+01  0.97363499759E+01  0.51100000000E-03 0. -1.
        -11    1    3    3    0    0  0.16111345282E+02  0.84372781762E+01 -0.33327202563E+02  0.37966637206E+02  0.51100000000E-03 0.  1.
         12    1    3    3    0    0 -0.10407084238E+02 -0.15702178504E+02  0.37878374874E+02  0.42304102582E+02  0.00000000000E+00 0. -1.
</event>
<event>
 7    1  0.6070837E-015  0.9000772E+02  0.7816164E-02  0.1186339E+00
        -11   -1    0    0    0    0  0.00000000000E+00  0.00000000000E+00  0.45593999997E+02  0.45594000000E+02  0.51100000000E-03 0. -1.
         11   -1    0    0    0    0 -0.00000000000E+00 -0.00000000000E+00 -0.45593999997E+02  0.45594000000E+02  0.51100000000E-03 0.  1.
    9900012    2    1    2    0    0  0.69329680199E+00  0.51411345532E+00  0.80504065228E+00  0.90007718867E+02  0.89999979956E+02 0.  0.
        -12    1    1    2    0    0 -0.69329680199E+00 -0.51411345532E+00 -0.80504065228E+00  0.11802811328E+01  0.00000000000E+00 0.  1.
         11    1    3    3    0    0  0.24545390433E+02 -0.19026573954E+02  0.20070125250E+02  0.36976974399E+02  0.51100000000E-03 0. -1.
        -11    1    3    3    0    0  0.99649748124E+01  0.88970732096E-01 -0.11953528814E+01  0.10036807639E+02  0.51100000000E-03 0.  1.
        -12    1    3    3    0    0 -0.33817068443E+02  0.19451716677E+02 -0.18069731717E+02  0.42993936829E+02  0.00000000000E+00 0.  1.
</event>
<event>
 7    1  0.4195243E-015  0.9000778E+02  0.7816164E-02  0.1186339E+00
        -11   -1    0    0    0    0  0.00000000000E+00  0.00000000000E+00  0.45593999997E+02  0.45594000000E+02  0.51100000000E-03 0.  1.
         11   -1    0    0    0    0 -0.00000000000E+00 -0.00000000000E+00 -0.45593999997E+02  0.45594000000E+02  0.51100000000E-03 0. -1.
    9900012    2    1    2    0    0 -0.36522062120E+00 -0.71009044177E+00 -0.86908300031E+00  0.90007779767E+02  0.90000041660E+02 0.  0.
        -12    1    1    2    0    0  0.36522062120E+00  0.71009044177E+00  0.86908300031E+00  0.11802202333E+01  0.00000000000E+00 0.  1.
         11    1    3    3    0    0 -0.37846579918E+01  0.93165973851E+01  0.96340728998E+01  0.13926161849E+02  0.51100000000E-03 0. -1.
        -11    1    3    3    0    0 -0.31150988974E+02 -0.22589671519E+02 -0.34991607206E+01  0.38638342348E+02  0.51100000000E-03 0.  1.
         12    1    3    3    0    0  0.34570426345E+02  0.12562983692E+02 -0.70039951796E+01  0.37443275569E+02  0.00000000000E+00 0. -1.
</event>
<event>
 7    1  0.4195243E-015  0.9000875E+02  0.7816164E-02  0.1186337E+00
        -11   -1    0    0    0    0  0.00000000000E+00  0.00000000000E+00  0.45593999997E+02  0.45594000000E+02  0.51100000000E-03 0.  1.
         11   -1    0    0    0    0 -0.00000000000E+00 -0.00000000000E+00 -0.45593999997E+02  0.45594000000E+02  0.51100000000E-03 0. -1.
    9900012    2    1    2    0    0  0.97835151403E+00 -0.10827337782E+00 -0.64940863536E+00  0.90008751771E+02  0.90001026489E+02 0.  0.
        -12    1    1    2    0    0 -0.97835151403E+00  0.10827337782E+00  0.64940863536E+00  0.11792482288E+01  0.00000000000E+00 0.  1.
         11    1    3    3    0    0  0.26026892384E+02  0.10301508452E+01 -0.32426995470E+02  0.41592912538E+02  0.51100000000E-03 0. -1.
        -11    1    3    3    0    0  0.31710935404E+01  0.51410383734E+01  0.11858137636E+02  0.13307950190E+02  0.51100000000E-03 0.  1.
        -12    1    3    3    0    0 -0.28219634410E+02 -0.62794625964E+01  0.19919449198E+02  0.35107889044E+02  0.00000000000E+00 0.  1.
</event>
<event>
 7    1  0.4195243E-015  0.9000761E+02  0.7816164E-02  0.1186339E+00
        -11   -1    0    0    0    0  0.00000000000E+00  0.00000000000E+00  0.45593999997E+02  0.45594000000E+02  0.51100000000E-03 0.  1.
         11   -1    0    0    0    0 -0.00000000000E+00 -0.00000000000E+00 -0.45593999997E+02  0.45594000000E+02  0.51100000000E-03 0. -1.
    9900012    2    1    2    0    0 -0.21930224023E+00  0.40113251909E+00 -0.10882651257E+01  0.90007609491E+02  0.89999869136E+02 0.  0.
        -12    1    1    2    0    0  0.21930224023E+00 -0.40113251909E+00  0.10882651257E+01  0.11803905092E+01  0.00000000000E+00 0.  1.
         11    1    3    3    0    0  0.40261016775E+02 -0.53573891012E+01 -0.35585336856E+01  0.40771488224E+02  0.51100000000E-03 0. -1.
        -11    1    3    3    0    0 -0.66483568137E+00  0.91760715588E+01  0.36582000471E-01  0.92001975109E+01  0.51100000000E-03 0.  1.
        -12    1    3    3    0    0 -0.39815483334E+02 -0.34175499385E+01  0.24336865594E+01  0.40035923756E+02  0.00000000000E+00 0.  1.
</event>
<event>
 7    1  0.4195243E-015  0.9000766E+02  0.7816164E-02  0.1186339E+00
        -11   -1    0    0    0    0  0.00000000000E+00  0.00000000000E+00  0.45593999997E+02  0.45594000000E+02  0.51100000000E-03 0. -1.
         11   -1    0    0    0    0 -0.00000000000E+00 -0.00000000000E+00 -0.45593999997E+02  0.45594000000E+02  0.51100000000E-03 0.  1.
    9900012    2    1    2    0    0  0.68429064972E+00  0.94169185550E+00  0.19533578945E+00  0.90007663898E+02  0.89999924261E+02 0.  0.
        -12    1    1    2    0    0 -0.68429064972E+00 -0.94169185550E+00 -0.19533578945E+00  0.11803361024E+01  0.00000000000E+00 0.  1.
         11    1    3    3    0    0  0.38341785734E+02 -0.85101491076E+01 -0.26406115685E+01  0.39363536437E+02  0.51100000000E-03 0. -1.
        -11    1    3    3    0    0 -0.10512591468E+01 -0.91180266394E+01  0.28037458816E+01  0.95971113790E+01  0.51100000000E-03 0.  1.
        -12    1    3    3    0    0 -0.36606235937E+02  0.18569867603E+02  0.32201476330E-01  0.41047016082E+02  0.00000000000E+00 0.  1.
</event>
<event>
 7    1  0.4195243E-015  0.9000777E+02  0.7816164E-02  0.1186339E+00
        -11   -1    0    0    0    0  0.00000000000E+00  0.00000000000E+00  0.45593999997E+02  0.45594000000E+02  0.51100000000E-03 0. -1.
         11   -1    0    0    0    0 -0.00000000000E+00 -0.00000000000E+00 -0.45593999997E+02  0.45594000000E+02  0.51100000000E-03 0.  1.
    9900012    2    1    2    0    0  0.10421035065E+01 -0.48665661757E+00  0.26480987900E+00  0.90007771779E+02  0.90000033566E+02 0.  0.
        -12    1    1    2    0    0 -0.10421035065E+01  0.48665661757E+00 -0.26480987900E+00  0.11802282210E+01  0.00000000000E+00 0.  1.
         11    1    3    3    0    0 -0.14386776157E+02  0.57841864986E+01  0.26899347861E+02  0.31048527456E+02  0.51100000000E-03 0. -1.
        -11    1    3    3    0    0  0.95923305463E+01 -0.87428652427E+01  0.13265628720E+02  0.18558755442E+02  0.51100000000E-03 0.  1.
        -12    1    3    3    0    0  0.58365491167E+01  0.24720221265E+01 -0.39900166701E+02  0.40400488881E+02  0.00000000000E+00 0.  1.
</event>
<event>
 7    1  0.4195243E-015  0.9000864E+02  0.7816164E-02  0.1186337E+00
        -11   -1    0    0    0    0  0.00000000000E+00  0.00000000000E+00  0.45593999997E+02  0.45594000000E+02  0.51100000000E-03 0.  1.
         11   -1    0    0    0    0 -0.00000000000E+00 -0.00000000000E+00 -0.45593999997E+02  0.45594000000E+02  0.51100000000E-03 0. -1.
    9900012    2    1    2    0    0  0.78677595769E+00  0.63670376789E+00 -0.60537109286E+00  0.90008643287E+02  0.90000916574E+02 0.  0.
        -12    1    1    2    0    0 -0.78677595769E+00 -0.63670376789E+00  0.60537109286E+00  0.11793567127E+01  0.00000000000E+00 0.  1.
         11    1    3    3    0    0 -0.24207686773E+01  0.11926337067E+02  0.60359006292E+00  0.12184496627E+02  0.51100000000E-03 0. -1.
        -11    1    3    3    0    0 -0.28374903724E+02 -0.13668650632E+01  0.23213200252E+02  0.36685912114E+02  0.51100000000E-03 0.  1.
         12    1    3    3    0    0  0.31582448359E+02 -0.99227682362E+01 -0.24422161407E+02  0.41138234547E+02  0.00000000000E+00 0. -1.
</event>
<event>
 7    1  0.4195243E-015  0.9000774E+02  0.7816164E-02  0.1186339E+00
        -11   -1    0    0    0    0  0.00000000000E+00  0.00000000000E+00  0.45593999997E+02  0.45594000000E+02  0.51100000000E-03 0.  1.
         11   -1    0    0    0    0 -0.00000000000E+00 -0.00000000000E+00 -0.45593999997E+02  0.45594000000E+02  0.51100000000E-03 0. -1.
    9900012    2    1    2    0    0 -0.79309205324E+00  0.58110545510E+00 -0.65293653043E+00  0.90007743813E+02  0.90000005231E+02 0.  0.
        -12    1    1    2    0    0  0.79309205324E+00 -0.58110545510E+00  0.65293653043E+00  0.11802561873E+01  0.00000000000E+00 0.  1.
         11    1    3    3    0    0 -0.87692431144E+01  0.72200975982E+00  0.34207275764E+01  0.94404608100E+01  0.51100000000E-03 0. -1.
        -11    1    3    3    0    0 -0.21971958842E+02  0.25767806430E+02  0.14488369047E+02  0.36832861164E+02  0.51100000000E-03 0.  1.
         12    1    3    3    0    0  0.29948109904E+02 -0.25908710735E+02 -0.18562033154E+02  0.43734421839E+02  0.00000000000E+00 0. -1.
</event>
<event>
 8    1  0.4195243E-015  0.9000787E+02  0.7816164E-02  0.1186339E+00
        -11   -1    0    0    0    0  0.00000000000E+00  0.00000000000E+00  0.45593999997E+02  0.45594000000E+02  0.51100000000E-03 0.  1.
         11   -1    0    0    0    0 -0.00000000000E+00 -0.00000000000E+00 -0.45593999997E+02  0.45594000000E+02  0.51100000000E-03 0. -1.
    9900012    2    1    2    0    0  0.38847127546E+00 -0.70998777601E+00  0.85890159807E+00  0.90007870969E+02  0.90000134066E+02 0.  0.
         23    2    3    3    0    0 -0.88705840353E+01 -0.15722948045E+02 -0.21399333981E+02  0.61608079908E+02  0.54879191491E+02 0.  0.
        -12    1    1    2    0    0 -0.38847127546E+00  0.70998777601E+00 -0.85890159807E+00  0.11801290307E+01  0.00000000000E+00 0.  1.
         11    1    4    4    0    0 -0.14736912483E+02 -0.84845810868E+01 -0.38525544381E+02  0.42111545636E+02  0.51100000000E-03 0. -1.
        -11    1    4    4    0    0  0.58663284477E+01 -0.72383669577E+01  0.17126210400E+02  0.19496534272E+02  0.51100000000E-03 0.  1.
        -12    1    3    3    0    0  0.92590553107E+01  0.15012960269E+02  0.22258235579E+02  0.28399791062E+02  0.00000000000E+00 0.  1.
</event>
<event>
 7    1  0.4195243E-015  0.9000765E+02  0.7816164E-02  0.1186339E+00
        -11   -1    0    0    0    0  0.00000000000E+00  0.00000000000E+00  0.45593999997E+02  0.45594000000E+02  0.51100000000E-03 0. -1.
         11   -1    0    0    0    0 -0.00000000000E+00 -0.00000000000E+00 -0.45593999997E+02  0.45594000000E+02  0.51100000000E-03 0.  1.
    9900012    2    1    2    0    0 -0.70260549773E+00  0.75071510578E+00  0.57964447989E+00  0.90007654551E+02  0.89999914791E+02 0.  0.
        -12    1    1    2    0    0  0.70260549773E+00 -0.75071510578E+00 -0.57964447989E+00  0.11803454488E+01  0.00000000000E+00 0.  1.
         11    1    3    3    0    0 -0.64223145179E+01  0.26792679937E+02  0.26999359608E+02  0.38575370918E+02  0.51100000000E-03 0. -1.
        -11    1    3    3    0    0  0.62170298828E+01  0.59906770101E+00  0.65438355774E+01  0.90461111533E+01  0.51100000000E-03 0.  1.
        -12    1    3    3    0    0 -0.49732086259E+00 -0.26641032532E+02 -0.32963550705E+02  0.42386172480E+02  0.00000000000E+00 0.  1.
</event>
<event>
 7    1  0.4195243E-015  0.9000759E+02  0.7816164E-02  0.1186339E+00
        -11   -1    0    0    0    0  0.00000000000E+00  0.00000000000E+00  0.45593999997E+02  0.45594000000E+02  0.51100000000E-03 0.  1.
         11   -1    0    0    0    0 -0.00000000000E+00 -0.00000000000E+00 -0.45593999997E+02  0.45594000000E+02  0.51100000000E-03 0. -1.
    9900012    2    1    2    0    0  0.70385434871E+00 -0.74549790558E+00  0.58496613851E+00  0.90007591827E+02  0.89999851239E+02 0.  0.
        -12    1    1    2    0    0 -0.70385434871E+00  0.74549790558E+00 -0.58496613851E+00  0.11804081729E+01  0.00000000000E+00 0.  1.
         11    1    3    3    0    0  0.81770935018E+01 -0.96069328650E+01 -0.77719562132E+01  0.14817601724E+02  0.51100000000E-03 0. -1.
        -11    1    3    3    0    0  0.24357314576E+02  0.28367952907E+02  0.44498134686E+01  0.37653955511E+02  0.51100000000E-03 0.  1.
         12    1    3    3    0    0 -0.31830553729E+02 -0.19506517947E+02  0.39071088831E+01  0.37536034592E+02  0.00000000000E+00 0. -1.
</event>
<event>
 7    1  0.4195243E-015  0.9000774E+02  0.7816164E-02  0.1186339E+00
        -11   -1    0    0    0    0  0.00000000000E+00  0.00000000000E+00  0.45593999997E+02  0.45594000000E+02  0.51100000000E-03 0.  1.
         11   -1    0    0    0    0 -0.00000000000E+00 -0.00000000000E+00 -0.45593999997E+02  0.45594000000E+02  0.51100000000E-03 0. -1.
    9900012    2    1    2    0    0  0.43596409333E+00 -0.10777466499E+01 -0.20351547974E+00  0.90007736859E+02  0.89999998185E+02 0.  0.
        -12    1    1    2    0    0 -0.43596409333E+00  0.10777466499E+01  0.20351547974E+00  0.11802631412E+01  0.00000000000E+00 0.  1.
         11    1    3    3    0    0 -0.64624249165E+01 -0.26840001165E+02 -0.20103084016E+02  0.34150879718E+02  0.51100000000E-03 0. -1.
        -11    1    3    3    0    0 -0.41902498541E+01 -0.61012828821E+01 -0.88456475686E+01  0.11533834047E+02  0.51100000000E-03 0.  1.
        -12    1    3    3    0    0  0.11088638864E+02  0.31863537397E+02  0.28745216105E+02  0.44323023094E+02  0.00000000000E+00 0.  1.
</event>
<event>
 7    1  0.6835814E-015  0.9000774E+02  0.7816164E-02  0.1186339E+00
        -11   -1    0    0    0    0  0.00000000000E+00  0.00000000000E+00  0.45593999997E+02  0.45594000000E+02  0.51100000000E-03 0.  1.
         11   -1    0    0    0    0 -0.00000000000E+00 -0.00000000000E+00 -0.45593999997E+02  0.45594000000E+02  0.51100000000E-03 0. -1.
    9900012    2    1    2    0    0 -0.81794723467E+00 -0.72371868205E+00 -0.44744284003E+00  0.90007740916E+02  0.90000002296E+02 0.  0.
        -12    1    1    2    0    0  0.81794723467E+00  0.72371868205E+00  0.44744284003E+00  0.11802590836E+01  0.00000000000E+00 0.  1.
         11    1    3    3    0    0  0.14026233561E+02  0.60740282757E+01 -0.35538070372E+02  0.38685701408E+02  0.51100000000E-03 0. -1.
        -11    1    3    3    0    0  0.47519967892E+01 -0.78416973598E+01 -0.19773856080E+01  0.93799650890E+01  0.51100000000E-03 0.  1.
        -12    1    3    3    0    0 -0.19596177585E+02  0.10439504021E+01  0.37068013140E+02  0.41942074419E+02  0.00000000000E+00 0.  1.
</event>
<event>
 7    1  0.4195243E-015  0.9000770E+02  0.7816164E-02  0.1186339E+00
        -11   -1    0    0    0    0  0.00000000000E+00  0.00000000000E+00  0.45593999997E+02  0.45594000000E+02  0.51100000000E-03 0. -1.
         11   -1    0    0    0    0 -0.00000000000E+00 -0.00000000000E+00 -0.45593999997E+02  0.45594000000E+02  0.51100000000E-03 0.  1.
    9900012    2    1    2    0    0 -0.40039663399E+00  0.10901637445E+01  0.21053949108E+00  0.90007702863E+02  0.89999963741E+02 0.  0.
        -12    1    1    2    0    0  0.40039663399E+00 -0.10901637445E+01 -0.21053949108E+00  0.11802971371E+01  0.00000000000E+00 0.  1.
         11    1    3    3    0    0  0.23355401486E+02 -0.28580389257E+02  0.73051930811E+01  0.37625513616E+02  0.51100000000E-03 0. -1.
        -11    1    3    3    0    0 -0.17569278624E+01 -0.56351260468E+01  0.63453856707E+01  0.86663349029E+01  0.51100000000E-03 0.  1.
        -12    1    3    3    0    0 -0.21998870258E+02  0.35305679048E+02 -0.13440039261E+02  0.43715854344E+02  0.00000000000E+00 0.  1.
</event>
<event>
 7    1  0.4195243E-015  0.9000768E+02  0.7816164E-02  0.1186339E+00
        -11   -1    0    0    0    0  0.00000000000E+00  0.00000000000E+00  0.45593999997E+02  0.45594000000E+02  0.51100000000E-03 0. -1.
         11   -1    0    0    0    0 -0.00000000000E+00 -0.00000000000E+00 -0.45593999997E+02  0.45594000000E+02  0.51100000000E-03 0.  1.
    9900012    2    1    2    0    0  0.78840555499E+00 -0.19471265108E-01  0.87816964578E+00  0.90007684629E+02  0.89999945266E+02 0.  0.
        -12    1    1    2    0    0 -0.78840555499E+00  0.19471265108E-01 -0.87816964578E+00  0.11803153714E+01  0.00000000000E+00 0.  1.
         11    1    3    3    0    0 -0.88603002825E+00  0.10956281056E+02 -0.71890614918E+01  0.13134220540E+02  0.51100000000E-03 0. -1.
        -11    1    3    3    0    0 -0.35581638741E+01 -0.28093806605E+02 -0.25965507609E+02  0.38420438381E+02  0.51100000000E-03 0.  1.
         12    1    3    3    0    0  0.52325994573E+01  0.17118054284E+02  0.34032738746E+02  0.38453025708E+02  0.00000000000E+00 0. -1.
</event>
<event>
 7    1  0.4195243E-015  0.9000770E+02  0.7816164E-02  0.1186339E+00
        -11   -1    0    0    0    0  0.00000000000E+00  0.00000000000E+00  0.45593999997E+02  0.45594000000E+02  0.51100000000E-03 0.  1.
         11   -1    0    0    0    0 -0.00000000000E+00 -0.00000000000E+00 -0.45593999997E+02  0.45594000000E+02  0.51100000000E-03 0. -1.
    9900012    2    1    2    0    0 -0.10842392149E+01 -0.35671134411E+00 -0.30050020826E+00  0.90007695788E+02  0.89999956572E+02 0.  0.
        -12    1    1    2    0    0  0.10842392149E+01  0.35671134411E+00  0.30050020826E+00  0.11803042122E+01  0.00000000000E+00 0.  1.
         11    1    3    3    0    0  0.51302585182E+01  0.24504740570E+01  0.67181802500E+01  0.88010409441E+01  0.51100000000E-03 0. -1.
        -11    1    3    3    0    0  0.15616851182E+02 -0.59928840052E-01  0.32453677066E+02  0.36015701960E+02  0.51100000000E-03 0.  1.
         12    1    3    3    0    0 -0.21831348915E+02 -0.27472565610E+01 -0.39472357524E+02  0.45190952884E+02  0.00000000000E+00 0. -1.
</event>
<event>
 7    1  0.4195243E-015  0.9000769E+02  0.7816164E-02  0.1186339E+00
        -11   -1    0    0    0    0  0.00000000000E+00  0.00000000000E+00  0.45593999997E+02  0.45594000000E+02  0.51100000000E-03 0.  1.
         11   -1    0    0    0    0 -0.00000000000E+00 -0.00000000000E+00 -0.45593999997E+02  0.45594000000E+02  0.51100000000E-03 0. -1.
    9900012    2    1    2    0    0  0.67409022460E+00 -0.92407137980E-02 -0.96883861423E+00  0.90007690175E+02  0.89999950886E+02 0.  0.
        -12    1    1    2    0    0 -0.67409022460E+00  0.92407137980E-02  0.96883861423E+00  0.11803098246E+01  0.00000000000E+00 0.  1.
         11    1    3    3    0    0  0.15966773107E+00  0.90035462531E+01  0.51379054102E+01  0.10367613572E+02  0.51100000000E-03 0. -1.
        -11    1    3    3    0    0 -0.33451349800E+01  0.32527851082E+02  0.11070689610E+02  0.34522618567E+02  0.51100000000E-03 0.  1.
         12    1    3    3    0    0  0.38595574735E+01 -0.41540638049E+02 -0.17177433634E+02  0.45117458036E+02  0.00000000000E+00 0. -1.
</event>
<event>
 7    1  0.4195243E-015  0.9000769E+02  0.7816164E-02  0.1186339E+00
        -11   -1    0    0    0    0  0.00000000000E+00  0.00000000000E+00  0.45593999997E+02  0.45594000000E+02  0.51100000000E-03 0. -1.
         11   -1    0    0    0    0 -0.00000000000E+00 -0.00000000000E+00 -0.45593999997E+02  0.45594000000E+02  0.51100000000E-03 0.  1.
    9900012    2    1    2    0    0  0.10488098166E+01  0.30692179402E+00  0.44600898219E+00  0.90007691976E+02  0.89999952710E+02 0.  0.
        -12    1    1    2    0    0 -0.10488098166E+01 -0.30692179402E+00 -0.44600898219E+00  0.11803080239E+01  0.00000000000E+00 0.  1.
         11    1    3    3    0    0  0.25975494212E+02  0.61493862347E+01 -0.27629483455E+02  0.38417829284E+02  0.51100000000E-03 0. -1.
        -11    1    3    3    0    0  0.84833857406E+01 -0.35155551946E+01  0.27012874607E+01  0.95720382446E+01  0.51100000000E-03 0.  1.
        -12    1    3    3    0    0 -0.33410070136E+02 -0.23269092460E+01  0.25374204977E+02  0.42017824448E+02  0.00000000000E+00 0.  1.
</event>
<event>
 7    1  0.4195243E-015  0.9000776E+02  0.7816164E-02  0.1186339E+00
        -11   -1    0    0    0    0  0.00000000000E+00  0.00000000000E+00  0.45593999997E+02  0.45594000000E+02  0.51100000000E-03 0.  1.
         11   -1    0    0    0    0 -0.00000000000E+00 -0.00000000000E+00 -0.45593999997E+02  0.45594000000E+02  0.51100000000E-03 0. -1.
    9900012    2    1    2    0    0  0.11674803543E+01 -0.63168073042E-01 -0.16115894493E+00  0.90007757318E+02  0.90000018915E+02 0.  0.
        -12    1    1    2    0    0 -0.11674803543E+01  0.63168073042E-01  0.16115894493E+00  0.11802426821E+01  0.00000000000E+00 0.  1.
         11    1    3    3    0    0 -0.13725400200E+01  0.79003604744E+01  0.21028239786E+01  0.82898390020E+01  0.51100000000E-03 0. -1.
        -11    1    3    3    0    0 -0.21963673703E+01  0.31306758416E+02  0.19123488881E+02  0.36751122152E+02  0.51100000000E-03 0.  1.
         12    1    3    3    0    0  0.47363877446E+01 -0.39270286964E+02 -0.21387471805E+02  0.44966796164E+02  0.00000000000E+00 0. -1.
</event>
<event>
 7    1  0.4195243E-015  0.9000779E+02  0.7816164E-02  0.1186339E+00
        -11   -1    0    0    0    0  0.00000000000E+00  0.00000000000E+00  0.45593999997E+02  0.45594000000E+02  0.51100000000E-03 0. -1.
         11   -1    0    0    0    0 -0.00000000000E+00 -0.00000000000E+00 -0.45593999997E+02  0.45594000000E+02  0.51100000000E-03 0.  1.
    9900012    2    1    2    0    0  0.11109403421E+01  0.17369988612E+00  0.35851912254E+00  0.90007789826E+02  0.90000051851E+02 0.  0.
        -12    1    1    2    0    0 -0.11109403421E+01 -0.17369988612E+00 -0.35851912254E+00  0.11802101742E+01  0.00000000000E+00 0.  1.
         11    1    3    3    0    0 -0.12415386732E+02 -0.95698481916E+01  0.37165330213E+02  0.40335909463E+02  0.51100000000E-03 0. -1.
        -11    1    3    3    0    0 -0.33970746253E+01 -0.76529945665E+01 -0.53331241637E+01  0.99272682774E+01  0.51100000000E-03 0.  1.
        -12    1    3    3    0    0  0.16923401699E+02  0.17396542644E+02 -0.31473686927E+02  0.39744612085E+02  0.00000000000E+00 0.  1.
</event>
<event>
 7    1  0.4195243E-015  0.9000776E+02  0.7816164E-02  0.1186339E+00
        -11   -1    0    0    0    0  0.00000000000E+00  0.00000000000E+00  0.45593999997E+02  0.45594000000E+02  0.51100000000E-03 0. -1.
         11   -1    0    0    0    0 -0.00000000000E+00 -0.00000000000E+00 -0.45593999997E+02  0.45594000000E+02  0.51100000000E-03 0.  1.
    9900012    2    1    2    0    0  0.83387285655E+00  0.23102172007E+00  0.80265870789E+00  0.90007755967E+02  0.90000017546E+02 0.  0.
        -12    1    1    2    0    0 -0.83387285655E+00 -0.23102172007E+00 -0.80265870789E+00  0.11802440330E+01  0.00000000000E+00 0.  1.
         11    1    3    3    0    0 -0.69035632507E+01  0.19353790142E+02  0.30369263367E+02  0.36667704266E+02  0.51100000000E-03 0. -1.
        -11    1    3    3    0    0 -0.94407171114E+01  0.98424722756E-01  0.46299947436E+01  0.10515401970E+02  0.51100000000E-03 0.  1.
        -12    1    3    3    0    0  0.17178153219E+02 -0.19221193145E+02 -0.34196599402E+02  0.42824649731E+02  0.00000000000E+00 0.  1.
</event>
<event>
 7    1  0.4195243E-015  0.9000776E+02  0.7816164E-02  0.1186339E+00
        -11   -1    0    0    0    0  0.00000000000E+00  0.00000000000E+00  0.45593999997E+02  0.45594000000E+02  0.51100000000E-03 0.  1.
         11   -1    0    0    0    0 -0.00000000000E+00 -0.00000000000E+00 -0.45593999997E+02  0.45594000000E+02  0.51100000000E-03 0. -1.
    9900012    2    1    2    0    0  0.36654857753E+00  0.23181223029E+00 -0.10976709358E+01  0.90007755850E+02  0.90000017427E+02 0.  0.
        -12    1    1    2    0    0 -0.36654857753E+00 -0.23181223029E+00  0.10976709358E+01  0.11802441497E+01  0.00000000000E+00 0.  1.
         11    1    3    3    0    0  0.25840075157E+01  0.31227870672E+01 -0.69055399160E+01  0.80072077343E+01  0.51100000000E-03 0. -1.
        -11    1    3    3    0    0 -0.30974037196E+02  0.25684555108E+02  0.93373809158E+01  0.41307070024E+02  0.51100000000E-03 0.  1.
         12    1    3    3    0    0  0.28756578258E+02 -0.28575529945E+02 -0.35295119356E+01  0.40693478092E+02  0.00000000000E+00 0. -1.
</event>
<event>
 7    1  0.4195243E-015  0.9000775E+02  0.7816164E-02  0.1186339E+00
        -11   -1    0    0    0    0  0.00000000000E+00  0.00000000000E+00  0.45593999997E+02  0.45594000000E+02  0.51100000000E-03 0. -1.
         11   -1    0    0    0    0 -0.00000000000E+00 -0.00000000000E+00 -0.45593999997E+02  0.45594000000E+02  0.51100000000E-03 0.  1.
    9900012    2    1    2    0    0  0.50674674800E+00 -0.10527761546E+01 -0.16691852161E+00  0.90007749310E+02  0.90000010801E+02 0.  0.
        -12    1    1    2    0    0 -0.50674674800E+00  0.10527761546E+01  0.16691852161E+00  0.11802506900E+01  0.00000000000E+00 0.  1.
         11    1    3    3    0    0  0.18795867168E+02 -0.95187203198E+01  0.32036169668E+02  0.38343276156E+02  0.51100000000E-03 0. -1.
        -11    1    3    3    0    0  0.42756831520E+01 -0.45182884767E+01  0.37589844686E+01  0.72681745762E+01  0.51100000000E-03 0.  1.
        -12    1    3    3    0    0 -0.22564803572E+02  0.12984232642E+02 -0.35962072658E+02  0.44396298578E+02  0.00000000000E+00 0.  1.
</event>
<event>
 7    1  0.4195243E-015  0.9000772E+02  0.7816164E-02  0.1186339E+00
        -11   -1    0    0    0    0  0.00000000000E+00  0.00000000000E+00  0.45593999997E+02  0.45594000000E+02  0.51100000000E-03 0.  1.
         11   -1    0    0    0    0 -0.00000000000E+00 -0.00000000000E+00 -0.45593999997E+02  0.45594000000E+02  0.51100000000E-03 0. -1.
    9900012    2    1    2    0    0 -0.58236565181E+00 -0.76962676197E+00 -0.67939599289E+00  0.90007722905E+02  0.89999984048E+02 0.  0.
        -12    1    1    2    0    0  0.58236565181E+00  0.76962676197E+00  0.67939599289E+00  0.11802770947E+01  0.00000000000E+00 0.  1.
         11    1    3    3    0    0 -0.10991631064E+01  0.43031704879E+01 -0.48731759589E+01  0.65934270277E+01  0.51100000000E-03 0. -1.
        -11    1    3    3    0    0 -0.18447631251E+02  0.24217937059E+02  0.27847231690E+02  0.41258840110E+02  0.51100000000E-03 0.  1.
         12    1    3    3    0    0  0.18964428705E+02 -0.29290734309E+02 -0.23653451724E+02  0.42155455767E+02  0.00000000000E+00 0. -1.
</event>
<event>
 7    1  0.4195243E-015  0.9000775E+02  0.7816164E-02  0.1186339E+00
        -11   -1    0    0    0    0  0.00000000000E+00  0.00000000000E+00  0.45593999997E+02  0.45594000000E+02  0.51100000000E-03 0.  1.
         11   -1    0    0    0    0 -0.00000000000E+00 -0.00000000000E+00 -0.45593999997E+02  0.45594000000E+02  0.51100000000E-03 0. -1.
    9900012    2    1    2    0    0 -0.18538519257E+00 -0.97370225803E+00 -0.64071841695E+00  0.90007752633E+02  0.90000014168E+02 0.  0.
        -12    1    1    2    0    0  0.18538519257E+00  0.97370225803E+00  0.64071841695E+00  0.11802473668E+01  0.00000000000E+00 0.  1.
         11    1    3    3    0    0 -0.30028283690E+02 -0.28668519587E+02 -0.10466448222E+02  0.42815048468E+02  0.51100000000E-03 0. -1.
        -11    1    3    3    0    0  0.96889285894E+01 -0.60579980641E+00 -0.29948084900E+01  0.10159291745E+02  0.51100000000E-03 0.  1.
        -12    1    3    3    0    0  0.20153969908E+02  0.28300617135E+02  0.12820538295E+02  0.37033412420E+02  0.00000000000E+00 0.  1.
</event>
<event>
 7    1  0.4195243E-015  0.9000776E+02  0.7816164E-02  0.1186339E+00
        -11   -1    0    0    0    0  0.00000000000E+00  0.00000000000E+00  0.45593999997E+02  0.45594000000E+02  0.51100000000E-03 0.  1.
         11   -1    0    0    0    0 -0.00000000000E+00 -0.00000000000E+00 -0.45593999997E+02  0.45594000000E+02  0.51100000000E-03 0. -1.
    9900012    2    1    2    0    0 -0.10044172672E+00  0.10628108254E+01  0.50330629475E+00  0.90007757390E+02  0.90000018988E+02 0.  0.
        -12    1    1    2    0    0  0.10044172672E+00 -0.10628108254E+01 -0.50330629475E+00  0.11802426096E+01  0.00000000000E+00 0.  1.
         11    1    3    3    0    0  0.94623785832E+01  0.40853617856E+00  0.13521232102E+01  0.95672225697E+01  0.51100000000E-03 0. -1.
        -11    1    3    3    0    0  0.59901430363E+01  0.36450217045E+02  0.12800042618E+02  0.39094005007E+02  0.51100000000E-03 0.  1.
         12    1    3    3    0    0 -0.15552963346E+02 -0.35795942399E+02 -0.13648859533E+02  0.41346529813E+02  0.00000000000E+00 0. -1.
</event>
<event>
 7    1  0.4195243E-015  0.9000766E+02  0.7816164E-02  0.1186339E+00
        -11   -1    0    0    0    0  0.00000000000E+00  0.00000000000E+00  0.45593999997E+02  0.45594000000E+02  0.51100000000E-03 0.  1.
         11   -1    0    0    0    0 -0.00000000000E+00 -0.00000000000E+00 -0.45593999997E+02  0.45594000000E+02  0.51100000000E-03 0. -1.
    9900012    2    1    2    0    0  0.49240980452E+00  0.57985960778E+00 -0.90249529586E+00  0.90007660075E+02  0.89999920388E+02 0.  0.
        -12    1    1    2    0    0 -0.49240980452E+00 -0.57985960778E+00  0.90249529586E+00  0.11803399253E+01  0.00000000000E+00 0.  1.
         11    1    3    3    0    0  0.29608205142E+01  0.90209532095E+01 -0.26978228575E+01  0.98702737225E+01  0.51100000000E-03 0. -1.
        -11    1    3    3    0    0 -0.36540414121E+02 -0.15468909533E-01  0.18848783489E+02  0.41115431929E+02  0.51100000000E-03 0.  1.
         12    1    3    3    0    0  0.34072003412E+02 -0.84256246922E+01 -0.17053455927E+02  0.39021954423E+02  0.00000000000E+00 0. -1.
</event>
<event>
 7    1  0.4195243E-015  0.9000773E+02  0.7816164E-02  0.1186339E+00
        -11   -1    0    0    0    0  0.00000000000E+00  0.00000000000E+00  0.45593999997E+02  0.45594000000E+02  0.51100000000E-03 0.  1.
         11   -1    0    0    0    0 -0.00000000000E+00 -0.00000000000E+00 -0.45593999997E+02  0.45594000000E+02  0.51100000000E-03 0. -1.
    9900012    2    1    2    0    0 -0.15385254789E-01  0.68275846551E+00 -0.96262264201E+00  0.90007729616E+02  0.89999990847E+02 0.  0.
        -12    1    1    2    0    0  0.15385254789E-01 -0.68275846551E+00  0.96262264201E+00  0.11802703839E+01  0.00000000000E+00 0.  1.
         11    1    3    3    0    0  0.20083302742E+02  0.30694001805E+02  0.77829371207E+01  0.37497131975E+02  0.51100000000E-03 0. -1.
        -11    1    3    3    0    0  0.43774966650E+01 -0.57568008391E+01  0.10722311297E+02  0.12933336490E+02  0.51100000000E-03 0.  1.
        -12    1    3    3    0    0 -0.24476184662E+02 -0.24254442501E+02 -0.19467871060E+02  0.39577261151E+02  0.00000000000E+00 0.  1.
</event>
<event>
 7    1  0.4195243E-015  0.9000770E+02  0.7816164E-02  0.1186339E+00
        -11   -1    0    0    0    0  0.00000000000E+00  0.00000000000E+00  0.45593999997E+02  0.45594000000E+02  0.51100000000E-03 0. -1.
         11   -1    0    0    0    0 -0.00000000000E+00 -0.00000000000E+00 -0.45593999997E+02  0.45594000000E+02  0.51100000000E-03 0.  1.
    9900012    2    1    2    0    0 -0.29302011027E+00 -0.69135999189E+00  0.91064811589E+00  0.90007695203E+02  0.89999955979E+02 0.  0.
        -12    1    1    2    0    0  0.29302011027E+00  0.69135999189E+00 -0.91064811589E+00  0.11803047972E+01  0.00000000000E+00 0.  1.
         11    1    3    3    0    0 -0.75122454744E+01  0.52265848536E+01 -0.33479132447E+01  0.97447188084E+01  0.51100000000E-03 0. -1.
        -11    1    3    3    0    0 -0.13224981102E+02 -0.11086796336E+02 -0.33119969454E+02  0.37346345939E+02  0.51100000000E-03 0.  1.
         12    1    3    3    0    0  0.20444206466E+02  0.51688514903E+01  0.37378530814E+02  0.42916630455E+02  0.00000000000E+00 0. -1.
</event>
<event>
 7    1  0.4195243E-015  0.9000773E+02  0.7816164E-02  0.1186339E+00
        -11   -1    0    0    0    0  0.00000000000E+00  0.00000000000E+00  0.45593999997E+02  0.45594000000E+02  0.51100000000E-03 0.  1.
         11   -1    0    0    0    0 -0.00000000000E+00 -0.00000000000E+00 -0.45593999997E+02  0.45594000000E+02  0.51100000000E-03 0. -1.
    9900012    2    1    2    0    0 -0.42608506473E+00 -0.10982749141E+01 -0.72732081431E-01  0.90007726208E+02  0.89999987394E+02 0.  0.
        -12    1    1    2    0    0  0.42608506473E+00  0.10982749141E+01  0.72732081431E-01  0.11802737924E+01  0.00000000000E+00 0.  1.
         11    1    3    3    0    0 -0.28609926224E+01  0.11435215490E+02 -0.99448138712E+01  0.15422345972E+02  0.51100000000E-03 0. -1.
        -11    1    3    3    0    0 -0.72623384092E+01 -0.19998078990E+02  0.38201039271E+02  0.43726240681E+02  0.51100000000E-03 0.  1.
         12    1    3    3    0    0  0.96972459669E+01  0.74645885852E+01 -0.28328957481E+02  0.30859139555E+02  0.00000000000E+00 0. -1.
</event>
<event>
 7    1  0.4195243E-015  0.9000783E+02  0.7816164E-02  0.1186339E+00
        -11   -1    0    0    0    0  0.00000000000E+00  0.00000000000E+00  0.45593999997E+02  0.45594000000E+02  0.51100000000E-03 0.  1.
         11   -1    0    0    0    0 -0.00000000000E+00 -0.00000000000E+00 -0.45593999997E+02  0.45594000000E+02  0.51100000000E-03 0. -1.
    9900012    2    1    2    0    0 -0.95826913318E+00 -0.67017246885E+00 -0.15934737438E+00  0.90007829480E+02  0.90000092029E+02 0.  0.
        -12    1    1    2    0    0  0.95826913318E+00  0.67017246885E+00  0.15934737438E+00  0.11801705196E+01  0.00000000000E+00 0.  1.
         11    1    3    3    0    0  0.12030304399E+01 -0.39110263105E+01  0.70804733772E+01  0.81778060962E+01  0.51100000000E-03 0. -1.
        -11    1    3    3    0    0 -0.12934519128E+02 -0.93400989730E+01  0.33907887130E+02  0.37473778083E+02  0.51100000000E-03 0.  1.
         12    1    3    3    0    0  0.10773219555E+02  0.12580952815E+02 -0.41147707882E+02  0.44356245301E+02  0.00000000000E+00 0. -1.
</event>
<event>
 7    1  0.4195243E-015  0.9000774E+02  0.7816164E-02  0.1186339E+00
        -11   -1    0    0    0    0  0.00000000000E+00  0.00000000000E+00  0.45593999997E+02  0.45594000000E+02  0.51100000000E-03 0.  1.
         11   -1    0    0    0    0 -0.00000000000E+00 -0.00000000000E+00 -0.45593999997E+02  0.45594000000E+02  0.51100000000E-03 0. -1.
    9900012    2    1    2    0    0 -0.25416413082E+00  0.72774757567E+00 -0.89375400484E+00  0.90007740638E+02  0.90000002015E+02 0.  0.
        -12    1    1    2    0    0  0.25416413082E+00 -0.72774757567E+00  0.89375400484E+00  0.11802593615E+01  0.00000000000E+00 0.  1.
         11    1    3    3    0    0 -0.44716574026E+01  0.34848007386E+02 -0.27091804879E+02  0.44366036904E+02  0.51100000000E-03 0. -1.
        -11    1    3    3    0    0  0.27143795879E+01 -0.82999714121E+01 -0.13188780863E+00  0.87335431896E+01  0.51100000000E-03 0.  1.
        -12    1    3    3    0    0  0.15031136838E+01 -0.25820288399E+02  0.26329938683E+02  0.36908160545E+02  0.00000000000E+00 0.  1.
</event>
<event>
 7    1  0.4195243E-015  0.9000764E+02  0.7816164E-02  0.1186339E+00
        -11   -1    0    0    0    0  0.00000000000E+00  0.00000000000E+00  0.45593999997E+02  0.45594000000E+02  0.51100000000E-03 0. -1.
         11   -1    0    0    0    0 -0.00000000000E+00 -0.00000000000E+00 -0.45593999997E+02  0.45594000000E+02  0.51100000000E-03 0.  1.
    9900012    2    1    2    0    0 -0.60162092440E+00  0.35639878453E+00  0.95094110582E+00  0.90007636998E+02  0.89999897006E+02 0.  0.
        -12    1    1    2    0    0  0.60162092440E+00 -0.35639878453E+00 -0.95094110582E+00  0.11803630022E+01  0.00000000000E+00 0.  1.
         11    1    3    3    0    0  0.64606379662E+01  0.32895983099E+01 -0.44110678774E+01  0.84863902839E+01  0.51100000000E-03 0. -1.
        -11    1    3    3    0    0 -0.43143297605E+02 -0.59158221445E+01 -0.50776326761E+01  0.43842028166E+02  0.51100000000E-03 0.  1.
         12    1    3    3    0    0  0.36081038714E+02  0.29826226192E+01  0.10439641659E+02  0.37679218548E+02  0.00000000000E+00 0. -1.
</event>
<event>
 7    1  0.4195243E-015  0.9000776E+02  0.7816164E-02  0.1186339E+00
        -11   -1    0    0    0    0  0.00000000000E+00  0.00000000000E+00  0.45593999997E+02  0.45594000000E+02  0.51100000000E-03 0.  1.
         11   -1    0    0    0    0 -0.00000000000E+00 -0.00000000000E+00 -0.45593999997E+02  0.45594000000E+02  0.51100000000E-03 0. -1.
    9900012    2    1    2    0    0 -0.26352450764E+00  0.11411254795E+01  0.14609894561E+00  0.90007763825E+02  0.90000025508E+02 0.  0.
        -12    1    1    2    0    0  0.26352450764E+00 -0.11411254795E+01 -0.14609894561E+00  0.11802361747E+01  0.00000000000E+00 0.  1.
         11    1    3    3    0    0  0.33701749044E+01  0.44953865225E+01 -0.65849521901E+01  0.86561061962E+01  0.51100000000E-03 0. -1.
        -11    1    3    3    0    0  0.26830908540E+02 -0.94111111466E+01  0.30902963868E+02  0.41993569058E+02  0.51100000000E-03 0.  1.
         12    1    3    3    0    0 -0.30464607952E+02  0.60568501036E+01 -0.24171912732E+02  0.39358088571E+02  0.00000000000E+00 0. -1.
</event>
<event>
 7    1  0.4195243E-015  0.9000770E+02  0.7816164E-02  0.1186339E+00
        -11   -1    0    0    0    0  0.00000000000E+00  0.00000000000E+00  0.45593999997E+02  0.45594000000E+02  0.51100000000E-03 0. -1.
         11   -1    0    0    0    0 -0.00000000000E+00 -0.00000000000E+00 -0.45593999997E+02  0.45594000000E+02  0.51100000000E-03 0.  1.
    9900012    2    1    2    0    0 -0.39011240790E+00  0.81393641022E+00  0.76054041863E+00  0.90007702623E+02  0.89999963497E+02 0.  0.
        -12    1    1    2    0    0  0.39011240790E+00 -0.81393641022E+00 -0.76054041863E+00  0.11802973774E+01  0.00000000000E+00 0.  1.
         11    1    3    3    0    0  0.89311922800E+01 -0.32446759228E+01 -0.45517528234E+00  0.95132172363E+01  0.51100000000E-03 0. -1.
        -11    1    3    3    0    0  0.11434361019E+02  0.70293863613E+01 -0.35644635763E+02  0.38088015746E+02  0.51100000000E-03 0.  1.
         12    1    3    3    0    0 -0.20755665707E+02 -0.29707740282E+01  0.36860351464E+02  0.42406469640E+02  0.00000000000E+00 0. -1.
</event>
<event>
 7    1  0.4195243E-015  0.9000771E+02  0.7816164E-02  0.1186339E+00
        -11   -1    0    0    0    0  0.00000000000E+00  0.00000000000E+00  0.45593999997E+02  0.45594000000E+02  0.51100000000E-03 0. -1.
         11   -1    0    0    0    0 -0.00000000000E+00 -0.00000000000E+00 -0.45593999997E+02  0.45594000000E+02  0.51100000000E-03 0.  1.
    9900012    2    1    2    0    0 -0.69819737883E+00  0.87649631750E+00  0.37060862227E+00  0.90007713541E+02  0.89999974560E+02 0.  0.
        -12    1    1    2    0    0  0.69819737883E+00 -0.87649631750E+00 -0.37060862227E+00  0.11802864590E+01  0.00000000000E+00 0.  1.
         11    1    3    3    0    0 -0.14072834306E+01  0.45707412073E+01  0.45545408460E+01  0.66042383676E+01  0.51100000000E-03 0. -1.
        -11    1    3    3    0    0  0.32848926414E+02  0.23920571675E+02  0.14217825262E+01  0.40660388361E+02  0.51100000000E-03 0.  1.
         12    1    3    3    0    0 -0.32139840362E+02 -0.27614816565E+02 -0.56057147499E+01  0.42743086813E+02  0.00000000000E+00 0. -1.
</event>
<event>
 7    1  0.4195243E-015  0.9000774E+02  0.7816164E-02  0.1186339E+00
        -11   -1    0    0    0    0  0.00000000000E+00  0.00000000000E+00  0.45593999997E+02  0.45594000000E+02  0.51100000000E-03 0.  1.
         11   -1    0    0    0    0 -0.00000000000E+00 -0.00000000000E+00 -0.45593999997E+02  0.45594000000E+02  0.51100000000E-03 0. -1.
    9900012    2    1    2    0    0 -0.75226017861E+00 -0.70167728739E+00  0.57858389656E+00  0.90007743368E+02  0.90000004780E+02 0.  0.
        -12    1    1    2    0    0  0.75226017861E+00  0.70167728739E+00 -0.57858389656E+00  0.11802566320E+01  0.00000000000E+00 0.  1.
         11    1    3    3    0    0 -0.34832787832E+02  0.11594738728E+00 -0.10140136127E+02  0.36278904515E+02  0.51100000000E-03 0. -1.
        -11    1    3    3    0    0 -0.82079053929E+01 -0.47430328180E+01 -0.13541092665E+01  0.95759951660E+01  0.51100000000E-03 0.  1.
        -12    1    3    3    0    0  0.42288433046E+02  0.39254081433E+01  0.12072829290E+02  0.44152843687E+02  0.00000000000E+00 0.  1.
</event>
<event>
 7    1  0.4195243E-015  0.9000774E+02  0.7816164E-02  0.1186339E+00
        -11   -1    0    0    0    0  0.00000000000E+00  0.00000000000E+00  0.45593999997E+02  0.45594000000E+02  0.51100000000E-03 0.  1.
         11   -1    0    0    0    0 -0.00000000000E+00 -0.00000000000E+00 -0.45593999997E+02  0.45594000000E+02  0.51100000000E-03 0. -1.
    9900012    2    1    2    0    0  0.57000462389E+00  0.91370732234E+00 -0.48295627878E+00  0.90007740236E+02  0.90000001608E+02 0.  0.
        -12    1    1    2    0    0 -0.57000462389E+00 -0.91370732234E+00  0.48295627878E+00  0.11802597635E+01  0.00000000000E+00 0.  1.
         11    1    3    3    0    0 -0.35129371554E+02  0.17364429603E+02 -0.12736678143E+02  0.41204600855E+02  0.51100000000E-03 0. -1.
        -11    1    3    3    0    0  0.92722942720E+00 -0.11822559740E+02  0.73524108824E+00  0.11881635112E+02  0.51100000000E-03 0.  1.
        -12    1    3    3    0    0  0.34772146750E+02 -0.46281625406E+01  0.11518480776E+02  0.36921504270E+02  0.00000000000E+00 0.  1.
</event>
<event>
 7    1  0.5382647E-015  0.9000774E+02  0.7816164E-02  0.1186339E+00
        -11   -1    0    0    0    0  0.00000000000E+00  0.00000000000E+00  0.45593999997E+02  0.45594000000E+02  0.51100000000E-03 0. -1.
         11   -1    0    0    0    0 -0.00000000000E+00 -0.00000000000E+00 -0.45593999997E+02  0.45594000000E+02  0.51100000000E-03 0.  1.
    9900012    2    1    2    0    0  0.89065413861E+00  0.33125556871E+00  0.70001617103E+00  0.90007738298E+02  0.89999999643E+02 0.  0.
        -12    1    1    2    0    0 -0.89065413861E+00 -0.33125556871E+00 -0.70001617103E+00  0.11802617024E+01  0.00000000000E+00 0.  1.
         11    1    3    3    0    0  0.20578851385E+02 -0.29015988949E+02  0.62544023168E+01  0.36118337276E+02  0.51100000000E-03 0. -1.
        -11    1    3    3    0    0  0.16427455845E+01 -0.80147175358E+01  0.50040493073E+01  0.95903503567E+01  0.51100000000E-03 0.  1.
        -12    1    3    3    0    0 -0.21330942831E+02  0.37361962054E+02 -0.10558435453E+02  0.44299050664E+02  0.00000000000E+00 0.  1.
</event>
<event>
 7    1  0.4195243E-015  0.9000779E+02  0.7816164E-02  0.1186339E+00
        -11   -1    0    0    0    0  0.00000000000E+00  0.00000000000E+00  0.45593999997E+02  0.45594000000E+02  0.51100000000E-03 0.  1.
         11   -1    0    0    0    0 -0.00000000000E+00 -0.00000000000E+00 -0.45593999997E+02  0.45594000000E+02  0.51100000000E-03 0. -1.
    9900012    2    1    2    0    0 -0.89897918353E-01 -0.11747173370E+01  0.69610860212E-01  0.90007793184E+02  0.90000055254E+02 0.  0.
        -12    1    1    2    0    0  0.89897918353E-01  0.11747173370E+01 -0.69610860212E-01  0.11802068164E+01  0.00000000000E+00 0.  1.
         11    1    3    3    0    0 -0.74883282665E+01 -0.31622147269E+01  0.38228553738E+01  0.89826992422E+01  0.51100000000E-03 0. -1.
        -11    1    3    3    0    0  0.26016974122E+02 -0.32568953719E+02 -0.20515154518E+01  0.41735217799E+02  0.51100000000E-03 0.  1.
         12    1    3    3    0    0 -0.18618543774E+02  0.34556451109E+02 -0.17017290618E+01  0.39289876143E+02  0.00000000000E+00 0. -1.
</event>
<event>
 7    1  0.4195243E-015  0.9000775E+02  0.7816164E-02  0.1186339E+00
        -11   -1    0    0    0    0  0.00000000000E+00  0.00000000000E+00  0.45593999997E+02  0.45594000000E+02  0.51100000000E-03 0.  1.
         11   -1    0    0    0    0 -0.00000000000E+00 -0.00000000000E+00 -0.45593999997E+02  0.45594000000E+02  0.51100000000E-03 0. -1.
    9900012    2    1    2    0    0 -0.82669566683E+00 -0.84223282312E+00  0.14244691556E-01  0.90007752244E+02  0.90000013774E+02 0.  0.
        -12    1    1    2    0    0  0.82669566683E+00  0.84223282312E+00 -0.14244691556E-01  0.11802477558E+01  0.00000000000E+00 0.  1.
         11    1    3    3    0    0  0.11587575333E+01 -0.13980661627E+02 -0.24747139615E+02  0.28446837046E+02  0.51100000000E-03 0. -1.
        -11    1    3    3    0    0  0.80637347664E+00 -0.59566392884E+01 -0.15657341121E+02  0.16771527093E+02  0.51100000000E-03 0.  1.
        -12    1    3    3    0    0 -0.27918266768E+01  0.19095068092E+02  0.40418725428E+02  0.44789388105E+02  0.00000000000E+00 0.  1.
</event>
<event>
 7    1  0.4195243E-015  0.9000780E+02  0.7816164E-02  0.1186339E+00
        -11   -1    0    0    0    0  0.00000000000E+00  0.00000000000E+00  0.45593999997E+02  0.45594000000E+02  0.51100000000E-03 0.  1.
         11   -1    0    0    0    0 -0.00000000000E+00 -0.00000000000E+00 -0.45593999997E+02  0.45594000000E+02  0.51100000000E-03 0. -1.
    9900012    2    1    2    0    0 -0.39948607615E+00 -0.55385669091E+00 -0.96255996923E+00  0.90007801689E+02  0.90000063871E+02 0.  0.
        -12    1    1    2    0    0  0.39948607615E+00  0.55385669091E+00  0.96255996923E+00  0.11801983111E+01  0.00000000000E+00 0.  1.
         11    1    3    3    0    0  0.30796526332E+02 -0.29069757962E+02 -0.10245621357E+02  0.43571201720E+02  0.51100000000E-03 0. -1.
        -11    1    3    3    0    0 -0.89039025681E+01  0.10266759761E+01 -0.21988388506E+01  0.92286747182E+01  0.51100000000E-03 0.  1.
        -12    1    3    3    0    0 -0.22292109840E+02  0.27489225295E+02  0.11481900238E+02  0.37207925251E+02  0.00000000000E+00 0.  1.
</event>
<event>
 7    1  0.4195243E-015  0.9000774E+02  0.7816164E-02  0.1186339E+00
        -11   -1    0    0    0    0  0.00000000000E+00  0.00000000000E+00  0.45593999997E+02  0.45594000000E+02  0.51100000000E-03 0.  1.
         11   -1    0    0    0    0 -0.00000000000E+00 -0.00000000000E+00 -0.45593999997E+02  0.45594000000E+02  0.51100000000E-03 0. -1.
    9900012    2    1    2    0    0  0.63888368376E+00 -0.96576717207E+00 -0.22834556501E+00  0.90007737195E+02  0.89999998526E+02 0.  0.
        -12    1    1    2    0    0 -0.63888368376E+00  0.96576717207E+00  0.22834556501E+00  0.11802628051E+01  0.00000000000E+00 0.  1.
         11    1    3    3    0    0 -0.38465203520E+00 -0.10578943266E+02 -0.62418980380E+00  0.10604320393E+02  0.51100000000E-03 0. -1.
        -11    1    3    3    0    0  0.34267207620E+02 -0.13638946431E+00 -0.19525845235E+02  0.39440065322E+02  0.51100000000E-03 0.  1.
         12    1    3    3    0    0 -0.33243671901E+02  0.97495655583E+01  0.19921689474E+02  0.39963351481E+02  0.00000000000E+00 0. -1.
</event>
<event>
 7    1  0.4195243E-015  0.9000779E+02  0.7816164E-02  0.1186339E+00
        -11   -1    0    0    0    0  0.00000000000E+00  0.00000000000E+00  0.45593999997E+02  0.45594000000E+02  0.51100000000E-03 0.  1.
         11   -1    0    0    0    0 -0.00000000000E+00 -0.00000000000E+00 -0.45593999997E+02  0.45594000000E+02  0.51100000000E-03 0. -1.
    9900012    2    1    2    0    0  0.49603383804E-01 -0.88508907498E+00 -0.77913454164E+00  0.90007790781E+02  0.90000052819E+02 0.  0.
        -12    1    1    2    0    0 -0.49603383804E-01  0.88508907498E+00  0.77913454164E+00  0.11802092189E+01  0.00000000000E+00 0.  1.
         11    1    3    3    0    0 -0.51873099195E+01  0.38205544937E+01 -0.12107545954E+01  0.65552076849E+01  0.51100000000E-03 0. -1.
        -11    1    3    3    0    0 -0.11873790890E+02  0.30078352359E+02  0.21981195848E+02  0.39100730964E+02  0.51100000000E-03 0.  1.
         12    1    3    3    0    0  0.17110704193E+02 -0.34783995928E+02 -0.21549575794E+02  0.44351852133E+02  0.00000000000E+00 0. -1.
</event>
<event>
 7    1  0.4195243E-015  0.9000796E+02  0.7816164E-02  0.1186339E+00
        -11   -1    0    0    0    0  0.00000000000E+00  0.00000000000E+00  0.45593999997E+02  0.45594000000E+02  0.51100000000E-03 0.  1.
         11   -1    0    0    0    0 -0.00000000000E+00 -0.00000000000E+00 -0.45593999997E+02  0.45594000000E+02  0.51100000000E-03 0. -1.
    9900012    2    1    2    0    0 -0.46481087539E+00 -0.49174814461E+00 -0.96676180403E+00  0.90007960266E+02  0.90000224541E+02 0.  0.
        -12    1    1    2    0    0  0.46481087539E+00  0.49174814461E+00  0.96676180403E+00  0.11800397338E+01  0.00000000000E+00 0.  1.
         11    1    3    3    0    0  0.55096176617E+01  0.64657209219E+01 -0.26945691739E+01  0.89119098465E+01  0.51100000000E-03 0. -1.
        -11    1    3    3    0    0  0.89971016728E+01  0.80899489962E+01  0.37553260771E+02  0.39454309119E+02  0.51100000000E-03 0.  1.
         12    1    3    3    0    0 -0.14971530210E+02 -0.15047418063E+02 -0.35825453401E+02  0.41641741301E+02  0.00000000000E+00 0. -1.
</event>
<event>
 7    1  0.4195243E-015  0.9000774E+02  0.7816164E-02  0.1186339E+00
        -11   -1    0    0    0    0  0.00000000000E+00  0.00000000000E+00  0.45593999997E+02  0.45594000000E+02  0.51100000000E-03 0. -1.
         11   -1    0    0    0    0 -0.00000000000E+00 -0.00000000000E+00 -0.45593999997E+02  0.45594000000E+02  0.51100000000E-03 0.  1.
    9900012    2    1    2    0    0 -0.64063083014E+00 -0.94875796566E+00  0.28717527408E+00  0.90007737666E+02  0.89999999004E+02 0.  0.
        -12    1    1    2    0    0  0.64063083014E+00  0.94875796566E+00 -0.28717527408E+00  0.11802623335E+01  0.00000000000E+00 0.  1.
         11    1    3    3    0    0 -0.40248269187E+01  0.62071077088E+01  0.28576260832E+01  0.79305387538E+01  0.51100000000E-03 0. -1.
        -11    1    3    3    0    0 -0.35888652668E+02 -0.40272847463E+01 -0.17265062636E+02  0.40028699714E+02  0.51100000000E-03 0.  1.
         12    1    3    3    0    0  0.39272848757E+02 -0.31285809281E+01  0.14694611827E+02  0.42048499198E+02  0.00000000000E+00 0. -1.
</event>
<event>
 7    1  0.4195243E-015  0.9000769E+02  0.7816164E-02  0.1186339E+00
        -11   -1    0    0    0    0  0.00000000000E+00  0.00000000000E+00  0.45593999997E+02  0.45594000000E+02  0.51100000000E-03 0. -1.
         11   -1    0    0    0    0 -0.00000000000E+00 -0.00000000000E+00 -0.45593999997E+02  0.45594000000E+02  0.51100000000E-03 0.  1.
    9900012    2    1    2    0    0  0.22946288648E+00 -0.10784329087E+01 -0.42125686288E+00  0.90007691524E+02  0.89999952252E+02 0.  0.
        -12    1    1    2    0    0 -0.22946288648E+00  0.10784329087E+01  0.42125686288E+00  0.11803084763E+01  0.00000000000E+00 0.  1.
         11    1    3    3    0    0 -0.90926131621E+00  0.10335500091E+02 -0.78818167898E+01  0.13029672077E+02  0.51100000000E-03 0. -1.
        -11    1    3    3    0    0 -0.16831549999E+02 -0.23866873114E+00 -0.29743566188E+02  0.34176567528E+02  0.51100000000E-03 0.  1.
         12    1    3    3    0    0  0.17970274202E+02 -0.11175264269E+02  0.37204126115E+02  0.42801451919E+02  0.00000000000E+00 0. -1.
</event>
<event>
 7    1  0.4195243E-015  0.9000774E+02  0.7816164E-02  0.1186339E+00
        -11   -1    0    0    0    0  0.00000000000E+00  0.00000000000E+00  0.45593999997E+02  0.45594000000E+02  0.51100000000E-03 0.  1.
         11   -1    0    0    0    0 -0.00000000000E+00 -0.00000000000E+00 -0.45593999997E+02  0.45594000000E+02  0.51100000000E-03 0. -1.
    9900012    2    1    2    0    0 -0.17030840113E-01 -0.98794705138E-02 -0.11800956541E+01  0.90007740111E+02  0.90000001480E+02 0.  0.
        -12    1    1    2    0    0  0.17030840113E-01  0.98794705138E-02  0.11800956541E+01  0.11802598893E+01  0.00000000000E+00 0.  1.
         11    1    3    3    0    0 -0.66247407880E+01 -0.88887002343E+01  0.80093617664E+00  0.11114750622E+02  0.51100000000E-03 0. -1.
        -11    1    3    3    0    0  0.22038740422E+02 -0.17525517538E+02 -0.27277888232E+02  0.39203737462E+02  0.51100000000E-03 0.  1.
         12    1    3    3    0    0 -0.15431030474E+02  0.26404338302E+02  0.25296856401E+02  0.39689252027E+02  0.00000000000E+00 0. -1.
</event>
<event>
 7    1  0.4195243E-015  0.9000772E+02  0.7816164E-02  0.1186339E+00
        -11   -1    0    0    0    0  0.00000000000E+00  0.00000000000E+00  0.45593999997E+02  0.45594000000E+02  0.51100000000E-03 0.  1.
         11   -1    0    0    0    0 -0.00000000000E+00 -0.00000000000E+00 -0.45593999997E+02  0.45594000000E+02  0.51100000000E-03 0. -1.
    9900012    2    1    2    0    0  0.58089816078E+00 -0.51132231168E+00 -0.89116678034E+00  0.90007715539E+02  0.89999976584E+02 0.  0.
        -12    1    1    2    0    0 -0.58089816078E+00  0.51132231168E+00  0.89116678034E+00  0.11802844615E+01  0.00000000000E+00 0.  1.
         11    1    3    3    0    0 -0.27106444911E+01 -0.10227671979E+02 -0.37584562604E+02  0.39045514647E+02  0.51100000000E-03 0. -1.
        -11    1    3    3    0    0  0.52171391973E+01 -0.68211226021E+01 -0.20187439573E+01  0.88216541750E+01  0.51100000000E-03 0.  1.
        -12    1    3    3    0    0 -0.19255965454E+01  0.16537472270E+02  0.38712139781E+02  0.42140546716E+02  0.00000000000E+00 0.  1.
</event>
<event>
 7    1  0.4195243E-015  0.9000772E+02  0.7816164E-02  0.1186339E+00
        -11   -1    0    0    0    0  0.00000000000E+00  0.00000000000E+00  0.45593999997E+02  0.45594000000E+02  0.51100000000E-03 0. -1.
         11   -1    0    0    0    0 -0.00000000000E+00 -0.00000000000E+00 -0.45593999997E+02  0.45594000000E+02  0.51100000000E-03 0.  1.
    9900012    2    1    2    0    0  0.72561392480E+00  0.85523308280E+00  0.36758371948E+00  0.90007721650E+02  0.89999982775E+02 0.  0.
        -12    1    1    2    0    0 -0.72561392480E+00 -0.85523308280E+00 -0.36758371948E+00  0.11802783505E+01  0.00000000000E+00 0.  1.
         11    1    3    3    0    0  0.58106843224E+01 -0.29856151947E+01 -0.63106915081E+01  0.90831039825E+01  0.51100000000E-03 0. -1.
        -11    1    3    3    0    0  0.30436229302E+02  0.23122610502E+02  0.12220320324E+02  0.40129233729E+02  0.51100000000E-03 0.  1.
         12    1    3    3    0    0 -0.35521299699E+02 -0.19281762225E+02 -0.55420450968E+01  0.40795383938E+02  0.00000000000E+00 0. -1.
</event>
<event>
 7    1  0.4195243E-015  0.9000758E+02  0.7816164E-02  0.1186339E+00
        -11   -1    0    0    0    0  0.00000000000E+00  0.00000000000E+00  0.45593999997E+02  0.45594000000E+02  0.51100000000E-03 0. -1.
         11   -1    0    0    0    0 -0.00000000000E+00 -0.00000000000E+00 -0.45593999997E+02  0.45594000000E+02  0.51100000000E-03 0.  1.
    9900012    2    1    2    0    0  0.75830209282E-01  0.65049021911E+00  0.98208832917E+00  0.90007582603E+02  0.89999841893E+02 0.  0.
        -12    1    1    2    0    0 -0.75830209282E-01 -0.65049021911E+00 -0.98208832917E+00  0.11804173974E+01  0.00000000000E+00 0.  1.
         11    1    3    3    0    0  0.86402610453E+01 -0.59318073292E+01  0.16152203390E+01  0.10604215489E+02  0.51100000000E-03 0. -1.
        -11    1    3    3    0    0  0.10292357377E+02 -0.33484679849E+02  0.15713186866E+01  0.35066015566E+02  0.51100000000E-03 0.  1.
         12    1    3    3    0    0 -0.18856788213E+02  0.40066977397E+02 -0.22044506964E+01  0.44337351549E+02  0.00000000000E+00 0. -1.
</event>
<event>
 7    1  0.4195243E-015  0.9000773E+02  0.7816164E-02  0.1186339E+00
        -11   -1    0    0    0    0  0.00000000000E+00  0.00000000000E+00  0.45593999997E+02  0.45594000000E+02  0.51100000000E-03 0. -1.
         11   -1    0    0    0    0 -0.00000000000E+00 -0.00000000000E+00 -0.45593999997E+02  0.45594000000E+02  0.51100000000E-03 0.  1.
    9900012    2    1    2    0    0  0.73332521110E-01  0.11078150512E+01 -0.40049286755E+00  0.90007734613E+02  0.89999995910E+02 0.  0.
        -12    1    1    2    0    0 -0.73332521110E-01 -0.11078150512E+01  0.40049286755E+00  0.11802653868E+01  0.00000000000E+00 0.  1.
         11    1    3    3    0    0 -0.94980642450E+00  0.50205777667E+01  0.10294220877E+02  0.11492576608E+02  0.51100000000E-03 0. -1.
        -11    1    3    3    0    0  0.11191074165E+02 -0.62756414018E+01 -0.42838565152E+02  0.44718748646E+02  0.51100000000E-03 0.  1.
         12    1    3    3    0    0 -0.10167935220E+02  0.23628786863E+01  0.32143851407E+02  0.33796409359E+02  0.00000000000E+00 0. -1.
</event>
<event>
 7    1  0.4195243E-015  0.9000799E+02  0.7816164E-02  0.1186339E+00
        -11   -1    0    0    0    0  0.00000000000E+00  0.00000000000E+00  0.45593999997E+02  0.45594000000E+02  0.51100000000E-03 0.  1.
         11   -1    0    0    0    0 -0.00000000000E+00 -0.00000000000E+00 -0.45593999997E+02  0.45594000000E+02  0.51100000000E-03 0. -1.
    9900012    2    1    2    0    0  0.11549294675E+01 -0.23401806815E+00  0.61641358710E-01  0.90007988903E+02  0.90000253557E+02 0.  0.
        -12    1    1    2    0    0 -0.11549294675E+01  0.23401806815E+00 -0.61641358710E-01  0.11800110966E+01  0.00000000000E+00 0.  1.
         11    1    3    3    0    0  0.84097800754E+00 -0.10936006537E+01  0.80045566740E+01  0.81225694338E+01  0.51100000000E-03 0. -1.
        -11    1    3    3    0    0 -0.22267094878E+02 -0.74934672566E+01  0.29288658953E+02  0.37547318271E+02  0.51100000000E-03 0.  1.
         12    1    3    3    0    0  0.22581046337E+02  0.83530498422E+01 -0.37231574269E+02  0.44338101198E+02  0.00000000000E+00 0. -1.
</event>
<event>
 7    1  0.4195243E-015  0.9000771E+02  0.7816164E-02  0.1186339E+00
        -11   -1    0    0    0    0  0.00000000000E+00  0.00000000000E+00  0.45593999997E+02  0.45594000000E+02  0.51100000000E-03 0. -1.
         11   -1    0    0    0    0 -0.00000000000E+00 -0.00000000000E+00 -0.45593999997E+02  0.45594000000E+02  0.51100000000E-03 0.  1.
    9900012    2    1    2    0    0 -0.96081046144E+00 -0.65274622281E+00 -0.20941915849E+00  0.90007707342E+02  0.89999968279E+02 0.  0.
        -12    1    1    2    0    0  0.96081046144E+00  0.65274622281E+00  0.20941915849E+00  0.11802926578E+01  0.00000000000E+00 0.  1.
         11    1    3    3    0    0 -0.14190888494E+02  0.21678850140E+02  0.32983923948E+02  0.41943928034E+02  0.51100000000E-03 0. -1.
        -11    1    3    3    0    0  0.59010606719E+01  0.41616614957E+01 -0.79996667849E+01  0.10776669819E+02  0.51100000000E-03 0.  1.
        -12    1    3    3    0    0  0.73290173611E+01 -0.26493257859E+02 -0.25193676322E+02  0.37287109489E+02  0.00000000000E+00 0.  1.
</event>
<event>
 7    1  0.4195243E-015  0.9000777E+02  0.7816164E-02  0.1186339E+00
        -11   -1    0    0    0    0  0.00000000000E+00  0.00000000000E+00  0.45593999997E+02  0.45594000000E+02  0.51100000000E-03 0.  1.
         11   -1    0    0    0    0 -0.00000000000E+00 -0.00000000000E+00 -0.45593999997E+02  0.45594000000E+02  0.51100000000E-03 0. -1.
    9900012    2    1    2    0    0 -0.70940225898E+00 -0.44118076224E+00  0.83370406842E+00  0.90007765064E+02  0.90000026763E+02 0.  0.
        -12    1    1    2    0    0  0.70940225898E+00  0.44118076224E+00 -0.83370406842E+00  0.11802349358E+01  0.00000000000E+00 0.  1.
         11    1    3    3    0    0 -0.25362657883E+02 -0.23074821654E+02 -0.16533494112E+02  0.38066628916E+02  0.51100000000E-03 0. -1.
        -11    1    3    3    0    0 -0.11355704140E+01 -0.50353550197E+01 -0.56591506095E+01  0.76596544453E+01  0.51100000000E-03 0.  1.
        -12    1    3    3    0    0  0.25788826038E+02  0.27668995911E+02  0.23026348790E+02  0.44281481702E+02  0.00000000000E+00 0.  1.
</event>
<event>
 7    1  0.4195243E-015  0.9000773E+02  0.7816164E-02  0.1186339E+00
        -11   -1    0    0    0    0  0.00000000000E+00  0.00000000000E+00  0.45593999997E+02  0.45594000000E+02  0.51100000000E-03 0. -1.
         11   -1    0    0    0    0 -0.00000000000E+00 -0.00000000000E+00 -0.45593999997E+02  0.45594000000E+02  0.51100000000E-03 0.  1.
    9900012    2    1    2    0    0  0.22911919372E+00 -0.58125164469E+00  0.10013377249E+01  0.90007734641E+02  0.89999995938E+02 0.  0.
        -12    1    1    2    0    0 -0.22911919372E+00  0.58125164469E+00 -0.10013377249E+01  0.11802653594E+01  0.00000000000E+00 0.  1.
         11    1    3    3    0    0 -0.34656129807E+02  0.13279056340E+02 -0.52904287032E+01  0.37488255583E+02  0.51100000000E-03 0. -1.
        -11    1    3    3    0    0  0.15536991903E+01  0.10610728332E+02  0.22061723715E+00  0.10726146052E+02  0.51100000000E-03 0.  1.
        -12    1    3    3    0    0  0.33331549811E+02 -0.24471036317E+02  0.60711491910E+01  0.41793333006E+02  0.00000000000E+00 0.  1.
</event>
<event>
 7    1  0.4195243E-015  0.9000777E+02  0.7816164E-02  0.1186339E+00
        -11   -1    0    0    0    0  0.00000000000E+00  0.00000000000E+00  0.45593999997E+02  0.45594000000E+02  0.51100000000E-03 0.  1.
         11   -1    0    0    0    0 -0.00000000000E+00 -0.00000000000E+00 -0.45593999997E+02  0.45594000000E+02  0.51100000000E-03 0. -1.
    9900012    2    1    2    0    0 -0.61986690600E-01 -0.19618044352E+00 -0.11621590808E+01  0.90007770003E+02  0.90000031767E+02 0.  0.
        -12    1    1    2    0    0  0.61986690600E-01  0.19618044352E+00  0.11621590808E+01  0.11802299968E+01  0.00000000000E+00 0.  1.
         11    1    3    3    0    0 -0.49963791334E+01  0.75297510791E+01  0.92852782908E+00  0.90842236844E+01  0.51100000000E-03 0. -1.
        -11    1    3    3    0    0  0.34328392393E+02 -0.73632921211E+00  0.23268717562E+02  0.41477872682E+02  0.51100000000E-03 0.  1.
         12    1    3    3    0    0 -0.29393999950E+02 -0.69896023105E+01 -0.25359404472E+02  0.39445673637E+02  0.00000000000E+00 0. -1.
</event>
<event>
 7    1  0.4195243E-015  0.9000773E+02  0.7816164E-02  0.1186339E+00
        -11   -1    0    0    0    0  0.00000000000E+00  0.00000000000E+00  0.45593999997E+02  0.45594000000E+02  0.51100000000E-03 0. -1.
         11   -1    0    0    0    0 -0.00000000000E+00 -0.00000000000E+00 -0.45593999997E+02  0.45594000000E+02  0.51100000000E-03 0.  1.
    9900012    2    1    2    0    0 -0.27380339194E+00 -0.10098336838E+00  0.11436213425E+01  0.90007730661E+02  0.89999991905E+02 0.  0.
        -12    1    1    2    0    0  0.27380339194E+00  0.10098336838E+00 -0.11436213425E+01  0.11802693393E+01  0.00000000000E+00 0.  1.
         11    1    3    3    0    0  0.33810279262E+01 -0.82168558957E+01 -0.52029764526E+01  0.10296554515E+02  0.51100000000E-03 0. -1.
        -11    1    3    3    0    0 -0.38714024675E+02 -0.46589511632E+00 -0.10150876225E+02  0.40025405097E+02  0.51100000000E-03 0.  1.
         12    1    3    3    0    0  0.35059193357E+02  0.85817676436E+01  0.16497474020E+02  0.39685771049E+02  0.00000000000E+00 0. -1.
</event>
<event>
 7    1  0.4195243E-015  0.9000771E+02  0.7816164E-02  0.1186339E+00
        -11   -1    0    0    0    0  0.00000000000E+00  0.00000000000E+00  0.45593999997E+02  0.45594000000E+02  0.51100000000E-03 0.  1.
         11   -1    0    0    0    0 -0.00000000000E+00 -0.00000000000E+00 -0.45593999997E+02  0.45594000000E+02  0.51100000000E-03 0. -1.
    9900012    2    1    2    0    0  0.10671171746E+01  0.24452468949E+00  0.44107246526E+00  0.90007713464E+02  0.89999974481E+02 0.  0.
        -12    1    1    2    0    0 -0.10671171746E+01 -0.24452468949E+00 -0.44107246526E+00  0.11802865363E+01  0.00000000000E+00 0.  1.
         11    1    3    3    0    0 -0.36533556160E+02 -0.90081243923E+01 -0.18923917991E+01  0.37675299305E+02  0.51100000000E-03 0. -1.
        -11    1    3    3    0    0 -0.43585168921E+01  0.71313366924E+01 -0.49195239043E+01  0.96981621056E+01  0.51100000000E-03 0.  1.
        -12    1    3    3    0    0  0.41959190227E+02  0.21213123894E+01  0.72529881687E+01  0.42634252053E+02  0.00000000000E+00 0.  1.
</event>
<event>
 7    1  0.4195243E-015  0.9000779E+02  0.7816164E-02  0.1186339E+00
        -11   -1    0    0    0    0  0.00000000000E+00  0.00000000000E+00  0.45593999997E+02  0.45594000000E+02  0.51100000000E-03 0.  1.
         11   -1    0    0    0    0 -0.00000000000E+00 -0.00000000000E+00 -0.45593999997E+02  0.45594000000E+02  0.51100000000E-03 0. -1.
    9900012    2    1    2    0    0  0.86837473843E+00 -0.22685782134E+00 -0.76639737150E+00  0.90007786423E+02  0.90000048403E+02 0.  0.
        -12    1    1    2    0    0 -0.86837473843E+00  0.22685782134E+00  0.76639737150E+00  0.11802135775E+01  0.00000000000E+00 0.  1.
         11    1    3    3    0    0  0.30162839087E+02 -0.28502189078E+02 -0.12721060107E+02  0.43405034437E+02  0.51100000000E-03 0. -1.
        -11    1    3    3    0    0 -0.38281067770E+01 -0.24313436594E+01 -0.10290680050E+01  0.46502488865E+01  0.51100000000E-03 0.  1.
        -12    1    3    3    0    0 -0.25466357571E+02  0.30706674916E+02  0.12983730740E+02  0.41952503099E+02  0.00000000000E+00 0.  1.
</event>
<event>
 7    1  0.4195243E-015  0.9000852E+02  0.7816164E-02  0.1186337E+00
        -11   -1    0    0    0    0  0.00000000000E+00  0.00000000000E+00  0.45593999997E+02  0.45594000000E+02  0.51100000000E-03 0.  1.
         11   -1    0    0    0    0 -0.00000000000E+00 -0.00000000000E+00 -0.45593999997E+02  0.45594000000E+02  0.51100000000E-03 0. -1.
    9900012    2    1    2    0    0  0.21352901585E+00 -0.24500291926E+00 -0.11338184608E+01  0.90008523263E+02  0.90000794967E+02 0.  0.
        -12    1    1    2    0    0 -0.21352901585E+00  0.24500291926E+00  0.11338184608E+01  0.11794767370E+01  0.00000000000E+00 0.  1.
         11    1    3    3    0    0 -0.66250765823E+00 -0.57019545849E+00  0.11838012639E+02  0.11870239373E+02  0.51100000000E-03 0. -1.
        -11    1    3    3    0    0  0.28258539969E+02  0.17952549537E+02  0.13571875747E+02  0.36125267163E+02  0.51100000000E-03 0.  1.
         12    1    3    3    0    0 -0.27382503295E+02 -0.17627356997E+02 -0.26543706847E+02  0.42013016728E+02  0.00000000000E+00 0. -1.
</event>
<event>
 7    1  0.4195243E-015  0.9000775E+02  0.7816164E-02  0.1186339E+00
        -11   -1    0    0    0    0  0.00000000000E+00  0.00000000000E+00  0.45593999997E+02  0.45594000000E+02  0.51100000000E-03 0.  1.
         11   -1    0    0    0    0 -0.00000000000E+00 -0.00000000000E+00 -0.45593999997E+02  0.45594000000E+02  0.51100000000E-03 0. -1.
    9900012    2    1    2    0    0 -0.22689259623E-03  0.91549302616E+00 -0.74488444869E+00  0.90007754104E+02  0.90000015658E+02 0.  0.
        -12    1    1    2    0    0  0.22689259623E-03 -0.91549302616E+00  0.74488444869E+00  0.11802458957E+01  0.00000000000E+00 0.  1.
         11    1    3    3    0    0 -0.66088834005E+00  0.13202603531E+01 -0.97512051004E+01  0.98623456626E+01  0.51100000000E-03 0. -1.
        -11    1    3    3    0    0 -0.27236454283E+02 -0.47007026618E+01 -0.24078339101E+02  0.36656342719E+02  0.51100000000E-03 0.  1.
         12    1    3    3    0    0  0.27897115730E+02  0.42959353348E+01  0.33084659753E+02  0.43489065723E+02  0.00000000000E+00 0. -1.
</event>
<event>
 7    1  0.4195243E-015  0.9000777E+02  0.7816164E-02  0.1186339E+00
        -11   -1    0    0    0    0  0.00000000000E+00  0.00000000000E+00  0.45593999997E+02  0.45594000000E+02  0.51100000000E-03 0. -1.
         11   -1    0    0    0    0 -0.00000000000E+00 -0.00000000000E+00 -0.45593999997E+02  0.45594000000E+02  0.51100000000E-03 0.  1.
    9900012    2    1    2    0    0 -0.99221872738E+00  0.20038885272E+00  0.60687268884E+00  0.90007767753E+02  0.90000029488E+02 0.  0.
        -12    1    1    2    0    0  0.99221872738E+00 -0.20038885272E+00 -0.60687268884E+00  0.11802322465E+01  0.00000000000E+00 0.  1.
         11    1    3    3    0    0 -0.12510473130E+02 -0.33681399455E+02  0.43440462132E+01  0.36191426401E+02  0.51100000000E-03 0. -1.
        -11    1    3    3    0    0 -0.29636631918E+01 -0.83621143830E+01 -0.21614107577E+01  0.91312624097E+01  0.51100000000E-03 0.  1.
        -12    1    3    3    0    0  0.14481917595E+02  0.42243902691E+02 -0.15757627666E+01  0.44685078942E+02  0.00000000000E+00 0.  1.
</event>
<event>
 7    1  0.4195243E-015  0.9000788E+02  0.7816164E-02  0.1186339E+00
        -11   -1    0    0    0    0  0.00000000000E+00  0.00000000000E+00  0.45593999997E+02  0.45594000000E+02  0.51100000000E-03 0. -1.
         11   -1    0    0    0    0 -0.00000000000E+00 -0.00000000000E+00 -0.45593999997E+02  0.45594000000E+02  0.51100000000E-03 0.  1.
    9900012    2    1    2    0    0  0.18762350063E-01  0.11589436677E+01 -0.22178783275E+00  0.90007876153E+02  0.90000139318E+02 0.  0.
        -12    1    1    2    0    0 -0.18762350063E-01 -0.11589436677E+01  0.22178783275E+00  0.11801238466E+01  0.00000000000E+00 0.  1.
         11    1    3    3    0    0 -0.32067187429E+02 -0.22572772603E+02  0.55552880276E+01  0.39606764548E+02  0.51100000000E-03 0. -1.
        -11    1    3    3    0    0 -0.52365332032E+01  0.44126360582E+01 -0.48019304436E+01  0.83636817979E+01  0.51100000000E-03 0.  1.
        -12    1    3    3    0    0  0.37322482983E+02  0.19319080213E+02 -0.97514541673E+00  0.42037429808E+02  0.00000000000E+00 0.  1.
</event>
<event>
 7    1  0.4195243E-015  0.9000754E+02  0.7816164E-02  0.1186339E+00
        -11   -1    0    0    0    0  0.00000000000E+00  0.00000000000E+00  0.45593999997E+02  0.45594000000E+02  0.51100000000E-03 0.  1.
         11   -1    0    0    0    0 -0.00000000000E+00 -0.00000000000E+00 -0.45593999997E+02  0.45594000000E+02  0.51100000000E-03 0. -1.
    9900012    2    1    2    0    0  0.46808892830E+00 -0.85619700116E+00 -0.66431508474E+00  0.90007536074E+02  0.89999794750E+02 0.  0.
        -12    1    1    2    0    0 -0.46808892830E+00  0.85619700116E+00  0.66431508474E+00  0.11804639263E+01  0.00000000000E+00 0.  1.
         11    1    3    3    0    0  0.10386791333E+02  0.33218660954E+02 -0.26925206033E+02  0.44003767906E+02  0.51100000000E-03 0. -1.
        -11    1    3    3    0    0 -0.20330982848E+01 -0.30865154523E+01  0.88595206447E+01  0.95995402280E+01  0.51100000000E-03 0.  1.
        -12    1    3    3    0    0 -0.78856041200E+01 -0.30988342503E+02  0.17401370303E+02  0.36404227939E+02  0.00000000000E+00 0.  1.
</event>
<event>
 7    1  0.4195243E-015  0.9000778E+02  0.7816164E-02  0.1186339E+00
        -11   -1    0    0    0    0  0.00000000000E+00  0.00000000000E+00  0.45593999997E+02  0.45594000000E+02  0.51100000000E-03 0. -1.
         11   -1    0    0    0    0 -0.00000000000E+00 -0.00000000000E+00 -0.45593999997E+02  0.45594000000E+02  0.51100000000E-03 0.  1.
    9900012    2    1    2    0    0 -0.10853001268E+00 -0.11527250243E+01  0.22885500168E+00  0.90007776141E+02  0.90000037986E+02 0.  0.
        -12    1    1    2    0    0  0.10853001268E+00  0.11527250243E+01 -0.22885500168E+00  0.11802238589E+01  0.00000000000E+00 0.  1.
         11    1    3    3    0    0 -0.79985001029E+01 -0.16829520480E+00 -0.60909683577E+01  0.10055059571E+02  0.51100000000E-03 0. -1.
        -11    1    3    3    0    0 -0.32898935203E+02 -0.12835754770E+01 -0.12257288604E+02  0.35131590167E+02  0.51100000000E-03 0.  1.
         12    1    3    3    0    0  0.40788905293E+02  0.29914565757E+00  0.18577111963E+02  0.44821126403E+02  0.00000000000E+00 0. -1.
</event>
<event>
 7    1  0.4195243E-015  0.9000780E+02  0.7816164E-02  0.1186339E+00
        -11   -1    0    0    0    0  0.00000000000E+00  0.00000000000E+00  0.45593999997E+02  0.45594000000E+02  0.51100000000E-03 0. -1.
         11   -1    0    0    0    0 -0.00000000000E+00 -0.00000000000E+00 -0.45593999997E+02  0.45594000000E+02  0.51100000000E-03 0.  1.
    9900012    2    1    2    0    0 -0.45946652693E-01  0.47294584298E+00  0.10803142056E+01  0.90007801861E+02  0.90000064045E+02 0.  0.
        -12    1    1    2    0    0  0.45946652693E-01 -0.47294584298E+00 -0.10803142056E+01  0.11801981393E+01  0.00000000000E+00 0.  1.
         11    1    3    3    0    0  0.12018680252E+02  0.66609024238E+00 -0.26132212863E+01  0.12317519108E+02  0.51100000000E-03 0. -1.
        -11    1    3    3    0    0 -0.23638594743E+02  0.67505114049E+01 -0.31523142664E+02  0.39975756270E+02  0.51100000000E-03 0.  1.
         12    1    3    3    0    0  0.11573967838E+02 -0.69436558043E+01  0.35216678156E+02  0.37714526483E+02  0.00000000000E+00 0. -1.
</event>
<event>
 7    1  0.4195243E-015  0.9000778E+02  0.7816164E-02  0.1186339E+00
        -11   -1    0    0    0    0  0.00000000000E+00  0.00000000000E+00  0.45593999997E+02  0.45594000000E+02  0.51100000000E-03 0. -1.
         11   -1    0    0    0    0 -0.00000000000E+00 -0.00000000000E+00 -0.45593999997E+02  0.45594000000E+02  0.51100000000E-03 0.  1.
    9900012    2    1    2    0    0 -0.87420915157E+00  0.52496140094E+00  0.59421998977E+00  0.90007778195E+02  0.90000040067E+02 0.  0.
        -12    1    1    2    0    0  0.87420915157E+00 -0.52496140094E+00 -0.59421998977E+00  0.11802218052E+01  0.00000000000E+00 0.  1.
         11    1    3    3    0    0  0.73135080080E+01 -0.52569153778E+01 -0.20216969026E+01  0.92309163846E+01  0.51100000000E-03 0. -1.
        -11    1    3    3    0    0 -0.30384705830E+02 -0.25513947624E+02 -0.90090065605E+01  0.40686042707E+02  0.51100000000E-03 0.  1.
         12    1    3    3    0    0  0.22196988670E+02  0.31295824402E+02  0.11624923453E+02  0.40090819103E+02  0.00000000000E+00 0. -1.
</event>
<event>
 7    1  0.4195243E-015  0.9000790E+02  0.7816164E-02  0.1186339E+00
        -11   -1    0    0    0    0  0.00000000000E+00  0.00000000000E+00  0.45593999997E+02  0.45594000000E+02  0.51100000000E-03 0.  1.
         11   -1    0    0    0    0 -0.00000000000E+00 -0.00000000000E+00 -0.45593999997E+02  0.45594000000E+02  0.51100000000E-03 0. -1.
    9900012    2    1    2    0    0  0.81579793318E+00  0.82680324110E+00 -0.20860136421E+00  0.90007896447E+02  0.90000159880E+02 0.  0.
        -12    1    1    2    0    0 -0.81579793318E+00 -0.82680324110E+00  0.20860136421E+00  0.11801035533E+01  0.00000000000E+00 0.  1.
         11    1    3    3    0    0 -0.75776952716E+01  0.66026625353E+01 -0.38382092322E+02  0.39676209868E+02  0.51100000000E-03 0. -1.
        -11    1    3    3    0    0  0.61356382799E+01 -0.83246943347E+01 -0.15548142544E+01  0.10457726354E+02  0.51100000000E-03 0.  1.
        -12    1    3    3    0    0  0.22578549249E+01  0.25488350405E+01  0.39728305213E+02  0.39873960225E+02  0.00000000000E+00 0.  1.
</event>
<event>
 7    1  0.4195243E-015  0.9000779E+02  0.7816164E-02  0.1186339E+00
        -11   -1    0    0    0    0  0.00000000000E+00  0.00000000000E+00  0.45593999997E+02  0.45594000000E+02  0.51100000000E-03 0.  1.
         11   -1    0    0    0    0 -0.00000000000E+00 -0.00000000000E+00 -0.45593999997E+02  0.45594000000E+02  0.51100000000E-03 0. -1.
    9900012    2    1    2    0    0  0.21831116057E+00 -0.80879596866E+00 -0.83131737424E+00  0.90007788469E+02  0.90000050477E+02 0.  0.
        -12    1    1    2    0    0 -0.21831116057E+00  0.80879596866E+00  0.83131737424E+00  0.11802115312E+01  0.00000000000E+00 0.  1.
         11    1    3    3    0    0 -0.40674797184E+01 -0.14590319635E+01  0.67165162200E+01  0.79865359152E+01  0.51100000000E-03 0. -1.
        -11    1    3    3    0    0 -0.18643704192E+02  0.29255080817E+02  0.16255957802E+02  0.38310620250E+02  0.51100000000E-03 0.  1.
         12    1    3    3    0    0  0.22929495071E+02 -0.28604844822E+02 -0.23803791397E+02  0.43710632303E+02  0.00000000000E+00 0. -1.
</event>
<event>
 7    1  0.4195243E-015  0.9000778E+02  0.7816164E-02  0.1186339E+00
        -11   -1    0    0    0    0  0.00000000000E+00  0.00000000000E+00  0.45593999997E+02  0.45594000000E+02  0.51100000000E-03 0. -1.
         11   -1    0    0    0    0 -0.00000000000E+00 -0.00000000000E+00 -0.45593999997E+02  0.45594000000E+02  0.51100000000E-03 0.  1.
    9900012    2    1    2    0    0  0.55241619704E+00  0.84448700310E+00  0.61204119998E+00  0.90007781214E+02  0.90000043126E+02 0.  0.
        -12    1    1    2    0    0 -0.55241619704E+00 -0.84448700310E+00 -0.61204119998E+00  0.11802187863E+01  0.00000000000E+00 0.  1.
         11    1    3    3    0    0  0.19728033099E+02  0.19169640362E+02  0.10282477745E+02  0.29366643499E+02  0.51100000000E-03 0. -1.
        -11    1    3    3    0    0 -0.20627543375E+01  0.92681333430E+01  0.16433943246E+02  0.18979666540E+02  0.51100000000E-03 0.  1.
        -12    1    3    3    0    0 -0.17112862565E+02 -0.27593286702E+02 -0.26104379790E+02  0.41661471174E+02  0.00000000000E+00 0.  1.
</event>
<event>
 7    1  0.4195243E-015  0.9000778E+02  0.7816164E-02  0.1186339E+00
        -11   -1    0    0    0    0  0.00000000000E+00  0.00000000000E+00  0.45593999997E+02  0.45594000000E+02  0.51100000000E-03 0.  1.
         11   -1    0    0    0    0 -0.00000000000E+00 -0.00000000000E+00 -0.45593999997E+02  0.45594000000E+02  0.51100000000E-03 0. -1.
    9900012    2    1    2    0    0 -0.56557412200E+00 -0.16291935377E+00  0.10229885850E+01  0.90007778644E+02  0.90000040522E+02 0.  0.
        -12    1    1    2    0    0  0.56557412200E+00  0.16291935377E+00 -0.10229885850E+01  0.11802213557E+01  0.00000000000E+00 0.  1.
         11    1    3    3    0    0  0.35096919408E+01  0.20524645786E+01 -0.81854486621E+01  0.91395907144E+01  0.51100000000E-03 0. -1.
        -11    1    3    3    0    0  0.37174686955E+02 -0.64302248605E+01  0.11204696118E+02  0.39355436185E+02  0.51100000000E-03 0.  1.
         12    1    3    3    0    0 -0.41249953017E+02  0.42148409281E+01 -0.19962588711E+01  0.41512751745E+02  0.00000000000E+00 0. -1.
</event>
<event>
 7    1  0.6056089E-015  0.9000783E+02  0.7816164E-02  0.1186339E+00
        -11   -1    0    0    0    0  0.00000000000E+00  0.00000000000E+00  0.45593999997E+02  0.45594000000E+02  0.51100000000E-03 0. -1.
         11   -1    0    0    0    0 -0.00000000000E+00 -0.00000000000E+00 -0.45593999997E+02  0.45594000000E+02  0.51100000000E-03 0.  1.
    9900012    2    1    2    0    0  0.28415813151E+00 -0.87258020791E+00  0.74206737247E+00  0.90007827958E+02  0.90000090487E+02 0.  0.
        -12    1    1    2    0    0 -0.28415813151E+00  0.87258020791E+00 -0.74206737247E+00  0.11801720418E+01  0.00000000000E+00 0.  1.
         11    1    3    3    0    0  0.50777421494E+01  0.12278877544E+02  0.35913946381E+02  0.38293156621E+02  0.51100000000E-03 0. -1.
        -11    1    3    3    0    0  0.84774673373E+01  0.86842895646E+00  0.29216532794E+01  0.90087557106E+01  0.51100000000E-03 0.  1.
        -12    1    3    3    0    0 -0.13271051355E+02 -0.14019886708E+02 -0.38093532288E+02  0.42705915627E+02  0.00000000000E+00 0.  1.
</event>
<event>
 7    1  0.4195243E-015  0.9000781E+02  0.7816164E-02  0.1186339E+00
        -11   -1    0    0    0    0  0.00000000000E+00  0.00000000000E+00  0.45593999997E+02  0.45594000000E+02  0.51100000000E-03 0.  1.
         11   -1    0    0    0    0 -0.00000000000E+00 -0.00000000000E+00 -0.45593999997E+02  0.45594000000E+02  0.51100000000E-03 0. -1.
    9900012    2    1    2    0    0  0.20943443268E+00  0.10755163307E+01 -0.43845315129E+00  0.90007813860E+02  0.90000076203E+02 0.  0.
        -12    1    1    2    0    0 -0.20943443268E+00 -0.10755163307E+01  0.43845315129E+00  0.11801861400E+01  0.00000000000E+00 0.  1.
         11    1    3    3    0    0 -0.11296859566E+01  0.77246295706E+01 -0.10636305989E+01  0.78789214158E+01  0.51100000000E-03 0. -1.
        -11    1    3    3    0    0  0.12184063845E+02  0.25661931940E+02  0.26877954638E+02  0.39107679661E+02  0.51100000000E-03 0.  1.
         12    1    3    3    0    0 -0.10844943456E+02 -0.32311045180E+02 -0.26252777190E+02  0.43021212784E+02  0.00000000000E+00 0. -1.
</event>
<event>
 7    1  0.4195243E-015  0.9000780E+02  0.7816164E-02  0.1186339E+00
        -11   -1    0    0    0    0  0.00000000000E+00  0.00000000000E+00  0.45593999997E+02  0.45594000000E+02  0.51100000000E-03 0.  1.
         11   -1    0    0    0    0 -0.00000000000E+00 -0.00000000000E+00 -0.45593999997E+02  0.45594000000E+02  0.51100000000E-03 0. -1.
    9900012    2    1    2    0    0 -0.64233619997E+00 -0.98991854318E+00  0.18618478699E-01  0.90007796135E+02  0.90000058244E+02 0.  0.
        -12    1    1    2    0    0  0.64233619997E+00  0.98991854318E+00 -0.18618478699E-01  0.11802038653E+01  0.00000000000E+00 0.  1.
         11    1    3    3    0    0 -0.83831520496E+01 -0.64792811042E+01  0.34848535219E+01  0.11153588043E+02  0.51100000000E-03 0. -1.
        -11    1    3    3    0    0 -0.26802112867E+02  0.16963974512E+02  0.18125466085E+02  0.36533028980E+02  0.51100000000E-03 0.  1.
         12    1    3    3    0    0  0.34542928717E+02 -0.11474611951E+02 -0.21591701128E+02  0.42321179111E+02  0.00000000000E+00 0. -1.
</event>
<event>
 7    1  0.4195243E-015  0.9000773E+02  0.7816164E-02  0.1186339E+00
        -11   -1    0    0    0    0  0.00000000000E+00  0.00000000000E+00  0.45593999997E+02  0.45594000000E+02  0.51100000000E-03 0. -1.
         11   -1    0    0    0    0 -0.00000000000E+00 -0.00000000000E+00 -0.45593999997E+02  0.45594000000E+02  0.51100000000E-03 0.  1.
    9900012    2    1    2    0    0  0.99896791737E+00  0.25208600021E+00 -0.57580418476E+00  0.90007731085E+02  0.89999992336E+02 0.  0.
        -12    1    1    2    0    0 -0.99896791737E+00 -0.25208600021E+00  0.57580418476E+00  0.11802689145E+01  0.00000000000E+00 0.  1.
         11    1    3    3    0    0  0.69697963876E+01  0.84187559652E+00 -0.48071062129E+01  0.85085302261E+01  0.51100000000E-03 0. -1.
        -11    1    3    3    0    0 -0.10937836458E+02  0.10229249463E+02 -0.36293578138E+02  0.39261910617E+02  0.51100000000E-03 0.  1.
         12    1    3    3    0    0  0.49670079877E+01 -0.10819039059E+02  0.40524880167E+02  0.42237290242E+02  0.00000000000E+00 0. -1.
</event>
<event>
 8    1  0.4195243E-015  0.9000775E+02  0.7816164E-02  0.1186339E+00
        -11   -1    0    0    0    0  0.00000000000E+00  0.00000000000E+00  0.45593999997E+02  0.45594000000E+02  0.51100000000E-03 0.  1.
         11   -1    0    0    0    0 -0.00000000000E+00 -0.00000000000E+00 -0.45593999997E+02  0.45594000000E+02  0.51100000000E-03 0. -1.
    9900012    2    1    2    0    0 -0.56434850963E-02  0.37310644946E+00  0.11197110285E+01  0.90007748731E+02  0.90000010214E+02 0.  0.
         23    2    3    3    0    0  0.20750132426E+02  0.13207045817E+02 -0.51021479776E+01  0.64823949120E+02  0.59758835419E+02 0.  0.
        -12    1    1    2    0    0  0.56434850963E-02 -0.37310644946E+00 -0.11197110285E+01  0.11802512693E+01  0.00000000000E+00 0.  1.
         11    1    4    4    0    0 -0.20831845311E+02 -0.28454927429E+00 -0.30902772015E+01  0.21061732141E+02  0.51100000000E-03 0. -1.
        -11    1    4    4    0    0  0.41581977736E+02  0.13491595092E+02 -0.20118707762E+01  0.43762216978E+02  0.51100000000E-03 0.  1.
         12    1    3    3    0    0 -0.20755775911E+02 -0.12833939368E+02  0.62218590061E+01  0.25183799611E+02  0.00000000000E+00 0. -1.
</event>
<event>
 7    1  0.4968678E-015  0.9000781E+02  0.7816164E-02  0.1186339E+00
        -11   -1    0    0    0    0  0.00000000000E+00  0.00000000000E+00  0.45593999997E+02  0.45594000000E+02  0.51100000000E-03 0.  1.
         11   -1    0    0    0    0 -0.00000000000E+00 -0.00000000000E+00 -0.45593999997E+02  0.45594000000E+02  0.51100000000E-03 0. -1.
    9900012    2    1    2    0    0  0.10553994977E+01 -0.29108434090E+00 -0.44074235160E+00  0.90007808484E+02  0.90000070756E+02 0.  0.
        -12    1    1    2    0    0 -0.10553994977E+01  0.29108434090E+00  0.44074235160E+00  0.11801915158E+01  0.00000000000E+00 0.  1.
         11    1    3    3    0    0  0.57223481332E+00  0.70900713390E+01 -0.39905914633E+02  0.40534905788E+02  0.51100000000E-03 0. -1.
        -11    1    3    3    0    0  0.91139118507E+01 -0.29397819284E+01  0.80189033725E+00  0.96098249403E+01  0.51100000000E-03 0.  1.
        -12    1    3    3    0    0 -0.86307471663E+01 -0.44413737516E+01  0.38663281944E+02  0.39863077756E+02  0.00000000000E+00 0.  1.
</event>
<event>
 7    1  0.4195243E-015  0.9000797E+02  0.7816164E-02  0.1186339E+00
        -11   -1    0    0    0    0  0.00000000000E+00  0.00000000000E+00  0.45593999997E+02  0.45594000000E+02  0.51100000000E-03 0.  1.
         11   -1    0    0    0    0 -0.00000000000E+00 -0.00000000000E+00 -0.45593999997E+02  0.45594000000E+02  0.51100000000E-03 0. -1.
    9900012    2    1    2    0    0 -0.42016456589E+00  0.18558245256E+00 -0.10869592674E+01  0.90007974764E+02  0.90000239230E+02 0.  0.
        -12    1    1    2    0    0  0.42016456589E+00 -0.18558245256E+00  0.10869592674E+01  0.11800252362E+01  0.00000000000E+00 0.  1.
         11    1    3    3    0    0  0.45749304448E+01  0.23841384717E+01 -0.82077173614E+01  0.96943658572E+01  0.51100000000E-03 0. -1.
        -11    1    3    3    0    0 -0.49690610158E+01 -0.40942093108E+02  0.29988665940E+01  0.41351417830E+02  0.51100000000E-03 0.  1.
         12    1    3    3    0    0 -0.26033994902E-01  0.38743537089E+02  0.41218915001E+01  0.38962191076E+02  0.00000000000E+00 0. -1.
</event>
<event>
 7    1  0.4195243E-015  0.9000771E+02  0.7816164E-02  0.1186339E+00
        -11   -1    0    0    0    0  0.00000000000E+00  0.00000000000E+00  0.45593999997E+02  0.45594000000E+02  0.51100000000E-03 0. -1.
         11   -1    0    0    0    0 -0.00000000000E+00 -0.00000000000E+00 -0.45593999997E+02  0.45594000000E+02  0.51100000000E-03 0.  1.
    9900012    2    1    2    0    0  0.36254771548E+00 -0.85451653576E+00  0.72900976166E+00  0.90007705720E+02  0.89999966635E+02 0.  0.
        -12    1    1    2    0    0 -0.36254771548E+00  0.85451653576E+00 -0.72900976166E+00  0.11802942805E+01  0.00000000000E+00 0.  1.
         11    1    3    3    0    0 -0.86268554442E+00  0.72755232451E+01 -0.80135389218E+01  0.10857912836E+02  0.51100000000E-03 0. -1.
        -11    1    3    3    0    0  0.25525048694E+02 -0.29836818346E+02 -0.11345961357E+02  0.40871685544E+02  0.51100000000E-03 0.  1.
         12    1    3    3    0    0 -0.24299815434E+02  0.21706778565E+02  0.20088510041E+02  0.38278107339E+02  0.00000000000E+00 0. -1.
</event>
<event>
 7    1  0.4195243E-015  0.9000834E+02  0.7816164E-02  0.1186338E+00
        -11   -1    0    0    0    0  0.00000000000E+00  0.00000000000E+00  0.45593999997E+02  0.45594000000E+02  0.51100000000E-03 0. -1.
         11   -1    0    0    0    0 -0.00000000000E+00 -0.00000000000E+00 -0.45593999997E+02  0.45594000000E+02  0.51100000000E-03 0.  1.
    9900012    2    1    2    0    0  0.92007978018E+00 -0.73764041018E+00 -0.30570423144E-01  0.90008341267E+02  0.90000610569E+02 0.  0.
        -12    1    1    2    0    0 -0.92007978018E+00  0.73764041018E+00  0.30570423144E-01  0.11796587335E+01  0.00000000000E+00 0.  1.
         11    1    3    3    0    0 -0.31150950947E+01  0.42215314023E+01  0.18792205568E+01  0.55728462200E+01  0.51100000000E-03 0. -1.
        -11    1    3    3    0    0 -0.14789978658E+02  0.35750635934E+02 -0.69258340325E+01  0.39304180639E+02  0.51100000000E-03 0.  1.
         12    1    3    3    0    0  0.18825153533E+02 -0.40709807746E+02  0.50160430526E+01  0.45131314408E+02  0.00000000000E+00 0. -1.
</event>
<event>
 7    1  0.4195243E-015  0.9000771E+02  0.7816164E-02  0.1186339E+00
        -11   -1    0    0    0    0  0.00000000000E+00  0.00000000000E+00  0.45593999997E+02  0.45594000000E+02  0.51100000000E-03 0. -1.
         11   -1    0    0    0    0 -0.00000000000E+00 -0.00000000000E+00 -0.45593999997E+02  0.45594000000E+02  0.51100000000E-03 0.  1.
    9900012    2    1    2    0    0  0.50256344150E+00  0.87606641218E+00  0.61075608824E+00  0.90007709624E+02  0.89999970591E+02 0.  0.
        -12    1    1    2    0    0 -0.50256344150E+00 -0.87606641218E+00 -0.61075608824E+00  0.11802903755E+01  0.00000000000E+00 0.  1.
         11    1    3    3    0    0  0.32747862876E+02 -0.21425160700E+02  0.12447862701E+02  0.41065914333E+02  0.51100000000E-03 0. -1.
        -11    1    3    3    0    0 -0.18317314730E+01 -0.41196695439E+01 -0.70540567334E+01  0.83717760362E+01  0.51100000000E-03 0.  1.
        -12    1    3    3    0    0 -0.30413567961E+02  0.26420896656E+02 -0.47830498793E+01  0.40570019255E+02  0.00000000000E+00 0.  1.
</event>
<event>
 7    1  0.4195243E-015  0.9000770E+02  0.7816164E-02  0.1186339E+00
        -11   -1    0    0    0    0  0.00000000000E+00  0.00000000000E+00  0.45593999997E+02  0.45594000000E+02  0.51100000000E-03 0.  1.
         11   -1    0    0    0    0 -0.00000000000E+00 -0.00000000000E+00 -0.45593999997E+02  0.45594000000E+02  0.51100000000E-03 0. -1.
    9900012    2    1    2    0    0  0.89875398859E+00 -0.70081199855E+00  0.30694474017E+00  0.90007698656E+02  0.89999959478E+02 0.  0.
        -12    1    1    2    0    0 -0.89875398859E+00  0.70081199855E+00 -0.30694474017E+00  0.11803013441E+01  0.00000000000E+00 0.  1.
         11    1    3    3    0    0 -0.72600305346E+00  0.71570207128E+01  0.45385151046E+01  0.85057713074E+01  0.51100000000E-03 0. -1.
        -11    1    3    3    0    0 -0.11776667722E+02 -0.82997722025E+01  0.36169752633E+02  0.38933624632E+02  0.51100000000E-03 0.  1.
         12    1    3    3    0    0  0.13401424764E+02  0.44193949111E+00 -0.40401322997E+02  0.42568302716E+02  0.00000000000E+00 0. -1.
</event>
<event>
 7    1  0.4195243E-015  0.9000779E+02  0.7816164E-02  0.1186339E+00
        -11   -1    0    0    0    0  0.00000000000E+00  0.00000000000E+00  0.45593999997E+02  0.45594000000E+02  0.51100000000E-03 0.  1.
         11   -1    0    0    0    0 -0.00000000000E+00 -0.00000000000E+00 -0.45593999997E+02  0.45594000000E+02  0.51100000000E-03 0. -1.
    9900012    2    1    2    0    0  0.75520561063E+00  0.63596443015E+00 -0.64661693935E+00  0.90007788266E+02  0.90000050271E+02 0.  0.
        -12    1    1    2    0    0 -0.75520561063E+00 -0.63596443015E+00  0.64661693935E+00  0.11802117340E+01  0.00000000000E+00 0.  1.
         11    1    3    3    0    0 -0.34594350344E+01 -0.53950283805E-02 -0.93559865021E+01  0.99750791252E+01  0.51100000000E-03 0. -1.
        -11    1    3    3    0    0  0.27160477681E+02  0.29401084371E+02 -0.58758513202E+01  0.40455419156E+02  0.51100000000E-03 0.  1.
         12    1    3    3    0    0 -0.22945837036E+02 -0.28759724913E+02  0.14585220883E+02  0.39577289985E+02  0.00000000000E+00 0. -1.
</event>
<event>
 7    1  0.4195243E-015  0.9000756E+02  0.7816164E-02  0.1186339E+00
        -11   -1    0    0    0    0  0.00000000000E+00  0.00000000000E+00  0.45593999997E+02  0.45594000000E+02  0.51100000000E-03 0.  1.
         11   -1    0    0    0    0 -0.00000000000E+00 -0.00000000000E+00 -0.45593999997E+02  0.45594000000E+02  0.51100000000E-03 0. -1.
    9900012    2    1    2    0    0  0.49096349528E+00 -0.61314819479E+00  0.88116479991E+00  0.90007556326E+02  0.89999815269E+02 0.  0.
        -12    1    1    2    0    0 -0.49096349528E+00  0.61314819479E+00 -0.88116479991E+00  0.11804436738E+01  0.00000000000E+00 0.  1.
         11    1    3    3    0    0 -0.29004111670E+02  0.16774453857E+02  0.13710764742E+02  0.36202290895E+02  0.51100000000E-03 0. -1.
        -11    1    3    3    0    0 -0.86179837714E+01  0.46114030494E+00  0.25477297772E+01  0.89985122073E+01  0.51100000000E-03 0.  1.
        -12    1    3    3    0    0  0.38113058937E+02 -0.17848742357E+02 -0.15377329719E+02  0.44806753224E+02  0.00000000000E+00 0.  1.
</event>
<event>
 7    1  0.4195243E-015  0.9000779E+02  0.7816164E-02  0.1186339E+00
        -11   -1    0    0    0    0  0.00000000000E+00  0.00000000000E+00  0.45593999997E+02  0.45594000000E+02  0.51100000000E-03 0.  1.
         11   -1    0    0    0    0 -0.00000000000E+00 -0.00000000000E+00 -0.45593999997E+02  0.45594000000E+02  0.51100000000E-03 0. -1.
    9900012    2    1    2    0    0 -0.73653108176E+00  0.91764711813E+00  0.91311729517E-01  0.90007791502E+02  0.90000053549E+02 0.  0.
        -12    1    1    2    0    0  0.73653108176E+00 -0.91764711813E+00 -0.91311729517E-01  0.11802084984E+01  0.00000000000E+00 0.  1.
         11    1    3    3    0    0  0.16462416573E+02  0.28239023581E+02 -0.68420751449E+01  0.33395622539E+02  0.51100000000E-03 0. -1.
        -11    1    3    3    0    0  0.14783832026E+02 -0.15155382940E+02 -0.19437376347E+01  0.21260889861E+02  0.51100000000E-03 0.  1.
        -12    1    3    3    0    0 -0.31982779681E+02 -0.12165993524E+02  0.88771245091E+01  0.35351279101E+02  0.00000000000E+00 0.  1.
</event>
<event>
 7    1  0.4195243E-015  0.9000782E+02  0.7816164E-02  0.1186339E+00
        -11   -1    0    0    0    0  0.00000000000E+00  0.00000000000E+00  0.45593999997E+02  0.45594000000E+02  0.51100000000E-03 0.  1.
         11   -1    0    0    0    0 -0.00000000000E+00 -0.00000000000E+00 -0.45593999997E+02  0.45594000000E+02  0.51100000000E-03 0. -1.
    9900012    2    1    2    0    0 -0.11640113669E+01  0.19337353855E+00 -0.22611749137E-01  0.90007819048E+02  0.90000081460E+02 0.  0.
        -12    1    1    2    0    0  0.11640113669E+01 -0.19337353855E+00  0.22611749137E-01  0.11801809518E+01  0.00000000000E+00 0.  1.
         11    1    3    3    0    0  0.73813841644E+01 -0.25855307037E+01  0.39822784030E+01  0.87765792164E+01  0.51100000000E-03 0. -1.
        -11    1    3    3    0    0  0.12594342415E+02 -0.35320856390E+02 -0.34335897000E+01  0.37655941039E+02  0.51100000000E-03 0.  1.
         12    1    3    3    0    0 -0.21139737946E+02  0.38099760633E+02 -0.57130045210E+00  0.43575298793E+02  0.00000000000E+00 0. -1.
</event>
<event>
 7    1  0.4195243E-015  0.9000775E+02  0.7816164E-02  0.1186339E+00
        -11   -1    0    0    0    0  0.00000000000E+00  0.00000000000E+00  0.45593999997E+02  0.45594000000E+02  0.51100000000E-03 0.  1.
         11   -1    0    0    0    0 -0.00000000000E+00 -0.00000000000E+00 -0.45593999997E+02  0.45594000000E+02  0.51100000000E-03 0. -1.
    9900012    2    1    2    0    0  0.11791373353E+01 -0.18154856843E-01 -0.47889510200E-01  0.90007750933E+02  0.90000012446E+02 0.  0.
        -12    1    1    2    0    0 -0.11791373353E+01  0.18154856843E-01  0.47889510200E-01  0.11802490667E+01  0.00000000000E+00 0.  1.
         11    1    3    3    0    0 -0.18291292704E+02  0.37262584268E+02 -0.15462585609E+02  0.44296310559E+02  0.51100000000E-03 0. -1.
        -11    1    3    3    0    0  0.46263390719E+00 -0.73565348511E+01  0.44208669501E+01  0.85951556122E+01  0.51100000000E-03 0.  1.
        -12    1    3    3    0    0  0.19007796132E+02 -0.29924204274E+02  0.10993829149E+02  0.37116284763E+02  0.00000000000E+00 0.  1.
</event>
<event>
 7    1  0.4195243E-015  0.9000769E+02  0.7816164E-02  0.1186339E+00
        -11   -1    0    0    0    0  0.00000000000E+00  0.00000000000E+00  0.45593999997E+02  0.45594000000E+02  0.51100000000E-03 0.  1.
         11   -1    0    0    0    0 -0.00000000000E+00 -0.00000000000E+00 -0.45593999997E+02  0.45594000000E+02  0.51100000000E-03 0. -1.
    9900012    2    1    2    0    0 -0.89539153990E+00 -0.16463439095E+00 -0.75120150959E+00  0.90007688939E+02  0.89999949633E+02 0.  0.
        -12    1    1    2    0    0  0.89539153990E+00  0.16463439095E+00  0.75120150959E+00  0.11803110609E+01  0.00000000000E+00 0.  1.
         11    1    3    3    0    0  0.29506916347E+02 -0.25568074437E+02 -0.66151961082E+01  0.39599815183E+02  0.51100000000E-03 0. -1.
        -11    1    3    3    0    0  0.43696747640E-01  0.43478707571E+01 -0.94076794410E+01  0.10363895129E+02  0.51100000000E-03 0.  1.
        -12    1    3    3    0    0 -0.30446004635E+02  0.21055569289E+02  0.15271674040E+02  0.40043978627E+02  0.00000000000E+00 0.  1.
</event>
<event>
 7    1  0.4195243E-015  0.9000779E+02  0.7816164E-02  0.1186339E+00
        -11   -1    0    0    0    0  0.00000000000E+00  0.00000000000E+00  0.45593999997E+02  0.45594000000E+02  0.51100000000E-03 0. -1.
         11   -1    0    0    0    0 -0.00000000000E+00 -0.00000000000E+00 -0.45593999997E+02  0.45594000000E+02  0.51100000000E-03 0.  1.
    9900012    2    1    2    0    0  0.11097377872E+01  0.16709717216E+00  0.36531598150E+00  0.90007790193E+02  0.90000052224E+02 0.  0.
        -12    1    1    2    0    0 -0.11097377872E+01 -0.16709717216E+00 -0.36531598150E+00  0.11802098066E+01  0.00000000000E+00 0.  1.
         11    1    3    3    0    0  0.35343058091E+02 -0.92086985889E+00  0.12758417352E+02  0.37586659469E+02  0.51100000000E-03 0. -1.
        -11    1    3    3    0    0  0.36069609914E+01 -0.86106883416E+01  0.38720312289E+01  0.10106767406E+02  0.51100000000E-03 0.  1.
        -12    1    3    3    0    0 -0.37840281295E+02  0.96986553727E+01 -0.16265132599E+02  0.42314363318E+02  0.00000000000E+00 0.  1.
</event>
<event>
 7    1  0.4195243E-015  0.9000777E+02  0.7816164E-02  0.1186339E+00
        -11   -1    0    0    0    0  0.00000000000E+00  0.00000000000E+00  0.45593999997E+02  0.45594000000E+02  0.51100000000E-03 0. -1.
         11   -1    0    0    0    0 -0.00000000000E+00 -0.00000000000E+00 -0.45593999997E+02  0.45594000000E+02  0.51100000000E-03 0.  1.
    9900012    2    1    2    0    0  0.11433508188E+01  0.24355952133E+00  0.16236750848E+00  0.90007773097E+02  0.90000034902E+02 0.  0.
        -12    1    1    2    0    0 -0.11433508188E+01 -0.24355952133E+00 -0.16236750848E+00  0.11802269032E+01  0.00000000000E+00 0.  1.
         11    1    3    3    0    0  0.26271615220E+01 -0.94983836122E+01  0.11303188251E+01  0.99196214552E+01  0.51100000000E-03 0. -1.
        -11    1    3    3    0    0  0.28896736691E+02 -0.15643227648E+02 -0.17448583749E+02  0.37204637315E+02  0.51100000000E-03 0.  1.
         12    1    3    3    0    0 -0.30380547394E+02  0.25385170782E+02  0.16480632433E+02  0.42883514326E+02  0.00000000000E+00 0. -1.
</event>
<event>
 7    1  0.4195243E-015  0.9000774E+02  0.7816164E-02  0.1186339E+00
        -11   -1    0    0    0    0  0.00000000000E+00  0.00000000000E+00  0.45593999997E+02  0.45594000000E+02  0.51100000000E-03 0. -1.
         11   -1    0    0    0    0 -0.00000000000E+00 -0.00000000000E+00 -0.45593999997E+02  0.45594000000E+02  0.51100000000E-03 0.  1.
    9900012    2    1    2    0    0 -0.37508190918E-01 -0.11766397971E+01  0.84385751837E-01  0.90007741964E+02  0.90000003358E+02 0.  0.
        -12    1    1    2    0    0  0.37508190918E-01  0.11766397971E+01 -0.84385751837E-01  0.11802580360E+01  0.00000000000E+00 0.  1.
         11    1    3    3    0    0 -0.10506075988E+02  0.37201575731E+02 -0.23968749160E+01  0.38730864684E+02  0.51100000000E-03 0. -1.
        -11    1    3    3    0    0  0.65571172006E+01  0.27290813610E+01 -0.57903225415E+01  0.91635968076E+01  0.51100000000E-03 0.  1.
        -12    1    3    3    0    0  0.39114505966E+01 -0.41107296890E+02  0.82715832093E+01  0.42113280472E+02  0.00000000000E+00 0.  1.
</event>
<event>
 7    1  0.4195243E-015  0.9000785E+02  0.7816164E-02  0.1186339E+00
        -11   -1    0    0    0    0  0.00000000000E+00  0.00000000000E+00  0.45593999997E+02  0.45594000000E+02  0.51100000000E-03 0.  1.
         11   -1    0    0    0    0 -0.00000000000E+00 -0.00000000000E+00 -0.45593999997E+02  0.45594000000E+02  0.51100000000E-03 0. -1.
    9900012    2    1    2    0    0  0.78224111895E+00 -0.85647319813E+00 -0.21748897293E+00  0.90007852145E+02  0.90000114993E+02 0.  0.
        -12    1    1    2    0    0 -0.78224111895E+00  0.85647319813E+00  0.21748897293E+00  0.11801478554E+01  0.00000000000E+00 0.  1.
         11    1    3    3    0    0  0.13792842481E+01  0.13918298007E+01 -0.87108774899E+01  0.89285498338E+01  0.51100000000E-03 0. -1.
        -11    1    3    3    0    0  0.11204638174E+02 -0.39556018187E+02  0.83371301323E+01  0.41949138615E+02  0.51100000000E-03 0.  1.
         12    1    3    3    0    0 -0.11801681303E+02  0.37307715189E+02  0.15625838466E+00  0.39130163696E+02  0.00000000000E+00 0. -1.
</event>
<event>
 7    1  0.4195243E-015  0.9000771E+02  0.7816164E-02  0.1186339E+00
        -11   -1    0    0    0    0  0.00000000000E+00  0.00000000000E+00  0.45593999997E+02  0.45594000000E+02  0.51100000000E-03 0.  1.
         11   -1    0    0    0    0 -0.00000000000E+00 -0.00000000000E+00 -0.45593999997E+02  0.45594000000E+02  0.51100000000E-03 0. -1.
    9900012    2    1    2    0    0  0.87331571312E-01 -0.66398347125E+00 -0.97189443939E+00  0.90007712046E+02  0.89999973045E+02 0.  0.
        -12    1    1    2    0    0 -0.87331571312E-01  0.66398347125E+00  0.97189443939E+00  0.11802879542E+01  0.00000000000E+00 0.  1.
         11    1    3    3    0    0 -0.36437680735E+02  0.20338739854E+02 -0.15288674931E+01  0.41757710094E+02  0.51100000000E-03 0. -1.
        -11    1    3    3    0    0  0.55959001982E+01  0.12673722239E+01 -0.73515784015E+01  0.93255582480E+01  0.51100000000E-03 0.  1.
        -12    1    3    3    0    0  0.30929112108E+02 -0.22270095549E+02  0.79085514552E+01  0.38924443704E+02  0.00000000000E+00 0.  1.
</event>
<event>
 7    1  0.4195243E-015  0.9000770E+02  0.7816164E-02  0.1186339E+00
        -11   -1    0    0    0    0  0.00000000000E+00  0.00000000000E+00  0.45593999997E+02  0.45594000000E+02  0.51100000000E-03 0.  1.
         11   -1    0    0    0    0 -0.00000000000E+00 -0.00000000000E+00 -0.45593999997E+02  0.45594000000E+02  0.51100000000E-03 0. -1.
    9900012    2    1    2    0    0 -0.47840092584E+00 -0.55338399254E+00  0.92628841892E+00  0.90007698545E+02  0.89999959366E+02 0.  0.
        -12    1    1    2    0    0  0.47840092584E+00  0.55338399254E+00 -0.92628841892E+00  0.11803014547E+01  0.00000000000E+00 0.  1.
         11    1    3    3    0    0 -0.14880455395E+01  0.84846383958E+01 -0.40504081461E+01  0.95188851577E+01  0.51100000000E-03 0. -1.
        -11    1    3    3    0    0 -0.39099516771E+02 -0.22105193755E+00 -0.17180892648E+00  0.39100519104E+02  0.51100000000E-03 0.  1.
         12    1    3    3    0    0  0.40109161384E+02 -0.88169704508E+01  0.51485054915E+01  0.41388294283E+02  0.00000000000E+00 0. -1.
</event>
<event>
 7    1  0.4195243E-015  0.9000760E+02  0.7816164E-02  0.1186339E+00
        -11   -1    0    0    0    0  0.00000000000E+00  0.00000000000E+00  0.45593999997E+02  0.45594000000E+02  0.51100000000E-03 0.  1.
         11   -1    0    0    0    0 -0.00000000000E+00 -0.00000000000E+00 -0.45593999997E+02  0.45594000000E+02  0.51100000000E-03 0. -1.
    9900012    2    1    2    0    0 -0.34313080575E+00  0.10374270207E+01 -0.44648283003E+00  0.90007601554E+02  0.89999861095E+02 0.  0.
        -12    1    1    2    0    0  0.34313080575E+00 -0.10374270207E+01  0.44648283003E+00  0.11803984457E+01  0.00000000000E+00 0.  1.
         11    1    3    3    0    0 -0.29933928963E+01 -0.47647576119E+01 -0.63605560254E+01  0.84923488709E+01  0.51100000000E-03 0. -1.
        -11    1    3    3    0    0  0.35781466497E+02 -0.16927060884E+02 -0.49563459712E+01  0.39892406552E+02  0.51100000000E-03 0.  1.
         12    1    3    3    0    0 -0.33131204407E+02  0.22729245517E+02  0.10870419167E+02  0.41622846131E+02  0.00000000000E+00 0. -1.
</event>
<event>
 7    1  0.4195243E-015  0.9000778E+02  0.7816164E-02  0.1186339E+00
        -11   -1    0    0    0    0  0.00000000000E+00  0.00000000000E+00  0.45593999997E+02  0.45594000000E+02  0.51100000000E-03 0. -1.
         11   -1    0    0    0    0 -0.00000000000E+00 -0.00000000000E+00 -0.45593999997E+02  0.45594000000E+02  0.51100000000E-03 0.  1.
    9900012    2    1    2    0    0  0.67228349320E+00  0.55471501229E+00  0.79576579328E+00  0.90007780937E+02  0.90000042845E+02 0.  0.
        -12    1    1    2    0    0 -0.67228349320E+00 -0.55471501229E+00 -0.79576579328E+00  0.11802190635E+01  0.00000000000E+00 0.  1.
         11    1    3    3    0    0 -0.76380110367E+01 -0.11996349707E+00 -0.44859296314E+01  0.88587340380E+01  0.51100000000E-03 0. -1.
        -11    1    3    3    0    0  0.87144894401E+01 -0.21351895671E+02 -0.31039404564E+02  0.38668985128E+02  0.51100000000E-03 0.  1.
         12    1    3    3    0    0 -0.40419491017E+00  0.22026574180E+02  0.36321099988E+02  0.42480061770E+02  0.00000000000E+00 0. -1.
</event>
<event>
 7    1  0.4195243E-015  0.9000768E+02  0.7816164E-02  0.1186339E+00
        -11   -1    0    0    0    0  0.00000000000E+00  0.00000000000E+00  0.45593999997E+02  0.45594000000E+02  0.51100000000E-03 0.  1.
         11   -1    0    0    0    0 -0.00000000000E+00 -0.00000000000E+00 -0.45593999997E+02  0.45594000000E+02  0.51100000000E-03 0. -1.
    9900012    2    1    2    0    0  0.20714338309E+00 -0.10187394164E+01 -0.55893798108E+00  0.90007682226E+02  0.89999942832E+02 0.  0.
        -12    1    1    2    0    0 -0.20714338309E+00  0.10187394164E+01  0.55893798108E+00  0.11803177735E+01  0.00000000000E+00 0.  1.
         11    1    3    3    0    0  0.61935382940E+01  0.51408542094E+01  0.42995010683E+01  0.91254593473E+01  0.51100000000E-03 0. -1.
        -11    1    3    3    0    0  0.28674893477E+02  0.12388115844E+02  0.17349478105E+02  0.35731209340E+02  0.51100000000E-03 0.  1.
         12    1    3    3    0    0 -0.34661288388E+02 -0.18547709470E+02 -0.22207917154E+02  0.45151013540E+02  0.00000000000E+00 0. -1.
</event>
<event>
 7    1  0.4195243E-015  0.9000738E+02  0.7816164E-02  0.1186340E+00
        -11   -1    0    0    0    0  0.00000000000E+00  0.00000000000E+00  0.45593999997E+02  0.45594000000E+02  0.51100000000E-03 0. -1.
         11   -1    0    0    0    0 -0.00000000000E+00 -0.00000000000E+00 -0.45593999997E+02  0.45594000000E+02  0.51100000000E-03 0.  1.
    9900012    2    1    2    0    0 -0.10372203262E+01 -0.14872879035E+00  0.54398851980E+00  0.90007377381E+02  0.89999633962E+02 0.  0.
        -12    1    1    2    0    0  0.10372203262E+01  0.14872879035E+00 -0.54398851980E+00  0.11806226187E+01  0.00000000000E+00 0.  1.
         11    1    3    3    0    0 -0.26762985754E+02  0.45028174127E+01  0.22158524423E+02  0.35036166685E+02  0.51100000000E-03 0. -1.
        -11    1    3    3    0    0 -0.81207991309E+01  0.49315914011E+01  0.51155848983E+01  0.10790606164E+02  0.51100000000E-03 0.  1.
        -12    1    3    3    0    0  0.33846564559E+02 -0.95831376041E+01 -0.26730120802E+02  0.44180604532E+02  0.00000000000E+00 0.  1.
</event>
<event>
 7    1  0.4195243E-015  0.9000760E+02  0.7816164E-02  0.1186339E+00
        -11   -1    0    0    0    0  0.00000000000E+00  0.00000000000E+00  0.45593999997E+02  0.45594000000E+02  0.51100000000E-03 0. -1.
         11   -1    0    0    0    0 -0.00000000000E+00 -0.00000000000E+00 -0.45593999997E+02  0.45594000000E+02  0.51100000000E-03 0.  1.
    9900012    2    1    2    0    0  0.89314428940E+00 -0.26316277664E+00 -0.72551644483E+00  0.90007603677E+02  0.89999863245E+02 0.  0.
        -12    1    1    2    0    0 -0.89314428940E+00  0.26316277664E+00  0.72551644483E+00  0.11803963235E+01  0.00000000000E+00 0.  1.
         11    1    3    3    0    0 -0.58354336644E+01 -0.42197356189E+00  0.37534235307E+01  0.69511535878E+01  0.51100000000E-03 0. -1.
        -11    1    3    3    0    0  0.18419786155E+01  0.18967482104E+01 -0.43556269511E+02  0.43636442945E+02  0.51100000000E-03 0.  1.
         12    1    3    3    0    0  0.48865993384E+01 -0.17379374252E+01  0.39077329535E+02  0.39420007143E+02  0.00000000000E+00 0. -1.
</event>
<event>
 7    1  0.5531217E-015  0.9000781E+02  0.7816164E-02  0.1186339E+00
        -11   -1    0    0    0    0  0.00000000000E+00  0.00000000000E+00  0.45593999997E+02  0.45594000000E+02  0.51100000000E-03 0.  1.
         11   -1    0    0    0    0 -0.00000000000E+00 -0.00000000000E+00 -0.45593999997E+02  0.45594000000E+02  0.51100000000E-03 0. -1.
    9900012    2    1    2    0    0 -0.66741181052E+00  0.20756079337E+00 -0.95095986559E+00  0.90007811594E+02  0.90000073907E+02 0.  0.
        -12    1    1    2    0    0  0.66741181052E+00 -0.20756079337E+00  0.95095986559E+00  0.11801884060E+01  0.00000000000E+00 0.  1.
         11    1    3    3    0    0 -0.18716674943E+02  0.20049057820E+02 -0.30336596259E+02  0.40897282467E+02  0.51100000000E-03 0. -1.
        -11    1    3    3    0    0 -0.43795277355E+01  0.41006475196E+01  0.77957017831E+01  0.98371001733E+01  0.51100000000E-03 0.  1.
        -12    1    3    3    0    0  0.22428790868E+02 -0.23942144546E+02  0.21589934610E+02  0.39273428953E+02  0.00000000000E+00 0.  1.
</event>
<event>
 7    1  0.4195243E-015  0.9000751E+02  0.7816164E-02  0.1186340E+00
        -11   -1    0    0    0    0  0.00000000000E+00  0.00000000000E+00  0.45593999997E+02  0.45594000000E+02  0.51100000000E-03 0.  1.
         11   -1    0    0    0    0 -0.00000000000E+00 -0.00000000000E+00 -0.45593999997E+02  0.45594000000E+02  0.51100000000E-03 0. -1.
    9900012    2    1    2    0    0 -0.71811452612E+00  0.25900916007E+00  0.90043262023E+00  0.90007511490E+02  0.89999769842E+02 0.  0.
        -12    1    1    2    0    0  0.71811452612E+00 -0.25900916007E+00 -0.90043262023E+00  0.11804885096E+01  0.00000000000E+00 0.  1.
         11    1    3    3    0    0  0.36246858680E+02 -0.70213344874E+00  0.18194492980E+01  0.36299285827E+02  0.51100000000E-03 0. -1.
        -11    1    3    3    0    0  0.44143181736E+01  0.45808332060E+01  0.89825103302E+01  0.11007076355E+02  0.51100000000E-03 0.  1.
        -12    1    3    3    0    0 -0.41379291380E+02 -0.36196905972E+01 -0.99015270079E+01  0.42701149308E+02  0.00000000000E+00 0.  1.
</event>
<event>
 7    1  0.4195243E-015  0.9000773E+02  0.7816164E-02  0.1186339E+00
        -11   -1    0    0    0    0  0.00000000000E+00  0.00000000000E+00  0.45593999997E+02  0.45594000000E+02  0.51100000000E-03 0.  1.
         11   -1    0    0    0    0 -0.00000000000E+00 -0.00000000000E+00 -0.45593999997E+02  0.45594000000E+02  0.51100000000E-03 0. -1.
    9900012    2    1    2    0    0  0.49218583318E+00  0.99800454297E-01 -0.10680979396E+01  0.90007728746E+02  0.89999989965E+02 0.  0.
        -12    1    1    2    0    0 -0.49218583318E+00 -0.99800454297E-01  0.10680979396E+01  0.11802712543E+01  0.00000000000E+00 0.  1.
         11    1    3    3    0    0 -0.23210979123E+02 -0.26313373478E+02 -0.22932095347E+01  0.35162508242E+02  0.51100000000E-03 0. -1.
        -11    1    3    3    0    0 -0.81220516963E+01 -0.46428448634E+01 -0.37946755242E+01  0.10095706750E+02  0.51100000000E-03 0.  1.
        -12    1    3    3    0    0  0.31825216653E+02  0.31056018796E+02  0.50197871193E+01  0.44749513753E+02  0.00000000000E+00 0.  1.
</event>
<event>
 7    1  0.4195243E-015  0.9000772E+02  0.7816164E-02  0.1186339E+00
        -11   -1    0    0    0    0  0.00000000000E+00  0.00000000000E+00  0.45593999997E+02  0.45594000000E+02  0.51100000000E-03 0.  1.
         11   -1    0    0    0    0 -0.00000000000E+00 -0.00000000000E+00 -0.45593999997E+02  0.45594000000E+02  0.51100000000E-03 0. -1.
    9900012    2    1    2    0    0 -0.88046333212E+00 -0.75050225879E+00  0.23366285275E+00  0.90007717132E+02  0.89999978198E+02 0.  0.
        -12    1    1    2    0    0  0.88046333212E+00  0.75050225879E+00 -0.23366285275E+00  0.11802828680E+01  0.00000000000E+00 0.  1.
         11    1    3    3    0    0  0.27902821072E+02 -0.22422075771E+02 -0.18271846113E+02  0.40189268049E+02  0.51100000000E-03 0. -1.
        -11    1    3    3    0    0 -0.91050960928E-01 -0.48259239140E+01  0.80518427286E+01  0.93877581716E+01  0.51100000000E-03 0.  1.
        -12    1    3    3    0    0 -0.28692233443E+02  0.26497497426E+02  0.10453666237E+02  0.40430690912E+02  0.00000000000E+00 0.  1.
</event>
<event>
 7    1  0.4195243E-015  0.9000744E+02  0.7816164E-02  0.1186340E+00
        -11   -1    0    0    0    0  0.00000000000E+00  0.00000000000E+00  0.45593999997E+02  0.45594000000E+02  0.51100000000E-03 0.  1.
         11   -1    0    0    0    0 -0.00000000000E+00 -0.00000000000E+00 -0.45593999997E+02  0.45594000000E+02  0.51100000000E-03 0. -1.
    9900012    2    1    2    0    0  0.10113526917E+00  0.73465220802E+00 -0.91856892853E+00  0.90007444586E+02  0.89999702054E+02 0.  0.
        -12    1    1    2    0    0 -0.10113526917E+00 -0.73465220802E+00  0.91856892853E+00  0.11805554142E+01  0.00000000000E+00 0.  1.
         11    1    3    3    0    0 -0.24899703065E+02 -0.24697083101E+01 -0.31290522032E+02  0.40064840461E+02  0.51100000000E-03 0. -1.
        -11    1    3    3    0    0  0.10967059600E+02 -0.23269327645E+01 -0.43968640254E+01  0.12042567246E+02  0.51100000000E-03 0.  1.
        -12    1    3    3    0    0  0.14033778735E+02  0.55312932826E+01  0.34768817128E+02  0.37900036879E+02  0.00000000000E+00 0.  1.
</event>
<event>
 7    1  0.4195243E-015  0.9000785E+02  0.7816164E-02  0.1186339E+00
        -11   -1    0    0    0    0  0.00000000000E+00  0.00000000000E+00  0.45593999997E+02  0.45594000000E+02  0.51100000000E-03 0.  1.
         11   -1    0    0    0    0 -0.00000000000E+00 -0.00000000000E+00 -0.45593999997E+02  0.45594000000E+02  0.51100000000E-03 0. -1.
    9900012    2    1    2    0    0 -0.34063701916E+00  0.71870503622E+00 -0.87188352372E+00  0.90007851117E+02  0.90000113951E+02 0.  0.
        -12    1    1    2    0    0  0.34063701916E+00 -0.71870503622E+00  0.87188352372E+00  0.11801488833E+01  0.00000000000E+00 0.  1.
         11    1    3    3    0    0  0.88024856191E+01 -0.34234140850E+02  0.12424290254E+02  0.37467627912E+02  0.51100000000E-03 0. -1.
        -11    1    3    3    0    0  0.11443084026E+02  0.83391164777E+01  0.39932191641E+01  0.14711588467E+02  0.51100000000E-03 0.  1.
        -12    1    3    3    0    0 -0.20586206665E+02  0.26613729408E+02 -0.17289392942E+02  0.37828634738E+02  0.00000000000E+00 0.  1.
</event>
<event>
 7    1  0.4195243E-015  0.9000779E+02  0.7816164E-02  0.1186339E+00
        -11   -1    0    0    0    0  0.00000000000E+00  0.00000000000E+00  0.45593999997E+02  0.45594000000E+02  0.51100000000E-03 0.  1.
         11   -1    0    0    0    0 -0.00000000000E+00 -0.00000000000E+00 -0.45593999997E+02  0.45594000000E+02  0.51100000000E-03 0. -1.
    9900012    2    1    2    0    0 -0.25185561811E+00  0.56457208981E+00 -0.10053471056E+01  0.90007789976E+02  0.90000052004E+02 0.  0.
        -12    1    1    2    0    0  0.25185561811E+00 -0.56457208981E+00  0.10053471056E+01  0.11802100236E+01  0.00000000000E+00 0.  1.
         11    1    3    3    0    0 -0.33035176491E+02 -0.52974997779E+01  0.12579165321E+02  0.35743835694E+02  0.51100000000E-03 0. -1.
        -11    1    3    3    0    0 -0.36056302499E+01  0.36190481719E+00  0.99437384036E+01  0.10583453042E+02  0.51100000000E-03 0.  1.
        -12    1    3    3    0    0  0.36388951123E+02  0.55001670505E+01 -0.23528250830E+02  0.43680501240E+02  0.00000000000E+00 0.  1.
</event>
<event>
 7    1  0.4195243E-015  0.9000773E+02  0.7816164E-02  0.1186339E+00
        -11   -1    0    0    0    0  0.00000000000E+00  0.00000000000E+00  0.45593999997E+02  0.45594000000E+02  0.51100000000E-03 0.  1.
         11   -1    0    0    0    0 -0.00000000000E+00 -0.00000000000E+00 -0.45593999997E+02  0.45594000000E+02  0.51100000000E-03 0. -1.
    9900012    2    1    2    0    0  0.30936568104E+00 -0.93652846537E+00 -0.64825879165E+00  0.90007732169E+02  0.89999993434E+02 0.  0.
        -12    1    1    2    0    0 -0.30936568104E+00  0.93652846537E+00  0.64825879165E+00  0.11802678306E+01  0.00000000000E+00 0.  1.
         11    1    3    3    0    0  0.52629763351E+01  0.74570294989E+01 -0.38813995939E+02  0.39872703568E+02  0.51100000000E-03 0. -1.
        -11    1    3    3    0    0  0.46011466916E+01 -0.98521904826E+01  0.11329025833E+00  0.10874237588E+02  0.51100000000E-03 0.  1.
        -12    1    3    3    0    0 -0.95547573457E+01  0.14586325183E+01  0.38052446889E+02  0.39260791013E+02  0.00000000000E+00 0.  1.
</event>
<event>
 7    1  0.4195243E-015  0.9000773E+02  0.7816164E-02  0.1186339E+00
        -11   -1    0    0    0    0  0.00000000000E+00  0.00000000000E+00  0.45593999997E+02  0.45594000000E+02  0.51100000000E-03 0.  1.
         11   -1    0    0    0    0 -0.00000000000E+00 -0.00000000000E+00 -0.45593999997E+02  0.45594000000E+02  0.51100000000E-03 0. -1.
    9900012    2    1    2    0    0 -0.11125216258E+01  0.31056246674E+00  0.24265019561E+00  0.90007732009E+02  0.89999993271E+02 0.  0.
        -12    1    1    2    0    0  0.11125216258E+01 -0.31056246674E+00 -0.24265019561E+00  0.11802679912E+01  0.00000000000E+00 0.  1.
         11    1    3    3    0    0 -0.15148456697E+01 -0.39093255078E-01  0.82809943359E+01  0.84185006467E+01  0.51100000000E-03 0. -1.
        -11    1    3    3    0    0 -0.18810610128E+02 -0.30259364376E+02 -0.23072273765E+02  0.42447591248E+02  0.51100000000E-03 0.  1.
         12    1    3    3    0    0  0.19212934172E+02  0.30609020098E+02  0.15033929624E+02  0.39141640114E+02  0.00000000000E+00 0. -1.
</event>
<event>
 7    1  0.4195243E-015  0.9000792E+02  0.7816164E-02  0.1186339E+00
        -11   -1    0    0    0    0  0.00000000000E+00  0.00000000000E+00  0.45593999997E+02  0.45594000000E+02  0.51100000000E-03 0.  1.
         11   -1    0    0    0    0 -0.00000000000E+00 -0.00000000000E+00 -0.45593999997E+02  0.45594000000E+02  0.51100000000E-03 0. -1.
    9900012    2    1    2    0    0 -0.63285329914E-01 -0.94840305461E+00 -0.69936404396E+00  0.90007922268E+02  0.90000186042E+02 0.  0.
        -12    1    1    2    0    0  0.63285329914E-01  0.94840305461E+00  0.69936404396E+00  0.11800777317E+01  0.00000000000E+00 0.  1.
         11    1    3    3    0    0  0.91635498023E+01 -0.91927438810E+00  0.45301735998E+01  0.10263439165E+02  0.51100000000E-03 0. -1.
        -11    1    3    3    0    0 -0.80878696091E+01 -0.39168567375E+02  0.14582263203E+01  0.40021453363E+02  0.51100000000E-03 0.  1.
         12    1    3    3    0    0 -0.11389655231E+01  0.39139438709E+02 -0.66877639640E+01  0.39723029740E+02  0.00000000000E+00 0. -1.
</event>
<event>
 7    1  0.4195243E-015  0.9000775E+02  0.7816164E-02  0.1186339E+00
        -11   -1    0    0    0    0  0.00000000000E+00  0.00000000000E+00  0.45593999997E+02  0.45594000000E+02  0.51100000000E-03 0.  1.
         11   -1    0    0    0    0 -0.00000000000E+00 -0.00000000000E+00 -0.45593999997E+02  0.45594000000E+02  0.51100000000E-03 0. -1.
    9900012    2    1    2    0    0  0.62841015435E+00  0.10867870047E+00 -0.99311446132E+00  0.90007751418E+02  0.90000012937E+02 0.  0.
        -12    1    1    2    0    0 -0.62841015435E+00 -0.10867870047E+00  0.99311446132E+00  0.11802485820E+01  0.00000000000E+00 0.  1.
         11    1    3    3    0    0 -0.14360099424E+01  0.81604225196E+00 -0.93606925054E+01  0.95052939961E+01  0.51100000000E-03 0. -1.
        -11    1    3    3    0    0 -0.36604668033E+02 -0.10499757939E+02 -0.50553393319E+01  0.38414881161E+02  0.51100000000E-03 0.  1.
         12    1    3    3    0    0  0.38669088130E+02  0.97923943879E+01  0.13422917376E+02  0.42087576261E+02  0.00000000000E+00 0. -1.
</event>
<event>
 7    1  0.4195243E-015  0.9000776E+02  0.7816164E-02  0.1186339E+00
        -11   -1    0    0    0    0  0.00000000000E+00  0.00000000000E+00  0.45593999997E+02  0.45594000000E+02  0.51100000000E-03 0.  1.
         11   -1    0    0    0    0 -0.00000000000E+00 -0.00000000000E+00 -0.45593999997E+02  0.45594000000E+02  0.51100000000E-03 0. -1.
    9900012    2    1    2    0    0 -0.83067163015E+00  0.25658287353E+00 -0.79819766882E+00  0.90007758649E+02  0.90000020263E+02 0.  0.
        -12    1    1    2    0    0  0.83067163015E+00 -0.25658287353E+00  0.79819766882E+00  0.11802413510E+01  0.00000000000E+00 0.  1.
         11    1    3    3    0    0  0.22438203509E+02  0.16963209605E+02 -0.20216777558E+02  0.34640172516E+02  0.51100000000E-03 0. -1.
        -11    1    3    3    0    0  0.32319632496E+01  0.89568941245E+01 -0.53607468460E+01  0.10927449191E+02  0.51100000000E-03 0.  1.
        -12    1    3    3    0    0 -0.26500838388E+02 -0.25663520856E+02  0.24779326735E+02  0.44440136943E+02  0.00000000000E+00 0.  1.
</event>
<event>
 7    1  0.4195243E-015  0.9000770E+02  0.7816164E-02  0.1186339E+00
        -11   -1    0    0    0    0  0.00000000000E+00  0.00000000000E+00  0.45593999997E+02  0.45594000000E+02  0.51100000000E-03 0. -1.
         11   -1    0    0    0    0 -0.00000000000E+00 -0.00000000000E+00 -0.45593999997E+02  0.45594000000E+02  0.51100000000E-03 0.  1.
    9900012    2    1    2    0    0  0.40500336330E+00 -0.69789425168E+00 -0.86140284670E+00  0.90007703861E+02  0.89999964752E+02 0.  0.
        -12    1    1    2    0    0 -0.40500336330E+00  0.69789425168E+00  0.86140284670E+00  0.11802961387E+01  0.00000000000E+00 0.  1.
         11    1    3    3    0    0  0.16740696998E+02 -0.43988572082E+00  0.11612394938E+02  0.20378718112E+02  0.51100000000E-03 0. -1.
        -11    1    3    3    0    0  0.19155444931E+02 -0.15752671162E+02 -0.17815384669E+02  0.30536300536E+02  0.51100000000E-03 0.  1.
         12    1    3    3    0    0 -0.35491138566E+02  0.15494662631E+02  0.53415868848E+01  0.39092685214E+02  0.00000000000E+00 0. -1.
</event>
<event>
 7    1  0.4195243E-015  0.9000773E+02  0.7816164E-02  0.1186339E+00
        -11   -1    0    0    0    0  0.00000000000E+00  0.00000000000E+00  0.45593999997E+02  0.45594000000E+02  0.51100000000E-03 0.  1.
         11   -1    0    0    0    0 -0.00000000000E+00 -0.00000000000E+00 -0.45593999997E+02  0.45594000000E+02  0.51100000000E-03 0. -1.
    9900012    2    1    2    0    0 -0.85608390459E-01  0.10995601447E+01 -0.42031911669E+00  0.90007733306E+02  0.89999994586E+02 0.  0.
        -12    1    1    2    0    0  0.85608390459E-01 -0.10995601447E+01  0.42031911669E+00  0.11802666936E+01  0.00000000000E+00 0.  1.
         11    1    3    3    0    0  0.54222741640E+00 -0.90487977530E+01 -0.40169889276E+01  0.99151879282E+01  0.51100000000E-03 0. -1.
        -11    1    3    3    0    0  0.27714602114E+02 -0.22686234234E+02  0.73262914940E+01  0.36557337722E+02  0.51100000000E-03 0.  1.
         12    1    3    3    0    0 -0.28342437921E+02  0.32834592132E+02 -0.37296216831E+01  0.43535207656E+02  0.00000000000E+00 0. -1.
</event>
<event>
 7    1  0.4195243E-015  0.9000775E+02  0.7816164E-02  0.1186339E+00
        -11   -1    0    0    0    0  0.00000000000E+00  0.00000000000E+00  0.45593999997E+02  0.45594000000E+02  0.51100000000E-03 0.  1.
         11   -1    0    0    0    0 -0.00000000000E+00 -0.00000000000E+00 -0.45593999997E+02  0.45594000000E+02  0.51100000000E-03 0. -1.
    9900012    2    1    2    0    0 -0.12940698792E+00  0.41853929882E+00 -0.10959327776E+01  0.90007750041E+02  0.90000011541E+02 0.  0.
        -12    1    1    2    0    0  0.12940698792E+00 -0.41853929882E+00  0.10959327776E+01  0.11802499592E+01  0.00000000000E+00 0.  1.
         11    1    3    3    0    0 -0.65905090390E+01  0.35229035426E+02  0.93692229473E+01  0.37044595900E+02  0.51100000000E-03 0. -1.
        -11    1    3    3    0    0  0.11863895233E+02  0.33409233192E+01 -0.72444560800E+01  0.14296710212E+02  0.51100000000E-03 0.  1.
        -12    1    3    3    0    0 -0.54027931815E+01 -0.38151419447E+02 -0.32206996449E+01  0.38666443930E+02  0.00000000000E+00 0.  1.
</event>
<event>
 7    1  0.4195243E-015  0.9000774E+02  0.7816164E-02  0.1186339E+00
        -11   -1    0    0    0    0  0.00000000000E+00  0.00000000000E+00  0.45593999997E+02  0.45594000000E+02  0.51100000000E-03 0.  1.
         11   -1    0    0    0    0 -0.00000000000E+00 -0.00000000000E+00 -0.45593999997E+02  0.45594000000E+02  0.51100000000E-03 0. -1.
    9900012    2    1    2    0    0  0.91904572301E-02  0.11353617453E+01 -0.32229617374E+00  0.90007743426E+02  0.90000004839E+02 0.  0.
        -12    1    1    2    0    0 -0.91904572301E-02 -0.11353617453E+01  0.32229617374E+00  0.11802565742E+01  0.00000000000E+00 0.  1.
         11    1    3    3    0    0 -0.47244784214E+01 -0.20208262052E+02  0.27784502698E+02  0.34679578168E+02  0.51100000000E-03 0. -1.
        -11    1    3    3    0    0  0.94736337739E+01 -0.45778762158E+01  0.60893679135E+01  0.12156771338E+02  0.51100000000E-03 0.  1.
        -12    1    3    3    0    0 -0.47399648952E+01  0.25921500013E+02 -0.34196166785E+02  0.43171393919E+02  0.00000000000E+00 0.  1.
</event>
<event>
 7    1  0.4195243E-015  0.9000777E+02  0.7816164E-02  0.1186339E+00
        -11   -1    0    0    0    0  0.00000000000E+00  0.00000000000E+00  0.45593999997E+02  0.45594000000E+02  0.51100000000E-03 0. -1.
         11   -1    0    0    0    0 -0.00000000000E+00 -0.00000000000E+00 -0.45593999997E+02  0.45594000000E+02  0.51100000000E-03 0.  1.
    9900012    2    1    2    0    0 -0.12206277253E+00 -0.67875879339E+00  0.95776739584E+00  0.90007774935E+02  0.90000036764E+02 0.  0.
        -12    1    1    2    0    0  0.12206277253E+00  0.67875879339E+00 -0.95776739584E+00  0.11802250652E+01  0.00000000000E+00 0.  1.
         11    1    3    3    0    0  0.12632573054E+02 -0.22856562053E+02  0.27753940920E+01  0.26262276052E+02  0.51100000000E-03 0. -1.
        -11    1    3    3    0    0  0.23431871151E+02  0.83925812420E+01  0.10882787869E+01  0.24913296782E+02  0.51100000000E-03 0.  1.
        -12    1    3    3    0    0 -0.36186506978E+02  0.13785222017E+02 -0.29059054830E+01  0.38832202101E+02  0.00000000000E+00 0.  1.
</event>
<event>
 7    1  0.4195243E-015  0.9000774E+02  0.7816164E-02  0.1186339E+00
        -11   -1    0    0    0    0  0.00000000000E+00  0.00000000000E+00  0.45593999997E+02  0.45594000000E+02  0.51100000000E-03 0. -1.
         11   -1    0    0    0    0 -0.00000000000E+00 -0.00000000000E+00 -0.45593999997E+02  0.45594000000E+02  0.51100000000E-03 0.  1.
    9900012    2    1    2    0    0  0.34588584612E+00 -0.10898211399E+01  0.29270582618E+00  0.90007735692E+02  0.89999997003E+02 0.  0.
        -12    1    1    2    0    0 -0.34588584612E+00  0.10898211399E+01 -0.29270582618E+00  0.11802643078E+01  0.00000000000E+00 0.  1.
         11    1    3    3    0    0  0.24940951682E+02  0.25315561765E+02  0.22365892482E+02  0.41990021255E+02  0.51100000000E-03 0. -1.
        -11    1    3    3    0    0 -0.15125621430E+01  0.30217978817E+01 -0.68500340886E+01  0.76381983445E+01  0.51100000000E-03 0.  1.
        -12    1    3    3    0    0 -0.23082503693E+02 -0.29427180786E+02 -0.15223152567E+02  0.40379516092E+02  0.00000000000E+00 0.  1.
</event>
<event>
 7    1  0.4195243E-015  0.9000757E+02  0.7816164E-02  0.1186339E+00
        -11   -1    0    0    0    0  0.00000000000E+00  0.00000000000E+00  0.45593999997E+02  0.45594000000E+02  0.51100000000E-03 0.  1.
         11   -1    0    0    0    0 -0.00000000000E+00 -0.00000000000E+00 -0.45593999997E+02  0.45594000000E+02  0.51100000000E-03 0. -1.
    9900012    2    1    2    0    0  0.50744111459E+00 -0.10610419576E+01 -0.10050257567E+00  0.90007573260E+02  0.89999832427E+02 0.  0.
        -12    1    1    2    0    0 -0.50744111459E+00  0.10610419576E+01  0.10050257567E+00  0.11804267399E+01  0.00000000000E+00 0.  1.
         11    1    3    3    0    0  0.30545545915E+02 -0.85895202066E+01 -0.16556299384E+02  0.35789960634E+02  0.51100000000E-03 0. -1.
        -11    1    3    3    0    0  0.68453740808E+01 -0.11606350819E+01 -0.68317894428E+01  0.97406143211E+01  0.51100000000E-03 0.  1.
        -12    1    3    3    0    0 -0.36883478881E+02  0.86891133310E+01  0.23287586252E+02  0.44476998305E+02  0.00000000000E+00 0.  1.
</event>
<event>
 7    1  0.4195243E-015  0.9000782E+02  0.7816164E-02  0.1186339E+00
        -11   -1    0    0    0    0  0.00000000000E+00  0.00000000000E+00  0.45593999997E+02  0.45594000000E+02  0.51100000000E-03 0.  1.
         11   -1    0    0    0    0 -0.00000000000E+00 -0.00000000000E+00 -0.45593999997E+02  0.45594000000E+02  0.51100000000E-03 0. -1.
    9900012    2    1    2    0    0  0.25128303776E+00 -0.70221044993E+00 -0.91464750410E+00  0.90007820887E+02  0.90000083323E+02 0.  0.
        -12    1    1    2    0    0 -0.25128303776E+00  0.70221044993E+00  0.91464750410E+00  0.11801791126E+01  0.00000000000E+00 0.  1.
         11    1    3    3    0    0 -0.80101745325E+01  0.39811265513E+01  0.27895460587E+00  0.89493061515E+01  0.51100000000E-03 0. -1.
        -11    1    3    3    0    0 -0.15721037382E+02 -0.92759090317E+01  0.33784504468E+02  0.38400341758E+02  0.51100000000E-03 0.  1.
         12    1    3    3    0    0  0.23982494953E+02  0.45925720305E+01 -0.34978106578E+02  0.42658172978E+02  0.00000000000E+00 0. -1.
</event>
<event>
 7    1  0.4195243E-015  0.9000784E+02  0.7816164E-02  0.1186339E+00
        -11   -1    0    0    0    0  0.00000000000E+00  0.00000000000E+00  0.45593999997E+02  0.45594000000E+02  0.51100000000E-03 0.  1.
         11   -1    0    0    0    0 -0.00000000000E+00 -0.00000000000E+00 -0.45593999997E+02  0.45594000000E+02  0.51100000000E-03 0. -1.
    9900012    2    1    2    0    0 -0.67698688069E+00  0.71001978905E+00 -0.65600966681E+00  0.90007835596E+02  0.90000098226E+02 0.  0.
        -12    1    1    2    0    0  0.67698688069E+00 -0.71001978905E+00  0.65600966681E+00  0.11801644040E+01  0.00000000000E+00 0.  1.
         11    1    3    3    0    0  0.14124737704E+02  0.19873553702E+02 -0.35241160632E+02  0.42853305064E+02  0.51100000000E-03 0. -1.
        -11    1    3    3    0    0  0.54404435514E+01 -0.43218125358E+01  0.71586667965E+01  0.99761215006E+01  0.51100000000E-03 0.  1.
        -12    1    3    3    0    0 -0.20242168136E+02 -0.14841721377E+02  0.27426484168E+02  0.37178409032E+02  0.00000000000E+00 0.  1.
</event>
<event>
 7    1  0.4195243E-015  0.9000780E+02  0.7816164E-02  0.1186339E+00
        -11   -1    0    0    0    0  0.00000000000E+00  0.00000000000E+00  0.45593999997E+02  0.45594000000E+02  0.51100000000E-03 0. -1.
         11   -1    0    0    0    0 -0.00000000000E+00 -0.00000000000E+00 -0.45593999997E+02  0.45594000000E+02  0.51100000000E-03 0.  1.
    9900012    2    1    2    0    0 -0.96967943052E+00  0.22441374326E+00  0.63422684852E+00  0.90007795178E+02  0.90000057274E+02 0.  0.
        -12    1    1    2    0    0  0.96967943052E+00 -0.22441374326E+00 -0.63422684852E+00  0.11802048219E+01  0.00000000000E+00 0.  1.
         11    1    3    3    0    0  0.43262431836E+01 -0.62436064655E+01  0.57245163764E+01  0.95115240517E+01  0.51100000000E-03 0. -1.
        -11    1    3    3    0    0 -0.39380641509E+02 -0.12305426127E+02 -0.50945752017E-01  0.41258466204E+02  0.51100000000E-03 0.  1.
         12    1    3    3    0    0  0.34084718894E+02  0.18773446336E+02 -0.50393437759E+01  0.39237804922E+02  0.00000000000E+00 0. -1.
</event>
<event>
 7    1  0.4195243E-015  0.9000778E+02  0.7816164E-02  0.1186339E+00
        -11   -1    0    0    0    0  0.00000000000E+00  0.00000000000E+00  0.45593999997E+02  0.45594000000E+02  0.51100000000E-03 0. -1.
         11   -1    0    0    0    0 -0.00000000000E+00 -0.00000000000E+00 -0.45593999997E+02  0.45594000000E+02  0.51100000000E-03 0.  1.
    9900012    2    1    2    0    0  0.55780816616E+00  0.46550859344E+00  0.93008826272E+00  0.90007782911E+02  0.90000044845E+02 0.  0.
        -12    1    1    2    0    0 -0.55780816616E+00 -0.46550859344E+00 -0.93008826272E+00  0.11802170890E+01  0.00000000000E+00 0.  1.
         11    1    3    3    0    0  0.45270152337E+01  0.15033470388E+01  0.93532000550E+01  0.10499346207E+02  0.51100000000E-03 0. -1.
        -11    1    3    3    0    0 -0.37338664223E+02  0.16328707306E+02  0.85956433188E+00  0.40762009020E+02  0.51100000000E-03 0.  1.
         12    1    3    3    0    0  0.33369457156E+02 -0.17366545752E+02 -0.92826761241E+01  0.38746427684E+02  0.00000000000E+00 0. -1.
</event>
<event>
 7    1  0.4195243E-015  0.9000778E+02  0.7816164E-02  0.1186339E+00
        -11   -1    0    0    0    0  0.00000000000E+00  0.00000000000E+00  0.45593999997E+02  0.45594000000E+02  0.51100000000E-03 0. -1.
         11   -1    0    0    0    0 -0.00000000000E+00 -0.00000000000E+00 -0.45593999997E+02  0.45594000000E+02  0.51100000000E-03 0.  1.
    9900012    2    1    2    0    0  0.26105127750E+00  0.11086779614E+01  0.30918417310E+00  0.90007784153E+02  0.90000046104E+02 0.  0.
        -12    1    1    2    0    0 -0.26105127750E+00 -0.11086779614E+01 -0.30918417310E+00  0.11802158465E+01  0.00000000000E+00 0.  1.
         11    1    3    3    0    0  0.14915265785E+01 -0.74262318894E+01 -0.64544837098E+01  0.99515793636E+01  0.51100000000E-03 0. -1.
        -11    1    3    3    0    0 -0.27215500570E+02 -0.37132861127E+01 -0.25061986338E+02  0.37182995099E+02  0.51100000000E-03 0.  1.
         12    1    3    3    0    0  0.25985025269E+02  0.12248195963E+02  0.31825654221E+02  0.42873209691E+02  0.00000000000E+00 0. -1.
</event>
<event>
 7    1  0.4195243E-015  0.9000762E+02  0.7816164E-02  0.1186339E+00
        -11   -1    0    0    0    0  0.00000000000E+00  0.00000000000E+00  0.45593999997E+02  0.45594000000E+02  0.51100000000E-03 0.  1.
         11   -1    0    0    0    0 -0.00000000000E+00 -0.00000000000E+00 -0.45593999997E+02  0.45594000000E+02  0.51100000000E-03 0. -1.
    9900012    2    1    2    0    0 -0.26880814293E+00  0.11011865907E+01 -0.32928102530E+00  0.90007620519E+02  0.89999880310E+02 0.  0.
        -12    1    1    2    0    0  0.26880814293E+00 -0.11011865907E+01  0.32928102530E+00  0.11803794809E+01  0.00000000000E+00 0.  1.
         11    1    3    3    0    0  0.13377089216E+01  0.35809217533E+02 -0.10046302914E+02  0.37215826311E+02  0.51100000000E-03 0. -1.
        -11    1    3    3    0    0 -0.57741710603E+01  0.73675609975E+01  0.37818591500E+01  0.10095764725E+02  0.51100000000E-03 0.  1.
        -12    1    3    3    0    0  0.41676539958E+01 -0.42075591940E+02  0.59351627386E+01  0.42696029484E+02  0.00000000000E+00 0.  1.
</event>
<event>
 7    1  0.4195243E-015  0.9000766E+02  0.7816164E-02  0.1186339E+00
        -11   -1    0    0    0    0  0.00000000000E+00  0.00000000000E+00  0.45593999997E+02  0.45594000000E+02  0.51100000000E-03 0.  1.
         11   -1    0    0    0    0 -0.00000000000E+00 -0.00000000000E+00 -0.45593999997E+02  0.45594000000E+02  0.51100000000E-03 0. -1.
    9900012    2    1    2    0    0 -0.11588391785E+01  0.22426662393E+00 -0.12469814696E-02  0.90007658814E+02  0.89999919110E+02 0.  0.
        -12    1    1    2    0    0  0.11588391785E+01 -0.22426662393E+00  0.12469814696E-02  0.11803411860E+01  0.00000000000E+00 0.  1.
         11    1    3    3    0    0  0.19786200787E+02 -0.12543078222E+02 -0.32814694913E+02  0.40319061936E+02  0.51100000000E-03 0. -1.
        -11    1    3    3    0    0  0.36520512291E+00 -0.75082803246E+01  0.40099975236E+01  0.85198432272E+01  0.51100000000E-03 0.  1.
        -12    1    3    3    0    0 -0.21310245089E+02  0.20275625170E+02  0.28803450408E+02  0.41168753651E+02  0.00000000000E+00 0.  1.
</event>
<event>
 7    1  0.4195243E-015  0.9000788E+02  0.7816164E-02  0.1186339E+00
        -11   -1    0    0    0    0  0.00000000000E+00  0.00000000000E+00  0.45593999997E+02  0.45594000000E+02  0.51100000000E-03 0.  1.
         11   -1    0    0    0    0 -0.00000000000E+00 -0.00000000000E+00 -0.45593999997E+02  0.45594000000E+02  0.51100000000E-03 0. -1.
    9900012    2    1    2    0    0  0.62027339510E+00  0.16293145573E+00 -0.99065291801E+00  0.90007881808E+02  0.90000145047E+02 0.  0.
        -12    1    1    2    0    0 -0.62027339510E+00 -0.16293145573E+00  0.99065291801E+00  0.11801181923E+01  0.00000000000E+00 0.  1.
         11    1    3    3    0    0  0.93255206036E+01  0.41003407645E+02  0.16237827464E+01  0.42081842209E+02  0.51100000000E-03 0. -1.
        -11    1    3    3    0    0 -0.21530826546E+01 -0.40685678378E+01  0.78823611207E+01  0.91280132705E+01  0.51100000000E-03 0.  1.
        -12    1    3    3    0    0 -0.65521645539E+01 -0.36771908352E+02 -0.10496796785E+02  0.38798026328E+02  0.00000000000E+00 0.  1.
</event>
<event>
 7    1  0.4195243E-015  0.9000772E+02  0.7816164E-02  0.1186339E+00
        -11   -1    0    0    0    0  0.00000000000E+00  0.00000000000E+00  0.45593999997E+02  0.45594000000E+02  0.51100000000E-03 0. -1.
         11   -1    0    0    0    0 -0.00000000000E+00 -0.00000000000E+00 -0.45593999997E+02  0.45594000000E+02  0.51100000000E-03 0.  1.
    9900012    2    1    2    0    0  0.10959777928E+01 -0.20521362819E+00  0.38702873911E+00  0.90007715627E+02  0.89999976674E+02 0.  0.
        -12    1    1    2    0    0 -0.10959777928E+01  0.20521362819E+00 -0.38702873911E+00  0.11802843727E+01  0.00000000000E+00 0.  1.
         11    1    3    3    0    0  0.10066731193E+02 -0.52238120287E+00  0.35523832255E+02  0.36926340428E+02  0.51100000000E-03 0. -1.
        -11    1    3    3    0    0  0.24938416502E+01 -0.11307493154E+01  0.79832404100E+01  0.84397848252E+01  0.51100000000E-03 0.  1.
        -12    1    3    3    0    0 -0.11464595051E+02  0.14479168901E+01 -0.43120043926E+02  0.44641590374E+02  0.00000000000E+00 0.  1.
</event>
<event>
 7    1  0.4195243E-015  0.9000769E+02  0.7816164E-02  0.1186339E+00
        -11   -1    0    0    0    0  0.00000000000E+00  0.00000000000E+00  0.45593999997E+02  0.45594000000E+02  0.51100000000E-03 0. -1.
         11   -1    0    0    0    0 -0.00000000000E+00 -0.00000000000E+00 -0.45593999997E+02  0.45594000000E+02  0.51100000000E-03 0.  1.
    9900012    2    1    2    0    0 -0.74549843552E+00 -0.83097640872E+00  0.38320282741E+00  0.90007688975E+02  0.89999949669E+02 0.  0.
        -12    1    1    2    0    0  0.74549843552E+00  0.83097640872E+00 -0.38320282741E+00  0.11803110252E+01  0.00000000000E+00 0.  1.
         11    1    3    3    0    0 -0.83867132082E+01 -0.28440466364E+02  0.25943836242E+02  0.39398981264E+02  0.51100000000E-03 0. -1.
        -11    1    3    3    0    0 -0.31527167757E+01 -0.66903516705E+01 -0.68177736337E+01  0.10058949554E+02  0.51100000000E-03 0.  1.
        -12    1    3    3    0    0  0.10793931548E+02  0.34299841626E+02 -0.18742859781E+02  0.40549758157E+02  0.00000000000E+00 0.  1.
</event>
<event>
 7    1  0.4195243E-015  0.9000788E+02  0.7816164E-02  0.1186339E+00
        -11   -1    0    0    0    0  0.00000000000E+00  0.00000000000E+00  0.45593999997E+02  0.45594000000E+02  0.51100000000E-03 0. -1.
         11   -1    0    0    0    0 -0.00000000000E+00 -0.00000000000E+00 -0.45593999997E+02  0.45594000000E+02  0.51100000000E-03 0.  1.
    9900012    2    1    2    0    0  0.62704711630E+00  0.86025630899E+00  0.50937372290E+00  0.90007876874E+02  0.90000140049E+02 0.  0.
        -12    1    1    2    0    0 -0.62704711630E+00 -0.86025630899E+00 -0.50937372290E+00  0.11801231261E+01  0.00000000000E+00 0.  1.
         11    1    3    3    0    0  0.34245516462E+02  0.68581493407E+01  0.13494003048E+02  0.37441657664E+02  0.51100000000E-03 0. -1.
        -11    1    3    3    0    0  0.80422372139E+01  0.82844004128E+00  0.87759279801E+00  0.81322851455E+01  0.51100000000E-03 0.  1.
        -12    1    3    3    0    0 -0.41660706559E+02 -0.68263330730E+01 -0.13862222123E+02  0.44433934064E+02  0.00000000000E+00 0.  1.
</event>
<event>
 7    1  0.4195243E-015  0.9000767E+02  0.7816164E-02  0.1186339E+00
        -11   -1    0    0    0    0  0.00000000000E+00  0.00000000000E+00  0.45593999997E+02  0.45594000000E+02  0.51100000000E-03 0.  1.
         11   -1    0    0    0    0 -0.00000000000E+00 -0.00000000000E+00 -0.45593999997E+02  0.45594000000E+02  0.51100000000E-03 0. -1.
    9900012    2    1    2    0    0 -0.24056702662E+00  0.10088456312E+01 -0.56350083231E+00  0.90007671575E+02  0.89999932040E+02 0.  0.
        -12    1    1    2    0    0  0.24056702662E+00 -0.10088456312E+01  0.56350083231E+00  0.11803284246E+01  0.00000000000E+00 0.  1.
         11    1    3    3    0    0  0.21071860904E+01 -0.78046073634E+01 -0.78195033289E+01  0.11247077927E+02  0.51100000000E-03 0. -1.
        -11    1    3    3    0    0  0.33986834497E+00 -0.28672998685E+02 -0.17652554951E+02  0.33672972257E+02  0.51100000000E-03 0.  1.
         12    1    3    3    0    0 -0.26876214620E+01  0.37486451679E+02  0.24908557447E+02  0.45087621392E+02  0.00000000000E+00 0. -1.
</event>
<event>
 7    1  0.4195243E-015  0.9000781E+02  0.7816164E-02  0.1186339E+00
        -11   -1    0    0    0    0  0.00000000000E+00  0.00000000000E+00  0.45593999997E+02  0.45594000000E+02  0.51100000000E-03 0.  1.
         11   -1    0    0    0    0 -0.00000000000E+00 -0.00000000000E+00 -0.45593999997E+02  0.45594000000E+02  0.51100000000E-03 0. -1.
    9900012    2    1    2    0    0  0.76315531427E+00  0.78936884149E+00 -0.43283011108E+00  0.90007808869E+02  0.90000071146E+02 0.  0.
        -12    1    1    2    0    0 -0.76315531427E+00 -0.78936884149E+00  0.43283011108E+00  0.11801911314E+01  0.00000000000E+00 0.  1.
         11    1    3    3    0    0  0.31651655530E+01  0.89004136229E+00  0.95904046722E+01  0.10138358281E+02  0.51100000000E-03 0. -1.
        -11    1    3    3    0    0  0.82070981749E+01  0.92394386624E+01  0.32652994056E+02  0.34913345705E+02  0.51100000000E-03 0.  1.
         12    1    3    3    0    0 -0.10609108414E+02 -0.93401111832E+01 -0.42676228839E+02  0.44956104882E+02  0.00000000000E+00 0. -1.
</event>
<event>
 7    1  0.4195243E-015  0.9000777E+02  0.7816164E-02  0.1186339E+00
        -11   -1    0    0    0    0  0.00000000000E+00  0.00000000000E+00  0.45593999997E+02  0.45594000000E+02  0.51100000000E-03 0. -1.
         11   -1    0    0    0    0 -0.00000000000E+00 -0.00000000000E+00 -0.45593999997E+02  0.45594000000E+02  0.51100000000E-03 0.  1.
    9900012    2    1    2    0    0 -0.84753017618E+00 -0.72564838025E+00 -0.38480454125E+00  0.90007768029E+02  0.90000029767E+02 0.  0.
        -12    1    1    2    0    0  0.84753017618E+00  0.72564838025E+00  0.38480454125E+00  0.11802319714E+01  0.00000000000E+00 0.  1.
         11    1    3    3    0    0  0.43763420011E+01  0.41510938822E+02 -0.74065417753E+01  0.42393009713E+02  0.51100000000E-03 0. -1.
        -11    1    3    3    0    0 -0.90210187969E+01 -0.67026214223E+01  0.24227907562E+00  0.11241112644E+02  0.51100000000E-03 0.  1.
        -12    1    3    3    0    0  0.37971466196E+01 -0.35533965780E+02  0.67794581585E+01  0.36373645671E+02  0.00000000000E+00 0.  1.
</event>
<event>
 7    1  0.4195243E-015  0.9000773E+02  0.7816164E-02  0.1186339E+00
        -11   -1    0    0    0    0  0.00000000000E+00  0.00000000000E+00  0.45593999997E+02  0.45594000000E+02  0.51100000000E-03 0.  1.
         11   -1    0    0    0    0 -0.00000000000E+00 -0.00000000000E+00 -0.45593999997E+02  0.45594000000E+02  0.51100000000E-03 0. -1.
    9900012    2    1    2    0    0 -0.11541558239E+01 -0.71628039272E-01 -0.23629751108E+00  0.90007727677E+02  0.89999988883E+02 0.  0.
        -12    1    1    2    0    0  0.11541558239E+01  0.71628039272E-01  0.23629751108E+00  0.11802723226E+01  0.00000000000E+00 0.  1.
         11    1    3    3    0    0  0.48938549151E+01  0.67877930337E+01 -0.46581362185E+01  0.95771699103E+01  0.51100000000E-03 0. -1.
        -11    1    3    3    0    0 -0.41319465552E+01  0.16944861544E+02  0.36491749411E+02  0.40445631290E+02  0.51100000000E-03 0.  1.
         12    1    3    3    0    0 -0.19160641839E+01 -0.23804282617E+02 -0.32069910703E+02  0.39984926477E+02  0.00000000000E+00 0. -1.
</event>
<event>
 7    1  0.4195243E-015  0.9000784E+02  0.7816164E-02  0.1186339E+00
        -11   -1    0    0    0    0  0.00000000000E+00  0.00000000000E+00  0.45593999997E+02  0.45594000000E+02  0.51100000000E-03 0. -1.
         11   -1    0    0    0    0 -0.00000000000E+00 -0.00000000000E+00 -0.45593999997E+02  0.45594000000E+02  0.51100000000E-03 0.  1.
    9900012    2    1    2    0    0 -0.77277111763E+00  0.39348220809E+00 -0.80048119036E+00  0.90007841712E+02  0.90000104423E+02 0.  0.
        -12    1    1    2    0    0  0.77277111763E+00 -0.39348220809E+00  0.80048119036E+00  0.11801582879E+01  0.00000000000E+00 0.  1.
         11    1    3    3    0    0 -0.10330944534E+01 -0.59601999410E+01 -0.54641683688E+01  0.81515890298E+01  0.51100000000E-03 0. -1.
        -11    1    3    3    0    0 -0.26853613746E+02 -0.77291150075E-01 -0.28084298182E+02  0.38856792839E+02  0.51100000000E-03 0.  1.
         12    1    3    3    0    0  0.27113937082E+02  0.64309732992E+01  0.32747985360E+02  0.42999459843E+02  0.00000000000E+00 0. -1.
</event>
<event>
 7    1  0.4195243E-015  0.9000762E+02  0.7816164E-02  0.1186339E+00
        -11   -1    0    0    0    0  0.00000000000E+00  0.00000000000E+00  0.45593999997E+02  0.45594000000E+02  0.51100000000E-03 0. -1.
         11   -1    0    0    0    0 -0.00000000000E+00 -0.00000000000E+00 -0.45593999997E+02  0.45594000000E+02  0.51100000000E-03 0.  1.
    9900012    2    1    2    0    0 -0.86895546599E+00 -0.72990073686E+00 -0.32473747088E+00  0.90007621623E+02  0.89999881428E+02 0.  0.
        -12    1    1    2    0    0  0.86895546599E+00  0.72990073686E+00  0.32473747088E+00  0.11803783769E+01  0.00000000000E+00 0.  1.
         11    1    3    3    0    0  0.19539313679E+02 -0.49604221085E+01  0.84519905861E+01  0.21859247738E+02  0.51100000000E-03 0. -1.
        -11    1    3    3    0    0  0.14480966076E+02 -0.55441852397E+01 -0.24222806252E+02  0.28760749494E+02  0.51100000000E-03 0.  1.
        -12    1    3    3    0    0 -0.34889235221E+02  0.97747066113E+01  0.15446078195E+02  0.39387624392E+02  0.00000000000E+00 0.  1.
</event>
<event>
 7    1  0.4195243E-015  0.9000772E+02  0.7816164E-02  0.1186339E+00
        -11   -1    0    0    0    0  0.00000000000E+00  0.00000000000E+00  0.45593999997E+02  0.45594000000E+02  0.51100000000E-03 0. -1.
         11   -1    0    0    0    0 -0.00000000000E+00 -0.00000000000E+00 -0.45593999997E+02  0.45594000000E+02  0.51100000000E-03 0.  1.
    9900012    2    1    2    0    0 -0.68218024266E+00 -0.46530087650E+00 -0.84331976022E+00  0.90007719098E+02  0.89999980190E+02 0.  0.
        -12    1    1    2    0    0  0.68218024266E+00  0.46530087650E+00  0.84331976022E+00  0.11802809018E+01  0.00000000000E+00 0.  1.
         11    1    3    3    0    0  0.70207642510E+01  0.57520751697E+01  0.99635568940E+01  0.13477758184E+02  0.51100000000E-03 0. -1.
        -11    1    3    3    0    0 -0.22884318542E+02 -0.27183629008E+02 -0.28182941315E+02  0.45353278852E+02  0.51100000000E-03 0.  1.
         12    1    3    3    0    0  0.15181374049E+02  0.20966252962E+02  0.17376064661E+02  0.31176682062E+02  0.00000000000E+00 0. -1.
</event>
<event>
 7    1  0.4195243E-015  0.9000772E+02  0.7816164E-02  0.1186339E+00
        -11   -1    0    0    0    0  0.00000000000E+00  0.00000000000E+00  0.45593999997E+02  0.45594000000E+02  0.51100000000E-03 0.  1.
         11   -1    0    0    0    0 -0.00000000000E+00 -0.00000000000E+00 -0.45593999997E+02  0.45594000000E+02  0.51100000000E-03 0. -1.
    9900012    2    1    2    0    0  0.61454707905E+00  0.70668991903E+00 -0.71831387693E+00  0.90007723092E+02  0.89999984237E+02 0.  0.
        -12    1    1    2    0    0 -0.61454707905E+00 -0.70668991903E+00  0.71831387693E+00  0.11802769081E+01  0.00000000000E+00 0.  1.
         11    1    3    3    0    0 -0.95564721635E+01 -0.18621640894E+00  0.59810066389E+00  0.95769808096E+01  0.51100000000E-03 0. -1.
        -11    1    3    3    0    0 -0.20857333776E+02  0.16508150977E+02 -0.26483628836E+02  0.37535716558E+02  0.51100000000E-03 0.  1.
         12    1    3    3    0    0  0.31028353019E+02 -0.15615244649E+02  0.25167214296E+02  0.42895025724E+02  0.00000000000E+00 0. -1.
</event>
<event>
 7    1  0.4195243E-015  0.9000771E+02  0.7816164E-02  0.1186339E+00
        -11   -1    0    0    0    0  0.00000000000E+00  0.00000000000E+00  0.45593999997E+02  0.45594000000E+02  0.51100000000E-03 0. -1.
         11   -1    0    0    0    0 -0.00000000000E+00 -0.00000000000E+00 -0.45593999997E+02  0.45594000000E+02  0.51100000000E-03 0.  1.
    9900012    2    1    2    0    0 -0.49044864290E+00 -0.71589268562E+00  0.80003150164E+00  0.90007706557E+02  0.89999967483E+02 0.  0.
        -12    1    1    2    0    0  0.49044864290E+00  0.71589268562E+00 -0.80003150164E+00  0.11802934433E+01  0.00000000000E+00 0.  1.
         11    1    3    3    0    0 -0.10173387251E+02  0.28284252118E+01  0.10396125673E+01  0.10610305928E+02  0.51100000000E-03 0. -1.
        -11    1    3    3    0    0 -0.14758800744E+02 -0.25022834388E+02 -0.25144940656E+02  0.38421770926E+02  0.51100000000E-03 0.  1.
         12    1    3    3    0    0  0.24441739352E+02  0.21478516491E+02  0.24905359590E+02  0.40975629703E+02  0.00000000000E+00 0. -1.
</event>
<event>
 7    1  0.4195243E-015  0.9000773E+02  0.7816164E-02  0.1186339E+00
        -11   -1    0    0    0    0  0.00000000000E+00  0.00000000000E+00  0.45593999997E+02  0.45594000000E+02  0.51100000000E-03 0. -1.
         11   -1    0    0    0    0 -0.00000000000E+00 -0.00000000000E+00 -0.45593999997E+02  0.45594000000E+02  0.51100000000E-03 0.  1.
    9900012    2    1    2    0    0 -0.76074845786E-01  0.39281300395E+00  0.11103860103E+01  0.90007726078E+02  0.89999987263E+02 0.  0.
        -12    1    1    2    0    0  0.76074845786E-01 -0.39281300395E+00 -0.11103860103E+01  0.11802739217E+01  0.00000000000E+00 0.  1.
         11    1    3    3    0    0  0.31769370617E+00  0.32068552204E+01  0.90164555617E+01  0.95750363369E+01  0.51100000000E-03 0. -1.
        -11    1    3    3    0    0 -0.36358605064E+02  0.90023229511E+01  0.96858447993E+01  0.38688571574E+02  0.51100000000E-03 0.  1.
         12    1    3    3    0    0  0.35964836512E+02 -0.11816365168E+02 -0.17591914351E+02  0.41744118168E+02  0.00000000000E+00 0. -1.
</event>
<event>
 7    1  0.4195243E-015  0.9000768E+02  0.7816164E-02  0.1186339E+00
        -11   -1    0    0    0    0  0.00000000000E+00  0.00000000000E+00  0.45593999997E+02  0.45594000000E+02  0.51100000000E-03 0.  1.
         11   -1    0    0    0    0 -0.00000000000E+00 -0.00000000000E+00 -0.45593999997E+02  0.45594000000E+02  0.51100000000E-03 0. -1.
    9900012    2    1    2    0    0  0.74113148406E+00  0.74380107787E+00  0.53911743900E+00  0.90007676513E+02  0.89999937043E+02 0.  0.
        -12    1    1    2    0    0 -0.74113148406E+00 -0.74380107787E+00 -0.53911743900E+00  0.11803234867E+01  0.00000000000E+00 0.  1.
         11    1    3    3    0    0 -0.11943804803E+02 -0.18107604315E+02 -0.10256827978E+02  0.23994631225E+02  0.51100000000E-03 0. -1.
        -11    1    3    3    0    0 -0.10758689929E+02 -0.17792253255E+02 -0.13858890778E+01  0.20838291045E+02  0.51100000000E-03 0.  1.
         12    1    3    3    0    0  0.23443626216E+02  0.36643658648E+02  0.12181834494E+02  0.45174754243E+02  0.00000000000E+00 0. -1.
</event>
<event>
 7    1  0.4195243E-015  0.9000793E+02  0.7816164E-02  0.1186339E+00
        -11   -1    0    0    0    0  0.00000000000E+00  0.00000000000E+00  0.45593999997E+02  0.45594000000E+02  0.51100000000E-03 0.  1.
         11   -1    0    0    0    0 -0.00000000000E+00 -0.00000000000E+00 -0.45593999997E+02  0.45594000000E+02  0.51100000000E-03 0. -1.
    9900012    2    1    2    0    0  0.38362995973E+00  0.91427393563E+00 -0.63991996500E+00  0.90007929520E+02  0.90000193390E+02 0.  0.
        -12    1    1    2    0    0 -0.38362995973E+00 -0.91427393563E+00  0.63991996500E+00  0.11800704797E+01  0.00000000000E+00 0.  1.
         11    1    3    3    0    0  0.25823843100E+01  0.12782506797E+02 -0.86766329086E+01  0.15663497299E+02  0.51100000000E-03 0. -1.
        -11    1    3    3    0    0  0.19240241979E+02 -0.13578717439E+02  0.33540924569E+02  0.40982460881E+02  0.51100000000E-03 0.  1.
         12    1    3    3    0    0 -0.21438996329E+02  0.17104845777E+01 -0.25504211626E+02  0.33361971340E+02  0.00000000000E+00 0. -1.
</event>
<event>
 7    1  0.4195243E-015  0.9000743E+02  0.7816164E-02  0.1186340E+00
        -11   -1    0    0    0    0  0.00000000000E+00  0.00000000000E+00  0.45593999997E+02  0.45594000000E+02  0.51100000000E-03 0.  1.
         11   -1    0    0    0    0 -0.00000000000E+00 -0.00000000000E+00 -0.45593999997E+02  0.45594000000E+02  0.51100000000E-03 0. -1.
    9900012    2    1    2    0    0 -0.73640788016E+00 -0.81042470042E+00 -0.44120389885E+00  0.90007429951E+02  0.89999687225E+02 0.  0.
        -12    1    1    2    0    0  0.73640788016E+00  0.81042470042E+00  0.44120389885E+00  0.11805700493E+01  0.00000000000E+00 0.  1.
         11    1    3    3    0    0  0.31883044365E+01  0.72893588604E+01 -0.43143100350E+01  0.90505971689E+01  0.51100000000E-03 0. -1.
        -11    1    3    3    0    0  0.83765878513E+01  0.34541205935E+02  0.78504398198E+01  0.36399059563E+02  0.51100000000E-03 0.  1.
         12    1    3    3    0    0 -0.12301300168E+02 -0.42640989495E+02 -0.39773336837E+01  0.44557773219E+02  0.00000000000E+00 0. -1.
</event>
<event>
 7    1  0.4195243E-015  0.9000787E+02  0.7816164E-02  0.1186339E+00
        -11   -1    0    0    0    0  0.00000000000E+00  0.00000000000E+00  0.45593999997E+02  0.45594000000E+02  0.51100000000E-03 0.  1.
         11   -1    0    0    0    0 -0.00000000000E+00 -0.00000000000E+00 -0.45593999997E+02  0.45594000000E+02  0.51100000000E-03 0. -1.
    9900012    2    1    2    0    0 -0.80669343498E+00 -0.59569358164E+00 -0.62218047726E+00  0.90007867089E+02  0.90000130135E+02 0.  0.
        -12    1    1    2    0    0  0.80669343498E+00  0.59569358164E+00  0.62218047726E+00  0.11801329110E+01  0.00000000000E+00 0.  1.
         11    1    3    3    0    0 -0.39605974993E+02  0.62965857492E+01  0.13683578625E+02  0.42373583415E+02  0.51100000000E-03 0. -1.
        -11    1    3    3    0    0  0.76161004955E+01  0.10366671463E+01  0.58567813265E+01  0.96634131288E+01  0.51100000000E-03 0.  1.
        -12    1    3    3    0    0  0.31183181062E+02 -0.79289464772E+01 -0.20162540428E+02  0.37970870545E+02  0.00000000000E+00 0.  1.
</event>
<event>
 7    1  0.4195243E-015  0.9000773E+02  0.7816164E-02  0.1186339E+00
        -11   -1    0    0    0    0  0.00000000000E+00  0.00000000000E+00  0.45593999997E+02  0.45594000000E+02  0.51100000000E-03 0.  1.
         11   -1    0    0    0    0 -0.00000000000E+00 -0.00000000000E+00 -0.45593999997E+02  0.45594000000E+02  0.51100000000E-03 0. -1.
    9900012    2    1    2    0    0  0.32640245084E+00 -0.10711869365E+01 -0.37291921942E+00  0.90007725135E+02  0.89999986307E+02 0.  0.
        -12    1    1    2    0    0 -0.32640245084E+00  0.10711869365E+01  0.37291921942E+00  0.11802748651E+01  0.00000000000E+00 0.  1.
         11    1    3    3    0    0 -0.69876156366E+01 -0.66482007006E+01 -0.23069105010E+01  0.99170147303E+01  0.51100000000E-03 0. -1.
        -11    1    3    3    0    0 -0.45975490811E+01  0.32212611090E+02  0.26487252108E+02  0.41956695476E+02  0.51100000000E-03 0.  1.
         12    1    3    3    0    0  0.11911567169E+02 -0.26635597326E+02 -0.24553260827E+02  0.38134014928E+02  0.00000000000E+00 0. -1.
</event>
<event>
 7    1  0.4195243E-015  0.9000769E+02  0.7816164E-02  0.1186339E+00
        -11   -1    0    0    0    0  0.00000000000E+00  0.00000000000E+00  0.45593999997E+02  0.45594000000E+02  0.51100000000E-03 0.  1.
         11   -1    0    0    0    0 -0.00000000000E+00 -0.00000000000E+00 -0.45593999997E+02  0.45594000000E+02  0.51100000000E-03 0. -1.
    9900012    2    1    2    0    0 -0.89408591811E+00  0.17366338678E+00 -0.75072538227E+00  0.90007687668E+02  0.89999948345E+02 0.  0.
        -12    1    1    2    0    0  0.89408591811E+00 -0.17366338678E+00  0.75072538227E+00  0.11803123317E+01  0.00000000000E+00 0.  1.
         11    1    3    3    0    0 -0.27002313883E+02  0.24432219016E+02 -0.68836713902E+01  0.37059994780E+02  0.51100000000E-03 0. -1.
        -11    1    3    3    0    0  0.11193328757E+01  0.29057267387E+01 -0.11591614047E+02  0.12002569327E+02  0.51100000000E-03 0.  1.
        -12    1    3    3    0    0  0.24988895089E+02 -0.27164282368E+02  0.17724560055E+02  0.40945123561E+02  0.00000000000E+00 0.  1.
</event>
<event>
 7    1  0.4195243E-015  0.9000773E+02  0.7816164E-02  0.1186339E+00
        -11   -1    0    0    0    0  0.00000000000E+00  0.00000000000E+00  0.45593999997E+02  0.45594000000E+02  0.51100000000E-03 0. -1.
         11   -1    0    0    0    0 -0.00000000000E+00 -0.00000000000E+00 -0.45593999997E+02  0.45594000000E+02  0.51100000000E-03 0.  1.
    9900012    2    1    2    0    0 -0.79028295172E+00 -0.61686137589E+00  0.62287134991E+00  0.90007731463E+02  0.89999992718E+02 0.  0.
        -12    1    1    2    0    0  0.79028295172E+00  0.61686137589E+00 -0.62287134991E+00  0.11802685370E+01  0.00000000000E+00 0.  1.
         11    1    3    3    0    0  0.14451729922E+01 -0.23403700116E+02  0.35008287640E+02  0.42135518365E+02  0.51100000000E-03 0. -1.
        -11    1    3    3    0    0  0.32310223654E+01  0.58124258763E+01  0.23370333279E+01  0.70487960057E+01  0.51100000000E-03 0.  1.
        -12    1    3    3    0    0 -0.54664783093E+01  0.16974412864E+02 -0.36722449618E+02  0.40823417093E+02  0.00000000000E+00 0.  1.
</event>
<event>
 7    1  0.4195243E-015  0.9000761E+02  0.7816164E-02  0.1186339E+00
        -11   -1    0    0    0    0  0.00000000000E+00  0.00000000000E+00  0.45593999997E+02  0.45594000000E+02  0.51100000000E-03 0. -1.
         11   -1    0    0    0    0 -0.00000000000E+00 -0.00000000000E+00 -0.45593999997E+02  0.45594000000E+02  0.51100000000E-03 0.  1.
    9900012    2    1    2    0    0  0.63833424299E+00  0.82284351248E+00  0.55566802445E+00  0.90007614891E+02  0.89999874608E+02 0.  0.
        -12    1    1    2    0    0 -0.63833424299E+00 -0.82284351248E+00 -0.55566802445E+00  0.11803851089E+01  0.00000000000E+00 0.  1.
         11    1    3    3    0    0  0.51535617863E+01 -0.83534562363E+01 -0.57364269699E+00  0.98320138518E+01  0.51100000000E-03 0. -1.
        -11    1    3    3    0    0 -0.33879962869E+02  0.26273816519E+02 -0.10712168221E+02  0.44191807688E+02  0.51100000000E-03 0.  1.
         12    1    3    3    0    0  0.29364735325E+02 -0.17097516770E+02  0.11841478942E+02  0.35983793352E+02  0.00000000000E+00 0. -1.
</event>
<event>
 7    1  0.4195243E-015  0.9000777E+02  0.7816164E-02  0.1186339E+00
        -11   -1    0    0    0    0  0.00000000000E+00  0.00000000000E+00  0.45593999997E+02  0.45594000000E+02  0.51100000000E-03 0.  1.
         11   -1    0    0    0    0 -0.00000000000E+00 -0.00000000000E+00 -0.45593999997E+02  0.45594000000E+02  0.51100000000E-03 0. -1.
    9900012    2    1    2    0    0  0.51553040752E+00 -0.88047331628E+00  0.59324883290E+00  0.90007767379E+02  0.90000029108E+02 0.  0.
        -12    1    1    2    0    0 -0.51553040752E+00  0.88047331628E+00 -0.59324883290E+00  0.11802326209E+01  0.00000000000E+00 0.  1.
         11    1    3    3    0    0 -0.99479867769E+01 -0.56379495715E+01 -0.10404969288E+01  0.11481792125E+02  0.51100000000E-03 0. -1.
        -11    1    3    3    0    0 -0.17843720125E+02  0.14056992727E+02  0.29836449519E+02  0.37499481498E+02  0.51100000000E-03 0.  1.
         12    1    3    3    0    0  0.28307237309E+02 -0.92995164714E+01 -0.28202703758E+02  0.41026493756E+02  0.00000000000E+00 0. -1.
</event>
<event>
 7    1  0.4195243E-015  0.9000776E+02  0.7816164E-02  0.1186339E+00
        -11   -1    0    0    0    0  0.00000000000E+00  0.00000000000E+00  0.45593999997E+02  0.45594000000E+02  0.51100000000E-03 0. -1.
         11   -1    0    0    0    0 -0.00000000000E+00 -0.00000000000E+00 -0.45593999997E+02  0.45594000000E+02  0.51100000000E-03 0.  1.
    9900012    2    1    2    0    0 -0.11391540270E+01  0.30730941508E+00 -0.29359452362E-01  0.90007757249E+02  0.90000018845E+02 0.  0.
        -12    1    1    2    0    0  0.11391540270E+01 -0.30730941508E+00  0.29359452362E-01  0.11802427510E+01  0.00000000000E+00 0.  1.
         11    1    3    3    0    0 -0.21202141468E+02 -0.29952267363E+02  0.91936654572E+01  0.37831106352E+02  0.51100000000E-03 0. -1.
        -11    1    3    3    0    0  0.49042913762E+01 -0.80939840578E+01 -0.50461863489E+01  0.10725140967E+02  0.51100000000E-03 0.  1.
        -12    1    3    3    0    0  0.15158696064E+02  0.38353560836E+02 -0.41768385607E+01  0.41451509930E+02  0.00000000000E+00 0.  1.
</event>
<event>
 7    1  0.4195243E-015  0.9000747E+02  0.7816164E-02  0.1186340E+00
        -11   -1    0    0    0    0  0.00000000000E+00  0.00000000000E+00  0.45593999997E+02  0.45594000000E+02  0.51100000000E-03 0.  1.
         11   -1    0    0    0    0 -0.00000000000E+00 -0.00000000000E+00 -0.45593999997E+02  0.45594000000E+02  0.51100000000E-03 0. -1.
    9900012    2    1    2    0    0 -0.75851551595E+00 -0.82177035719E+00 -0.37816311108E+00  0.90007466372E+02  0.89999724128E+02 0.  0.
        -12    1    1    2    0    0  0.75851551595E+00  0.82177035719E+00  0.37816311108E+00  0.11805336278E+01  0.00000000000E+00 0.  1.
         11    1    3    3    0    0 -0.83504125890E+01  0.10809427118E+02 -0.34471019595E+02  0.37078623184E+02  0.51100000000E-03 0. -1.
        -11    1    3    3    0    0  0.56071384847E+00 -0.17386968972E+01 -0.84723980730E+01  0.86671215688E+01  0.51100000000E-03 0.  1.
        -12    1    3    3    0    0  0.70311832246E+01 -0.98925005782E+01  0.42565254557E+02  0.44261721619E+02  0.00000000000E+00 0.  1.
</event>
<event>
 7    1  0.4195243E-015  0.9000772E+02  0.7816164E-02  0.1186339E+00
        -11   -1    0    0    0    0  0.00000000000E+00  0.00000000000E+00  0.45593999997E+02  0.45594000000E+02  0.51100000000E-03 0. -1.
         11   -1    0    0    0    0 -0.00000000000E+00 -0.00000000000E+00 -0.45593999997E+02  0.45594000000E+02  0.51100000000E-03 0.  1.
    9900012    2    1    2    0    0  0.93451885146E+00  0.19230606784E+00 -0.69480736429E+00  0.90007718516E+02  0.89999979601E+02 0.  0.
        -12    1    1    2    0    0 -0.93451885146E+00 -0.19230606784E+00  0.69480736429E+00  0.11802814838E+01  0.00000000000E+00 0.  1.
         11    1    3    3    0    0 -0.32672108175E+01  0.27124614082E+02  0.19094533758E+02  0.33331975269E+02  0.51100000000E-03 0. -1.
        -11    1    3    3    0    0 -0.51031919621E+01  0.10247859678E+02  0.33213912621E+01  0.11920269979E+02  0.51100000000E-03 0.  1.
        -12    1    3    3    0    0  0.93049216311E+01 -0.37180167692E+02 -0.23110732385E+02  0.44755473269E+02  0.00000000000E+00 0.  1.
</event>
<event>
 7    1  0.4195243E-015  0.9000786E+02  0.7816164E-02  0.1186339E+00
        -11   -1    0    0    0    0  0.00000000000E+00  0.00000000000E+00  0.45593999997E+02  0.45594000000E+02  0.51100000000E-03 0.  1.
         11   -1    0    0    0    0 -0.00000000000E+00 -0.00000000000E+00 -0.45593999997E+02  0.45594000000E+02  0.51100000000E-03 0. -1.
    9900012    2    1    2    0    0  0.62478854424E+00 -0.30092742217E+00 -0.95489364756E+00  0.90007855976E+02  0.90000118875E+02 0.  0.
        -12    1    1    2    0    0 -0.62478854424E+00  0.30092742217E+00  0.95489364756E+00  0.11801440237E+01  0.00000000000E+00 0.  1.
         11    1    3    3    0    0 -0.12848549531E+02 -0.24108036956E+01 -0.20953476684E+01  0.13239625434E+02  0.51100000000E-03 0. -1.
        -11    1    3    3    0    0  0.61160140559E+01 -0.47144735893E+01 -0.36759707370E+02  0.37562054993E+02  0.51100000000E-03 0.  1.
         12    1    3    3    0    0  0.73573240194E+01  0.68243498628E+01  0.37900161391E+02  0.39206175549E+02  0.00000000000E+00 0. -1.
</event>
<event>
 7    1  0.4695431E-015  0.9000774E+02  0.7816164E-02  0.1186339E+00
        -11   -1    0    0    0    0  0.00000000000E+00  0.00000000000E+00  0.45593999997E+02  0.45594000000E+02  0.51100000000E-03 0. -1.
         11   -1    0    0    0    0 -0.00000000000E+00 -0.00000000000E+00 -0.45593999997E+02  0.45594000000E+02  0.51100000000E-03 0.  1.
    9900012    2    1    2    0    0 -0.95252555025E+00  0.40418545401E+00  0.56774688578E+00  0.90007742684E+02  0.90000004088E+02 0.  0.
        -12    1    1    2    0    0  0.95252555025E+00 -0.40418545401E+00 -0.56774688578E+00  0.11802573158E+01  0.00000000000E+00 0.  1.
         11    1    3    3    0    0  0.65735121267E+01 -0.15913127797E+01  0.41715069082E+02  0.42259795631E+02  0.51100000000E-03 0. -1.
        -11    1    3    3    0    0 -0.10528905925E+01  0.86514483632E+01 -0.42423256597E+01  0.96929595400E+01  0.51100000000E-03 0.  1.
        -12    1    3    3    0    0 -0.64731470845E+01 -0.66559501295E+01 -0.36904996536E+02  0.38054987513E+02  0.00000000000E+00 0.  1.
</event>
<event>
 7    1  0.4195243E-015  0.9000843E+02  0.7816164E-02  0.1186338E+00
        -11   -1    0    0    0    0  0.00000000000E+00  0.00000000000E+00  0.45593999997E+02  0.45594000000E+02  0.51100000000E-03 0. -1.
         11   -1    0    0    0    0 -0.00000000000E+00 -0.00000000000E+00 -0.45593999997E+02  0.45594000000E+02  0.51100000000E-03 0.  1.
    9900012    2    1    2    0    0 -0.61217333106E+00  0.94729715330E+00  0.34534499035E+00  0.90008427515E+02  0.90000697956E+02 0.  0.
        -12    1    1    2    0    0  0.61217333106E+00 -0.94729715330E+00 -0.34534499035E+00  0.11795724845E+01  0.00000000000E+00 0.  1.
         11    1    3    3    0    0 -0.36080138063E+02  0.47047050813E+00 -0.23601836818E+02  0.43116637236E+02  0.51100000000E-03 0. -1.
        -11    1    3    3    0    0  0.18259258359E+01  0.15501598393E+01  0.10293954168E+02  0.10568940030E+02  0.51100000000E-03 0.  1.
        -12    1    3    3    0    0  0.33642038896E+02 -0.10733331941E+01  0.13653227640E+02  0.36322850249E+02  0.00000000000E+00 0.  1.
</event>
<event>
 7    1  0.4195243E-015  0.9000768E+02  0.7816164E-02  0.1186339E+00
        -11   -1    0    0    0    0  0.00000000000E+00  0.00000000000E+00  0.45593999997E+02  0.45594000000E+02  0.51100000000E-03 0. -1.
         11   -1    0    0    0    0 -0.00000000000E+00 -0.00000000000E+00 -0.45593999997E+02  0.45594000000E+02  0.51100000000E-03 0.  1.
    9900012    2    1    2    0    0  0.52712178169E-01  0.10206629646E+01 -0.59044669255E+00  0.90007678536E+02  0.89999939093E+02 0.  0.
        -12    1    1    2    0    0 -0.52712178169E-01 -0.10206629646E+01  0.59044669255E+00  0.11803214637E+01  0.00000000000E+00 0.  1.
         11    1    3    3    0    0  0.28394913667E+01 -0.28602061173E+01 -0.96328445277E+01  0.10441991391E+02  0.51100000000E-03 0. -1.
        -11    1    3    3    0    0 -0.34654771467E+02  0.11988657700E+02 -0.14172666944E+02  0.39313427571E+02  0.51100000000E-03 0.  1.
         12    1    3    3    0    0  0.31867992278E+02 -0.81077886184E+01  0.23215064779E+02  0.40252259574E+02  0.00000000000E+00 0. -1.
</event>
<event>
 7    1  0.4195243E-015  0.9000774E+02  0.7816164E-02  0.1186339E+00
        -11   -1    0    0    0    0  0.00000000000E+00  0.00000000000E+00  0.45593999997E+02  0.45594000000E+02  0.51100000000E-03 0.  1.
         11   -1    0    0    0    0 -0.00000000000E+00 -0.00000000000E+00 -0.45593999997E+02  0.45594000000E+02  0.51100000000E-03 0. -1.
    9900012    2    1    2    0    0  0.37937090526E+00  0.56850863616E+00 -0.96223508667E+00  0.90007737014E+02  0.89999998343E+02 0.  0.
        -12    1    1    2    0    0 -0.37937090526E+00 -0.56850863616E+00  0.96223508667E+00  0.11802629856E+01  0.00000000000E+00 0.  1.
         11    1    3    3    0    0 -0.12961353955E+02  0.45304405306E+01 -0.39937930569E+02  0.42232213844E+02  0.51100000000E-03 0. -1.
        -11    1    3    3    0    0  0.61932098231E+01  0.64722074940E+01  0.26965659512E+01  0.93550406706E+01  0.51100000000E-03 0.  1.
        -12    1    3    3    0    0  0.71475150369E+01 -0.10434139388E+02  0.36279129531E+02  0.38420482500E+02  0.00000000000E+00 0.  1.
</event>
<event>
 7    1  0.4195243E-015  0.9000776E+02  0.7816164E-02  0.1186339E+00
        -11   -1    0    0    0    0  0.00000000000E+00  0.00000000000E+00  0.45593999997E+02  0.45594000000E+02  0.51100000000E-03 0.  1.
         11   -1    0    0    0    0 -0.00000000000E+00 -0.00000000000E+00 -0.45593999997E+02  0.45594000000E+02  0.51100000000E-03 0. -1.
    9900012    2    1    2    0    0 -0.68202031875E+00  0.91066346661E+00  0.31387620893E+00  0.90007755136E+02  0.90000016704E+02 0.  0.
        -12    1    1    2    0    0  0.68202031875E+00 -0.91066346661E+00 -0.31387620893E+00  0.11802448641E+01  0.00000000000E+00 0.  1.
         11    1    3    3    0    0 -0.11263495464E+02 -0.16735891392E+02 -0.16764166706E+02  0.26229633553E+02  0.51100000000E-03 0. -1.
        -11    1    3    3    0    0 -0.66785392353E+01  0.85665321190E+01 -0.19502498602E+02  0.22323436358E+02  0.51100000000E-03 0.  1.
        -12    1    3    3    0    0  0.17260014380E+02  0.90800227395E+01  0.36580541517E+02  0.41454685224E+02  0.00000000000E+00 0.  1.
</event>
<event>
 7    1  0.4195243E-015  0.9000769E+02  0.7816164E-02  0.1186339E+00
        -11   -1    0    0    0    0  0.00000000000E+00  0.00000000000E+00  0.45593999997E+02  0.45594000000E+02  0.51100000000E-03 0.  1.
         11   -1    0    0    0    0 -0.00000000000E+00 -0.00000000000E+00 -0.45593999997E+02  0.45594000000E+02  0.51100000000E-03 0. -1.
    9900012    2    1    2    0    0 -0.54845018427E-02  0.60572691883E+00 -0.10130153291E+01  0.90007688500E+02  0.89999949188E+02 0.  0.
        -12    1    1    2    0    0  0.54845018427E-02 -0.60572691883E+00  0.10130153291E+01  0.11803115000E+01  0.00000000000E+00 0.  1.
         11    1    3    3    0    0  0.59115585152E+01  0.86742744741E+01  0.42815491833E+01  0.11336720222E+02  0.51100000000E-03 0. -1.
        -11    1    3    3    0    0  0.26568439787E+02 -0.28949961222E+02 -0.74476528119E+01  0.39993121660E+02  0.51100000000E-03 0.  1.
         12    1    3    3    0    0 -0.32485482804E+02  0.20881413667E+02  0.21530882994E+01  0.38677846617E+02  0.00000000000E+00 0. -1.
</event>
<event>
 7    1  0.4195243E-015  0.9000698E+02  0.7816164E-02  0.1186341E+00
        -11   -1    0    0    0    0  0.00000000000E+00  0.00000000000E+00  0.45593999997E+02  0.45594000000E+02  0.51100000000E-03 0.  1.
         11   -1    0    0    0    0 -0.00000000000E+00 -0.00000000000E+00 -0.45593999997E+02  0.45594000000E+02  0.51100000000E-03 0. -1.
    9900012    2    1    2    0    0  0.45606320225E-01  0.11727299611E+01 -0.13203162868E+00  0.90006980166E+02  0.89999231501E+02 0.  0.
        -12    1    1    2    0    0 -0.45606320225E-01 -0.11727299611E+01  0.13203162868E+00  0.11810198343E+01  0.00000000000E+00 0.  1.
         11    1    3    3    0    0 -0.58553782242E+01 -0.13883190746E+01  0.32776155898E+01  0.68524191507E+01  0.51100000000E-03 0. -1.
        -11    1    3    3    0    0 -0.31619394948E+02 -0.10741605547E+02  0.18018332892E+02  0.37945072765E+02  0.51100000000E-03 0.  1.
         12    1    3    3    0    0  0.37520379493E+02  0.13302654583E+02 -0.21427980111E+02  0.45209488250E+02  0.00000000000E+00 0. -1.
</event>
<event>
 7    1  0.4195243E-015  0.9000780E+02  0.7816164E-02  0.1186339E+00
        -11   -1    0    0    0    0  0.00000000000E+00  0.00000000000E+00  0.45593999997E+02  0.45594000000E+02  0.51100000000E-03 0. -1.
         11   -1    0    0    0    0 -0.00000000000E+00 -0.00000000000E+00 -0.45593999997E+02  0.45594000000E+02  0.51100000000E-03 0.  1.
    9900012    2    1    2    0    0 -0.14723672143E+00 -0.11667525832E+01 -0.99354451419E-01  0.90007804444E+02  0.90000066663E+02 0.  0.
        -12    1    1    2    0    0  0.14723672143E+00  0.11667525832E+01  0.99354451419E-01  0.11801955556E+01  0.00000000000E+00 0.  1.
         11    1    3    3    0    0  0.69469693397E+01 -0.70894832864E+01  0.22155321005E+01  0.10170041250E+02  0.51100000000E-03 0. -1.
        -11    1    3    3    0    0 -0.12116419389E+02 -0.13805283037E+02 -0.36036547391E+02  0.40447820790E+02  0.51100000000E-03 0.  1.
         12    1    3    3    0    0  0.50222133283E+01  0.19728013740E+02  0.33721660839E+02  0.39389942404E+02  0.00000000000E+00 0. -1.
</event>
<event>
 7    1  0.4195243E-015  0.9000777E+02  0.7816164E-02  0.1186339E+00
        -11   -1    0    0    0    0  0.00000000000E+00  0.00000000000E+00  0.45593999997E+02  0.45594000000E+02  0.51100000000E-03 0. -1.
         11   -1    0    0    0    0 -0.00000000000E+00 -0.00000000000E+00 -0.45593999997E+02  0.45594000000E+02  0.51100000000E-03 0.  1.
    9900012    2    1    2    0    0 -0.99109763357E+00 -0.49986953470E+00  0.40099241313E+00  0.90007771638E+02  0.90000033424E+02 0.  0.
        -12    1    1    2    0    0  0.99109763357E+00  0.49986953470E+00 -0.40099241313E+00  0.11802283620E+01  0.00000000000E+00 0.  1.
         11    1    3    3    0    0 -0.32574812838E+01 -0.38386434906E+01  0.96933460674E+01  0.10922789314E+02  0.51100000000E-03 0. -1.
        -11    1    3    3    0    0 -0.75194882495E+01 -0.35892354756E+02 -0.11936724514E+02  0.38565388963E+02  0.51100000000E-03 0.  1.
         12    1    3    3    0    0  0.97858718998E+01  0.39231128712E+02  0.26443708593E+01  0.40519593361E+02  0.00000000000E+00 0. -1.
</event>
<event>
 7    1  0.4195243E-015  0.9000774E+02  0.7816164E-02  0.1186339E+00
        -11   -1    0    0    0    0  0.00000000000E+00  0.00000000000E+00  0.45593999997E+02  0.45594000000E+02  0.51100000000E-03 0. -1.
         11   -1    0    0    0    0 -0.00000000000E+00 -0.00000000000E+00 -0.45593999997E+02  0.45594000000E+02  0.51100000000E-03 0.  1.
    9900012    2    1    2    0    0  0.70052869555E+00 -0.61363130340E+00  0.72506629122E+00  0.90007743690E+02  0.90000005107E+02 0.  0.
        -12    1    1    2    0    0 -0.70052869555E+00  0.61363130340E+00 -0.72506629122E+00  0.11802563096E+01  0.00000000000E+00 0.  1.
         11    1    3    3    0    0 -0.31334806423E+02 -0.17141834313E+02  0.91979895482E+01  0.36882456387E+02  0.51100000000E-03 0. -1.
        -11    1    3    3    0    0  0.20053602886E+01 -0.11208122006E+02 -0.36805880581E+01  0.11966210658E+02  0.51100000000E-03 0.  1.
        -12    1    3    3    0    0  0.30029974830E+02  0.27736325015E+02 -0.47923351989E+01  0.41159076645E+02  0.00000000000E+00 0.  1.
</event>
<event>
 7    1  0.4195243E-015  0.9000819E+02  0.7816164E-02  0.1186338E+00
        -11   -1    0    0    0    0  0.00000000000E+00  0.00000000000E+00  0.45593999997E+02  0.45594000000E+02  0.51100000000E-03 0.  1.
         11   -1    0    0    0    0 -0.00000000000E+00 -0.00000000000E+00 -0.45593999997E+02  0.45594000000E+02  0.51100000000E-03 0. -1.
    9900012    2    1    2    0    0  0.51500711468E-01  0.11781031021E+01  0.37097779170E-01  0.90008188368E+02  0.90000455653E+02 0.  0.
        -12    1    1    2    0    0 -0.51500711468E-01 -0.11781031021E+01 -0.37097779170E-01  0.11798116323E+01  0.00000000000E+00 0.  1.
         11    1    3    3    0    0  0.18112273462E+01  0.10508696198E+02  0.22729727248E+00  0.10666063219E+02  0.51100000000E-03 0. -1.
        -11    1    3    3    0    0  0.38116881403E+02 -0.18732933302E+01 -0.50042258260E+01  0.38489584984E+02  0.51100000000E-03 0.  1.
         12    1    3    3    0    0 -0.39876608038E+02 -0.74572997656E+01  0.48140263327E+01  0.40852540165E+02  0.00000000000E+00 0. -1.
</event>
<event>
 7    1  0.4195243E-015  0.9000775E+02  0.7816164E-02  0.1186339E+00
        -11   -1    0    0    0    0  0.00000000000E+00  0.00000000000E+00  0.45593999997E+02  0.45594000000E+02  0.51100000000E-03 0. -1.
         11   -1    0    0    0    0 -0.00000000000E+00 -0.00000000000E+00 -0.45593999997E+02  0.45594000000E+02  0.51100000000E-03 0.  1.
    9900012    2    1    2    0    0  0.54829424274E+00  0.53535896916E+00  0.89763862692E+00  0.90007749642E+02  0.90000011138E+02 0.  0.
        -12    1    1    2    0    0 -0.54829424274E+00 -0.53535896916E+00 -0.89763862692E+00  0.11802503578E+01  0.00000000000E+00 0.  1.
         11    1    3    3    0    0 -0.31859408575E+01  0.91968784274E+01 -0.19896424437E+01  0.99343580200E+01  0.51100000000E-03 0. -1.
        -11    1    3    3    0    0  0.20994714432E+02 -0.24307163294E+02 -0.27153159883E+02  0.42058415488E+02  0.51100000000E-03 0.  1.
         12    1    3    3    0    0 -0.17260479331E+02  0.15645643836E+02  0.30040440954E+02  0.38014976134E+02  0.00000000000E+00 0. -1.
</event>
<event>
 7    1  0.4195243E-015  0.9000777E+02  0.7816164E-02  0.1186339E+00
        -11   -1    0    0    0    0  0.00000000000E+00  0.00000000000E+00  0.45593999997E+02  0.45594000000E+02  0.51100000000E-03 0.  1.
         11   -1    0    0    0    0 -0.00000000000E+00 -0.00000000000E+00 -0.45593999997E+02  0.45594000000E+02  0.51100000000E-03 0. -1.
    9900012    2    1    2    0    0 -0.19370850142E+00  0.11636388098E+01 -0.36881272915E-01  0.90007771848E+02  0.90000033636E+02 0.  0.
        -12    1    1    2    0    0  0.19370850142E+00 -0.11636388098E+01  0.36881272915E-01  0.11802281523E+01  0.00000000000E+00 0.  1.
         11    1    3    3    0    0  0.18153030883E+02  0.22655412182E+02 -0.42767836024E+01  0.29344353965E+02  0.51100000000E-03 0. -1.
        -11    1    3    3    0    0  0.80671756056E+01  0.68954395673E+01  0.16828861894E+02  0.19895652842E+02  0.51100000000E-03 0.  1.
        -12    1    3    3    0    0 -0.26413914990E+02 -0.28387212939E+02 -0.12588959565E+02  0.40767765041E+02  0.00000000000E+00 0.  1.
</event>
<event>
 7    1  0.4195243E-015  0.9000783E+02  0.7816164E-02  0.1186339E+00
        -11   -1    0    0    0    0  0.00000000000E+00  0.00000000000E+00  0.45593999997E+02  0.45594000000E+02  0.51100000000E-03 0. -1.
         11   -1    0    0    0    0 -0.00000000000E+00 -0.00000000000E+00 -0.45593999997E+02  0.45594000000E+02  0.51100000000E-03 0.  1.
    9900012    2    1    2    0    0  0.92253452125E+00  0.42376399319E+00  0.60180324300E+00  0.90007825010E+02  0.90000087500E+02 0.  0.
        -12    1    1    2    0    0 -0.92253452125E+00 -0.42376399319E+00 -0.60180324300E+00  0.11801749905E+01  0.00000000000E+00 0.  1.
         11    1    3    3    0    0  0.55561453615E+01 -0.37437327430E+02  0.84825315231E+01  0.38786306574E+02  0.51100000000E-03 0. -1.
        -11    1    3    3    0    0 -0.23902094686E+01 -0.19223749475E+01 -0.10839509334E+02  0.11265149338E+02  0.51100000000E-03 0.  1.
        -12    1    3    3    0    0 -0.22434013716E+01  0.39783466370E+02  0.29587810537E+01  0.39956369098E+02  0.00000000000E+00 0.  1.
</event>
<event>
 7    1  0.4195243E-015  0.9000761E+02  0.7816164E-02  0.1186339E+00
        -11   -1    0    0    0    0  0.00000000000E+00  0.00000000000E+00  0.45593999997E+02  0.45594000000E+02  0.51100000000E-03 0. -1.
         11   -1    0    0    0    0 -0.00000000000E+00 -0.00000000000E+00 -0.45593999997E+02  0.45594000000E+02  0.51100000000E-03 0.  1.
    9900012    2    1    2    0    0  0.16957396496E+00  0.94742261103E+00  0.68334892989E+00  0.90007605704E+02  0.89999865299E+02 0.  0.
        -12    1    1    2    0    0 -0.16957396496E+00 -0.94742261103E+00 -0.68334892989E+00  0.11803942958E+01  0.00000000000E+00 0.  1.
         11    1    3    3    0    0 -0.45468174651E+01 -0.82981255203E+01  0.39724427119E+02  0.40835799814E+02  0.51100000000E-03 0. -1.
        -11    1    3    3    0    0 -0.61261986149E+01  0.91102829297E+01 -0.27812286052E+01  0.11325316655E+02  0.51100000000E-03 0.  1.
        -12    1    3    3    0    0  0.10842590045E+02  0.13526520165E+00 -0.36259849584E+02  0.37846489235E+02  0.00000000000E+00 0.  1.
</event>
<event>
 7    1  0.4195243E-015  0.9000782E+02  0.7816164E-02  0.1186339E+00
        -11   -1    0    0    0    0  0.00000000000E+00  0.00000000000E+00  0.45593999997E+02  0.45594000000E+02  0.51100000000E-03 0. -1.
         11   -1    0    0    0    0 -0.00000000000E+00 -0.00000000000E+00 -0.45593999997E+02  0.45594000000E+02  0.51100000000E-03 0.  1.
    9900012    2    1    2    0    0  0.18070472682E+00 -0.11662638571E+01  0.66250279357E-03  0.90007819496E+02  0.90000081914E+02 0.  0.
        -12    1    1    2    0    0 -0.18070472682E+00  0.11662638571E+01 -0.66250279357E-03  0.11801805038E+01  0.00000000000E+00 0.  1.
         11    1    3    3    0    0  0.39626304449E+02 -0.96950571163E+01  0.36663076596E+01  0.40959491561E+02  0.51100000000E-03 0. -1.
        -11    1    3    3    0    0 -0.90939377392E+00  0.60254466957E+01 -0.81447380956E+01  0.10172008839E+02  0.51100000000E-03 0.  1.
        -12    1    3    3    0    0 -0.38536205948E+02  0.25033465635E+01  0.44790929388E+01  0.38876319096E+02  0.00000000000E+00 0.  1.
</event>
<event>
 7    1  0.4195243E-015  0.9000772E+02  0.7816164E-02  0.1186339E+00
        -11   -1    0    0    0    0  0.00000000000E+00  0.00000000000E+00  0.45593999997E+02  0.45594000000E+02  0.51100000000E-03 0.  1.
         11   -1    0    0    0    0 -0.00000000000E+00 -0.00000000000E+00 -0.45593999997E+02  0.45594000000E+02  0.51100000000E-03 0. -1.
    9900012    2    1    2    0    0 -0.10898466873E+01 -0.43552733614E+00 -0.12491161902E+00  0.90007723433E+02  0.89999984582E+02 0.  0.
        -12    1    1    2    0    0  0.10898466873E+01  0.43552733614E+00  0.12491161902E+00  0.11802765672E+01  0.00000000000E+00 0.  1.
         11    1    3    3    0    0 -0.41994375666E+01 -0.28341763438E+01 -0.84767961339E+01  0.98754192003E+01  0.51100000000E-03 0. -1.
        -11    1    3    3    0    0  0.20041881462E+02 -0.21956444173E+02  0.30895440369E+02  0.42875292292E+02  0.51100000000E-03 0.  1.
         12    1    3    3    0    0 -0.16932290583E+02  0.24355093180E+02 -0.22543555854E+02  0.37257011941E+02  0.00000000000E+00 0. -1.
</event>
<event>
 7    1  0.4195243E-015  0.9000783E+02  0.7816164E-02  0.1186339E+00
        -11   -1    0    0    0    0  0.00000000000E+00  0.00000000000E+00  0.45593999997E+02  0.45594000000E+02  0.51100000000E-03 0.  1.
         11   -1    0    0    0    0 -0.00000000000E+00 -0.00000000000E+00 -0.45593999997E+02  0.45594000000E+02  0.51100000000E-03 0. -1.
    9900012    2    1    2    0    0 -0.11747827186E+01  0.46330284737E-01  0.10265731997E+00  0.90007830751E+02  0.90000093317E+02 0.  0.
        -12    1    1    2    0    0  0.11747827186E+01 -0.46330284737E-01 -0.10265731997E+00  0.11801692491E+01  0.00000000000E+00 0.  1.
         11    1    3    3    0    0  0.87848922394E+01 -0.31887034049E+01 -0.84606676875E+00  0.93839219040E+01  0.51100000000E-03 0. -1.
        -11    1    3    3    0    0  0.19958415755E+02  0.32358497304E+02 -0.53703049051E+01  0.38395974819E+02  0.51100000000E-03 0.  1.
         12    1    3    3    0    0 -0.29918090713E+02 -0.29123463615E+02  0.63190289938E+01  0.42227934028E+02  0.00000000000E+00 0. -1.
</event>
<event>
 7    1  0.4195243E-015  0.9000802E+02  0.7816164E-02  0.1186338E+00
        -11   -1    0    0    0    0  0.00000000000E+00  0.00000000000E+00  0.45593999997E+02  0.45594000000E+02  0.51100000000E-03 0.  1.
         11   -1    0    0    0    0 -0.00000000000E+00 -0.00000000000E+00 -0.45593999997E+02  0.45594000000E+02  0.51100000000E-03 0. -1.
    9900012    2    1    2    0    0  0.70501398805E+00  0.74946358189E+00 -0.57759208830E+00  0.90008019914E+02  0.90000284976E+02 0.  0.
        -12    1    1    2    0    0 -0.70501398805E+00 -0.74946358189E+00  0.57759208830E+00  0.11799800864E+01  0.00000000000E+00 0.  1.
         11    1    3    3    0    0  0.20512940700E+02  0.25289216377E+02 -0.16530087605E+02  0.36518063991E+02  0.51100000000E-03 0. -1.
        -11    1    3    3    0    0 -0.30480344850E+01  0.10427558057E+02 -0.15001658952E+01  0.10966994995E+02  0.51100000000E-03 0.  1.
        -12    1    3    3    0    0 -0.16759892227E+02 -0.34967310852E+02  0.17452661412E+02  0.42522960928E+02  0.00000000000E+00 0.  1.
</event>
<event>
 7    1  0.4195243E-015  0.9000790E+02  0.7816164E-02  0.1186339E+00
        -11   -1    0    0    0    0  0.00000000000E+00  0.00000000000E+00  0.45593999997E+02  0.45594000000E+02  0.51100000000E-03 0.  1.
         11   -1    0    0    0    0 -0.00000000000E+00 -0.00000000000E+00 -0.45593999997E+02  0.45594000000E+02  0.51100000000E-03 0. -1.
    9900012    2    1    2    0    0 -0.52669176577E+00 -0.86459241893E-01 -0.10524999489E+01  0.90007900191E+02  0.90000163673E+02 0.  0.
        -12    1    1    2    0    0  0.52669176577E+00  0.86459241893E-01  0.10524999489E+01  0.11800998090E+01  0.00000000000E+00 0.  1.
         11    1    3    3    0    0 -0.62863593027E+01 -0.50474339131E+01 -0.42819505855E+01  0.91285269057E+01  0.51100000000E-03 0. -1.
        -11    1    3    3    0    0 -0.27447690285E+02 -0.16238141735E+02  0.20448241755E+02  0.37883816335E+02  0.51100000000E-03 0.  1.
         12    1    3    3    0    0  0.33207357822E+02  0.21199116406E+02 -0.17218791118E+02  0.42995556950E+02  0.00000000000E+00 0. -1.
</event>
<event>
 7    1  0.4195243E-015  0.9000783E+02  0.7816164E-02  0.1186339E+00
        -11   -1    0    0    0    0  0.00000000000E+00  0.00000000000E+00  0.45593999997E+02  0.45594000000E+02  0.51100000000E-03 0. -1.
         11   -1    0    0    0    0 -0.00000000000E+00 -0.00000000000E+00 -0.45593999997E+02  0.45594000000E+02  0.51100000000E-03 0.  1.
    9900012    2    1    2    0    0 -0.91675699319E+00  0.46586483282E-01  0.74174611676E+00  0.90007830103E+02  0.90000092660E+02 0.  0.
        -12    1    1    2    0    0  0.91675699319E+00 -0.46586483282E-01 -0.74174611676E+00  0.11801698974E+01  0.00000000000E+00 0.  1.
         11    1    3    3    0    0  0.29482027062E+01  0.65760213848E+01  0.24060635622E+01  0.75977035068E+01  0.51100000000E-03 0. -1.
        -11    1    3    3    0    0 -0.17825093202E+02  0.17670554162E+02 -0.32328000223E+02  0.40927766012E+02  0.51100000000E-03 0.  1.
         12    1    3    3    0    0  0.13960133503E+02 -0.24199989064E+02  0.30663682778E+02  0.41482360584E+02  0.00000000000E+00 0. -1.
</event>
<event>
 7    1  0.4195243E-015  0.9000777E+02  0.7816164E-02  0.1186339E+00
        -11   -1    0    0    0    0  0.00000000000E+00  0.00000000000E+00  0.45593999997E+02  0.45594000000E+02  0.51100000000E-03 0. -1.
         11   -1    0    0    0    0 -0.00000000000E+00 -0.00000000000E+00 -0.45593999997E+02  0.45594000000E+02  0.51100000000E-03 0.  1.
    9900012    2    1    2    0    0  0.69556092439E+00  0.84258916554E+00  0.44628607856E+00  0.90007774274E+02  0.90000036094E+02 0.  0.
        -12    1    1    2    0    0 -0.69556092439E+00 -0.84258916554E+00 -0.44628607856E+00  0.11802257264E+01  0.00000000000E+00 0.  1.
         11    1    3    3    0    0  0.24421323614E+01  0.71123414855E+00  0.68249398758E+01  0.72835203751E+01  0.51100000000E-03 0. -1.
        -11    1    3    3    0    0 -0.27813456553E+02  0.31270542193E+02 -0.23657618355E+01  0.41916965584E+02  0.51100000000E-03 0.  1.
         12    1    3    3    0    0  0.26066885116E+02 -0.31139187176E+02 -0.40128919617E+01  0.40807288314E+02  0.00000000000E+00 0. -1.
</event>
<event>
 7    1  0.4195243E-015  0.9000771E+02  0.7816164E-02  0.1186339E+00
        -11   -1    0    0    0    0  0.00000000000E+00  0.00000000000E+00  0.45593999997E+02  0.45594000000E+02  0.51100000000E-03 0.  1.
         11   -1    0    0    0    0 -0.00000000000E+00 -0.00000000000E+00 -0.45593999997E+02  0.45594000000E+02  0.51100000000E-03 0. -1.
    9900012    2    1    2    0    0  0.29529635702E+00 -0.31476164522E+00 -0.10985477992E+01  0.90007711010E+02  0.89999971996E+02 0.  0.
        -12    1    1    2    0    0 -0.29529635702E+00  0.31476164522E+00  0.10985477992E+01  0.11802889896E+01  0.00000000000E+00 0.  1.
         11    1    3    3    0    0  0.20499439902E+02  0.10035282882E+02 -0.27530898766E+02  0.35761492222E+02  0.51100000000E-03 0. -1.
        -11    1    3    3    0    0  0.71464583418E+01 -0.45115650309E+01 -0.67745449414E+01  0.10831460903E+02  0.51100000000E-03 0.  1.
        -12    1    3    3    0    0 -0.27350601887E+02 -0.58384794958E+01  0.33206895909E+02  0.43414757886E+02  0.00000000000E+00 0.  1.
</event>
<event>
 7    1  0.4195243E-015  0.9000773E+02  0.7816164E-02  0.1186339E+00
        -11   -1    0    0    0    0  0.00000000000E+00  0.00000000000E+00  0.45593999997E+02  0.45594000000E+02  0.51100000000E-03 0.  1.
         11   -1    0    0    0    0 -0.00000000000E+00 -0.00000000000E+00 -0.45593999997E+02  0.45594000000E+02  0.51100000000E-03 0. -1.
    9900012    2    1    2    0    0 -0.99970057910E+00 -0.62541474423E+00  0.49849576536E-01  0.90007733153E+02  0.89999994430E+02 0.  0.
        -12    1    1    2    0    0  0.99970057910E+00  0.62541474423E+00 -0.49849576536E-01  0.11802668471E+01  0.00000000000E+00 0.  1.
         11    1    3    3    0    0  0.30537960757E+02 -0.18095261734E+02 -0.16993522820E+02  0.39354610436E+02  0.51100000000E-03 0. -1.
        -11    1    3    3    0    0  0.40840773058E+01  0.76722017409E+01 -0.22445789990E+01  0.89766643101E+01  0.51100000000E-03 0.  1.
        -12    1    3    3    0    0 -0.35621738642E+02  0.97976452489E+01  0.19287951396E+02  0.41676458407E+02  0.00000000000E+00 0.  1.
</event>
<event>
 7    1  0.4195243E-015  0.9000773E+02  0.7816164E-02  0.1186339E+00
        -11   -1    0    0    0    0  0.00000000000E+00  0.00000000000E+00  0.45593999997E+02  0.45594000000E+02  0.51100000000E-03 0. -1.
         11   -1    0    0    0    0 -0.00000000000E+00 -0.00000000000E+00 -0.45593999997E+02  0.45594000000E+02  0.51100000000E-03 0.  1.
    9900012    2    1    2    0    0  0.98856753219E-01  0.34889500439E+00  0.11231811581E+01  0.90007730414E+02  0.89999991655E+02 0.  0.
        -12    1    1    2    0    0 -0.98856753219E-01 -0.34889500439E+00 -0.11231811581E+01  0.11802695860E+01  0.00000000000E+00 0.  1.
         11    1    3    3    0    0  0.41827836130E+02  0.24082657323E+01 -0.11027230849E+01  0.41911616738E+02  0.51100000000E-03 0. -1.
        -11    1    3    3    0    0  0.10290728738E-01 -0.60895850079E+01 -0.19704362069E+00  0.60927808033E+01  0.51100000000E-03 0.  1.
        -12    1    3    3    0    0 -0.41739270105E+02  0.40302142800E+01  0.24229478637E+01  0.42003332873E+02  0.00000000000E+00 0.  1.
</event>
<event>
 7    1  0.4195243E-015  0.9000774E+02  0.7816164E-02  0.1186339E+00
        -11   -1    0    0    0    0  0.00000000000E+00  0.00000000000E+00  0.45593999997E+02  0.45594000000E+02  0.51100000000E-03 0.  1.
         11   -1    0    0    0    0 -0.00000000000E+00 -0.00000000000E+00 -0.45593999997E+02  0.45594000000E+02  0.51100000000E-03 0. -1.
    9900012    2    1    2    0    0  0.10165595248E+01 -0.19456800984E+00 -0.56723790847E+00  0.90007742052E+02  0.90000003448E+02 0.  0.
        -12    1    1    2    0    0 -0.10165595248E+01  0.19456800984E+00  0.56723790847E+00  0.11802579475E+01  0.00000000000E+00 0.  1.
         11    1    3    3    0    0  0.55300645918E+01 -0.62053875531E+01 -0.62813536532E+00  0.83356465480E+01  0.51100000000E-03 0. -1.
        -11    1    3    3    0    0 -0.41072464474E+02  0.53286523078E+01  0.12146788065E+02  0.43161166967E+02  0.51100000000E-03 0.  1.
         12    1    3    3    0    0  0.36558959407E+02  0.68216723550E+00 -0.12085890608E+02  0.38510928538E+02  0.00000000000E+00 0. -1.
</event>
<event>
 7    1  0.4195243E-015  0.9000782E+02  0.7816164E-02  0.1186339E+00
        -11   -1    0    0    0    0  0.00000000000E+00  0.00000000000E+00  0.45593999997E+02  0.45594000000E+02  0.51100000000E-03 0.  1.
         11   -1    0    0    0    0 -0.00000000000E+00 -0.00000000000E+00 -0.45593999997E+02  0.45594000000E+02  0.51100000000E-03 0. -1.
    9900012    2    1    2    0    0  0.58297985791E+00 -0.94696751894E+00  0.39522772541E+00  0.90007822915E+02  0.90000085378E+02 0.  0.
        -12    1    1    2    0    0 -0.58297985791E+00  0.94696751894E+00 -0.39522772541E+00  0.11801770848E+01  0.00000000000E+00 0.  1.
         11    1    3    3    0    0  0.12154736903E+02  0.23645986703E+00 -0.35696549355E+02  0.37709908228E+02  0.51100000000E-03 0. -1.
        -11    1    3    3    0    0 -0.22349061520E+01  0.58110516060E+01 -0.59835737236E+01  0.86351769549E+01  0.51100000000E-03 0.  1.
        -12    1    3    3    0    0 -0.93368508935E+01 -0.69944789920E+01  0.42075350804E+02  0.43662737732E+02  0.00000000000E+00 0.  1.
</event>
<event>
 7    1  0.4195243E-015  0.9000777E+02  0.7816164E-02  0.1186339E+00
        -11   -1    0    0    0    0  0.00000000000E+00  0.00000000000E+00  0.45593999997E+02  0.45594000000E+02  0.51100000000E-03 0.  1.
         11   -1    0    0    0    0 -0.00000000000E+00 -0.00000000000E+00 -0.45593999997E+02  0.45594000000E+02  0.51100000000E-03 0. -1.
    9900012    2    1    2    0    0 -0.67531455993E+00 -0.96735697921E+00 -0.33275050955E-01  0.90007772688E+02  0.90000034487E+02 0.  0.
        -12    1    1    2    0    0  0.67531455993E+00  0.96735697921E+00  0.33275050955E-01  0.11802273125E+01  0.00000000000E+00 0.  1.
         11    1    3    3    0    0  0.15755477494E+02 -0.38773957136E+00 -0.32896948074E+02  0.36477316319E+02  0.51100000000E-03 0. -1.
        -11    1    3    3    0    0  0.70510080571E+01  0.86864259709E+01 -0.10675862627E+01  0.11238792260E+02  0.51100000000E-03 0.  1.
        -12    1    3    3    0    0 -0.23481800111E+02 -0.92660433788E+01  0.33931259286E+02  0.42291664108E+02  0.00000000000E+00 0.  1.
</event>
<event>
 7    1  0.4195243E-015  0.9000768E+02  0.7816164E-02  0.1186339E+00
        -11   -1    0    0    0    0  0.00000000000E+00  0.00000000000E+00  0.45593999997E+02  0.45594000000E+02  0.51100000000E-03 0. -1.
         11   -1    0    0    0    0 -0.00000000000E+00 -0.00000000000E+00 -0.45593999997E+02  0.45594000000E+02  0.51100000000E-03 0.  1.
    9900012    2    1    2    0    0 -0.30181317542E+00 -0.24945610650E+00  0.11134830813E+01  0.90007676267E+02  0.89999936794E+02 0.  0.
        -12    1    1    2    0    0  0.30181317542E+00  0.24945610650E+00 -0.11134830813E+01  0.11803237329E+01  0.00000000000E+00 0.  1.
         11    1    3    3    0    0 -0.95095769124E+01  0.51265243504E+01  0.11775870346E+01  0.10867383147E+02  0.51100000000E-03 0. -1.
        -11    1    3    3    0    0 -0.18798806631E+02  0.22984247885E+02 -0.18752133000E+02  0.35118560248E+02  0.51100000000E-03 0.  1.
         12    1    3    3    0    0  0.28006570368E+02 -0.28360228342E+02  0.18688029047E+02  0.44021732872E+02  0.00000000000E+00 0. -1.
</event>
<event>
 7    1  0.4195243E-015  0.9000780E+02  0.7816164E-02  0.1186339E+00
        -11   -1    0    0    0    0  0.00000000000E+00  0.00000000000E+00  0.45593999997E+02  0.45594000000E+02  0.51100000000E-03 0.  1.
         11   -1    0    0    0    0 -0.00000000000E+00 -0.00000000000E+00 -0.45593999997E+02  0.45594000000E+02  0.51100000000E-03 0. -1.
    9900012    2    1    2    0    0  0.55521446659E+00  0.93250267715E+00 -0.46372155272E+00  0.90007804243E+02  0.90000066459E+02 0.  0.
        -12    1    1    2    0    0 -0.55521446659E+00 -0.93250267715E+00  0.46372155272E+00  0.11801957572E+01  0.00000000000E+00 0.  1.
         11    1    3    3    0    0 -0.36130092778E+02 -0.19094817890E+01 -0.57869542731E+01  0.36640395261E+02  0.51100000000E-03 0. -1.
        -11    1    3    3    0    0 -0.78625804603E+01  0.30298180140E+01 -0.49559235603E+00  0.84407097295E+01  0.51100000000E-03 0.  1.
        -12    1    3    3    0    0  0.44547887705E+02 -0.18783354783E+00  0.58188250764E+01  0.44926699252E+02  0.00000000000E+00 0.  1.
</event>
<event>
 7    1  0.4195243E-015  0.9000776E+02  0.7816164E-02  0.1186339E+00
        -11   -1    0    0    0    0  0.00000000000E+00  0.00000000000E+00  0.45593999997E+02  0.45594000000E+02  0.51100000000E-03 0. -1.
         11   -1    0    0    0    0 -0.00000000000E+00 -0.00000000000E+00 -0.45593999997E+02  0.45594000000E+02  0.51100000000E-03 0.  1.
    9900012    2    1    2    0    0 -0.25299140444E+00  0.62170235351E+00  0.97079951572E+00  0.90007758429E+02  0.90000020040E+02 0.  0.
        -12    1    1    2    0    0  0.25299140444E+00 -0.62170235351E+00 -0.97079951572E+00  0.11802415714E+01  0.00000000000E+00 0.  1.
         11    1    3    3    0    0  0.33184826018E+02  0.23079999156E+02  0.17586170914E+01  0.40460002141E+02  0.51100000000E-03 0. -1.
        -11    1    3    3    0    0  0.99493133182E+00 -0.12170691853E+02  0.49112779016E+01  0.13161925369E+02  0.51100000000E-03 0.  1.
        -12    1    3    3    0    0 -0.34432748754E+02 -0.10287604949E+02 -0.56990954773E+01  0.36385830918E+02  0.00000000000E+00 0.  1.
</event>
<event>
 7    1  0.4195243E-015  0.9000765E+02  0.7816164E-02  0.1186339E+00
        -11   -1    0    0    0    0  0.00000000000E+00  0.00000000000E+00  0.45593999997E+02  0.45594000000E+02  0.51100000000E-03 0. -1.
         11   -1    0    0    0    0 -0.00000000000E+00 -0.00000000000E+00 -0.45593999997E+02  0.45594000000E+02  0.51100000000E-03 0.  1.
    9900012    2    1    2    0    0 -0.97468641330E+00  0.66376311727E+00  0.51389950267E-01  0.90007645813E+02  0.89999905938E+02 0.  0.
        -12    1    1    2    0    0  0.97468641330E+00 -0.66376311727E+00 -0.51389950267E-01  0.11803541871E+01  0.00000000000E+00 0.  1.
         11    1    3    3    0    0  0.35435983429E+01 -0.27730149355E+01 -0.83307696168E+01  0.94682851519E+01  0.51100000000E-03 0. -1.
        -11    1    3    3    0    0  0.62825619164E+01  0.18380053311E+02 -0.31268988128E+02  0.36810957102E+02  0.51100000000E-03 0.  1.
         12    1    3    3    0    0 -0.10800846673E+02 -0.14943275258E+02  0.39651147695E+02  0.43728403559E+02  0.00000000000E+00 0. -1.
</event>
<event>
 7    1  0.4195243E-015  0.9000772E+02  0.7816164E-02  0.1186339E+00
        -11   -1    0    0    0    0  0.00000000000E+00  0.00000000000E+00  0.45593999997E+02  0.45594000000E+02  0.51100000000E-03 0. -1.
         11   -1    0    0    0    0 -0.00000000000E+00 -0.00000000000E+00 -0.45593999997E+02  0.45594000000E+02  0.51100000000E-03 0.  1.
    9900012    2    1    2    0    0 -0.70325661600E+00 -0.61835650346E+00  0.71841473588E+00  0.90007722759E+02  0.89999983899E+02 0.  0.
        -12    1    1    2    0    0  0.70325661600E+00  0.61835650346E+00 -0.71841473588E+00  0.11802772412E+01  0.00000000000E+00 0.  1.
         11    1    3    3    0    0  0.53654220477E+01 -0.38775154571E+01  0.31521457409E+02  0.32209085013E+02  0.51100000000E-03 0. -1.
        -11    1    3    3    0    0  0.15582922779E+01 -0.36152588981E+01  0.12598394800E+02  0.13199163743E+02  0.51100000000E-03 0.  1.
        -12    1    3    3    0    0 -0.76269709417E+01  0.68744178518E+01 -0.43401437474E+02  0.44599474003E+02  0.00000000000E+00 0.  1.
</event>
<event>
 7    1  0.4195243E-015  0.9000782E+02  0.7816164E-02  0.1186339E+00
        -11   -1    0    0    0    0  0.00000000000E+00  0.00000000000E+00  0.45593999997E+02  0.45594000000E+02  0.51100000000E-03 0.  1.
         11   -1    0    0    0    0 -0.00000000000E+00 -0.00000000000E+00 -0.45593999997E+02  0.45594000000E+02  0.51100000000E-03 0. -1.
    9900012    2    1    2    0    0  0.91602928272E+00  0.17308981630E+00  0.72371104834E+00  0.90007818907E+02  0.90000081316E+02 0.  0.
        -12    1    1    2    0    0 -0.91602928272E+00 -0.17308981630E+00 -0.72371104834E+00  0.11801810932E+01  0.00000000000E+00 0.  1.
         11    1    3    3    0    0 -0.99728902394E+01  0.31690801248E+02 -0.28810195525E+02  0.43974910914E+02  0.51100000000E-03 0. -1.
        -11    1    3    3    0    0  0.44917055932E+01 -0.30144075341E+01  0.83456409847E+01  0.99454409467E+01  0.51100000000E-03 0.  1.
        -12    1    3    3    0    0  0.63972139289E+01 -0.28503303897E+02  0.21188265589E+02  0.36087467046E+02  0.00000000000E+00 0.  1.
</event>
<event>
 7    1  0.4195243E-015  0.9000777E+02  0.7816164E-02  0.1186339E+00
        -11   -1    0    0    0    0  0.00000000000E+00  0.00000000000E+00  0.45593999997E+02  0.45594000000E+02  0.51100000000E-03 0.  1.
         11   -1    0    0    0    0 -0.00000000000E+00 -0.00000000000E+00 -0.45593999997E+02  0.45594000000E+02  0.51100000000E-03 0. -1.
    9900012    2    1    2    0    0  0.50506592965E+00 -0.91871109968E+00 -0.54204896830E+00  0.90007771733E+02  0.90000033520E+02 0.  0.
        -12    1    1    2    0    0 -0.50506592965E+00  0.91871109968E+00  0.54204896830E+00  0.11802282669E+01  0.00000000000E+00 0.  1.
         11    1    3    3    0    0  0.20975510541E+01 -0.38100497299E+01 -0.81802315395E+01  0.92645770367E+01  0.51100000000E-03 0. -1.
        -11    1    3    3    0    0  0.28754576929E+02 -0.15259451977E+01 -0.23404655500E+02  0.37107035754E+02  0.51100000000E-03 0.  1.
         12    1    3    3    0    0 -0.30347062054E+02  0.44172838279E+01  0.31042838071E+02  0.43636158942E+02  0.00000000000E+00 0. -1.
</event>
<event>
 7    1  0.4195243E-015  0.9000777E+02  0.7816164E-02  0.1186339E+00
        -11   -1    0    0    0    0  0.00000000000E+00  0.00000000000E+00  0.45593999997E+02  0.45594000000E+02  0.51100000000E-03 0.  1.
         11   -1    0    0    0    0 -0.00000000000E+00 -0.00000000000E+00 -0.45593999997E+02  0.45594000000E+02  0.51100000000E-03 0. -1.
    9900012    2    1    2    0    0  0.86870135217E-01  0.53184260213E+00 -0.10500211787E+01  0.90007768053E+02  0.90000029791E+02 0.  0.
        -12    1    1    2    0    0 -0.86870135217E-01 -0.53184260213E+00  0.10500211787E+01  0.11802319474E+01  0.00000000000E+00 0.  1.
         11    1    3    3    0    0  0.79294630233E+01 -0.70129128100E+01  0.97753199408E+01  0.14408824037E+02  0.51100000000E-03 0. -1.
        -11    1    3    3    0    0 -0.10274457850E+02 -0.11829804552E+02  0.28030500429E+02  0.32112578757E+02  0.51100000000E-03 0.  1.
         12    1    3    3    0    0  0.24318649618E+01  0.19374559964E+02 -0.38855841549E+02  0.43486365259E+02  0.00000000000E+00 0. -1.
</event>
<event>
 7    1  0.4195243E-015  0.9000778E+02  0.7816164E-02  0.1186339E+00
        -11   -1    0    0    0    0  0.00000000000E+00  0.00000000000E+00  0.45593999997E+02  0.45594000000E+02  0.51100000000E-03 0.  1.
         11   -1    0    0    0    0 -0.00000000000E+00 -0.00000000000E+00 -0.45593999997E+02  0.45594000000E+02  0.51100000000E-03 0. -1.
    9900012    2    1    2    0    0  0.11016205568E+01 -0.14048893364E+00 -0.39952685123E+00  0.90007776845E+02  0.90000038699E+02 0.  0.
        -12    1    1    2    0    0 -0.11016205568E+01  0.14048893364E+00  0.39952685123E+00  0.11802231554E+01  0.00000000000E+00 0.  1.
         11    1    3    3    0    0 -0.87959929948E+01 -0.67995419291E+01 -0.33351701712E+02  0.35155927957E+02  0.51100000000E-03 0. -1.
        -11    1    3    3    0    0  0.18924235084E+02  0.20881973422E+01 -0.13516257920E+01  0.19087014806E+02  0.51100000000E-03 0.  1.
        -12    1    3    3    0    0 -0.90266215321E+01  0.45708556533E+01  0.34303800653E+02  0.35764834082E+02  0.00000000000E+00 0.  1.
</event>
<event>
 7    1  0.4195243E-015  0.9000766E+02  0.7816164E-02  0.1186339E+00
        -11   -1    0    0    0    0  0.00000000000E+00  0.00000000000E+00  0.45593999997E+02  0.45594000000E+02  0.51100000000E-03 0. -1.
         11   -1    0    0    0    0 -0.00000000000E+00 -0.00000000000E+00 -0.45593999997E+02  0.45594000000E+02  0.51100000000E-03 0.  1.
    9900012    2    1    2    0    0 -0.54003545510E+00 -0.48022025151E+00  0.93325319457E+00  0.90007656276E+02  0.89999916538E+02 0.  0.
        -12    1    1    2    0    0  0.54003545510E+00  0.48022025151E+00 -0.93325319457E+00  0.11803437245E+01  0.00000000000E+00 0.  1.
         11    1    3    3    0    0 -0.17285929420E+02  0.18146615190E+01 -0.22907154661E+02  0.28754722869E+02  0.51100000000E-03 0. -1.
        -11    1    3    3    0    0  0.24672368464E+02 -0.15129272242E+01 -0.98684842409E+01  0.26615816649E+02  0.51100000000E-03 0.  1.
         12    1    3    3    0    0 -0.79264744990E+01 -0.78195454629E+00  0.33708892097E+02  0.34637116758E+02  0.00000000000E+00 0. -1.
</event>
<event>
 7    1  0.4195243E-015  0.9000776E+02  0.7816164E-02  0.1186339E+00
        -11   -1    0    0    0    0  0.00000000000E+00  0.00000000000E+00  0.45593999997E+02  0.45594000000E+02  0.51100000000E-03 0.  1.
         11   -1    0    0    0    0 -0.00000000000E+00 -0.00000000000E+00 -0.45593999997E+02  0.45594000000E+02  0.51100000000E-03 0. -1.
    9900012    2    1    2    0    0  0.67964646037E+00  0.13819883389E+00 -0.95495953923E+00  0.90007760215E+02  0.90000021850E+02 0.  0.
        -12    1    1    2    0    0 -0.67964646037E+00 -0.13819883389E+00  0.95495953923E+00  0.11802397851E+01  0.00000000000E+00 0.  1.
         11    1    3    3    0    0  0.18297452420E+02  0.29952380199E+02  0.12827750180E+02  0.37369680485E+02  0.51100000000E-03 0. -1.
        -11    1    3    3    0    0 -0.55134995907E+01  0.67518307512E+01  0.47136755523E+01  0.99098251096E+01  0.51100000000E-03 0.  1.
        -12    1    3    3    0    0 -0.12104306369E+02 -0.36566012116E+02 -0.18496385272E+02  0.42728254620E+02  0.00000000000E+00 0.  1.
</event>
<event>
 7    1  0.4195243E-015  0.9000775E+02  0.7816164E-02  0.1186339E+00
        -11   -1    0    0    0    0  0.00000000000E+00  0.00000000000E+00  0.45593999997E+02  0.45594000000E+02  0.51100000000E-03 0.  1.
         11   -1    0    0    0    0 -0.00000000000E+00 -0.00000000000E+00 -0.45593999997E+02  0.45594000000E+02  0.51100000000E-03 0. -1.
    9900012    2    1    2    0    0 -0.56996420417E+00  0.10308065236E+01 -0.74603581935E-01  0.90007751307E+02  0.90000012824E+02 0.  0.
        -12    1    1    2    0    0  0.56996420417E+00 -0.10308065236E+01  0.74603581935E-01  0.11802486931E+01  0.00000000000E+00 0.  1.
         11    1    3    3    0    0 -0.19857426874E+01 -0.74405901255E+01  0.38201989343E+01  0.85964804191E+01  0.51100000000E-03 0. -1.
        -11    1    3    3    0    0  0.80559403784E+01 -0.35318133377E+02  0.39209369247E+01  0.36436828446E+02  0.51100000000E-03 0.  1.
         12    1    3    3    0    0 -0.66401618952E+01  0.43789530026E+02 -0.78157394410E+01  0.44974442441E+02  0.00000000000E+00 0. -1.
</event>
<event>
 7    1  0.4195243E-015  0.9000870E+02  0.7816164E-02  0.1186337E+00
        -11   -1    0    0    0    0  0.00000000000E+00  0.00000000000E+00  0.45593999997E+02  0.45594000000E+02  0.51100000000E-03 0. -1.
         11   -1    0    0    0    0 -0.00000000000E+00 -0.00000000000E+00 -0.45593999997E+02  0.45594000000E+02  0.51100000000E-03 0.  1.
    9900012    2    1    2    0    0 -0.15038069448E-01 -0.93563991319E+00 -0.71769727505E+00  0.90008704630E+02  0.90000978726E+02 0.  0.
        -12    1    1    2    0    0  0.15038069448E-01  0.93563991319E+00  0.71769727505E+00  0.11792953698E+01  0.00000000000E+00 0.  1.
         11    1    3    3    0    0 -0.36763429928E+02  0.10144268035E+02  0.78706250586E+01  0.38941015564E+02  0.51100000000E-03 0. -1.
        -11    1    3    3    0    0  0.50986291240E+00  0.38467399232E+01 -0.11135974822E+02  0.11792680091E+02  0.51100000000E-03 0.  1.
        -12    1    3    3    0    0  0.36238528946E+02 -0.14926647872E+02  0.25476524880E+01  0.39275008976E+02  0.00000000000E+00 0.  1.
</event>
<event>
 7    1  0.4195243E-015  0.9000873E+02  0.7816164E-02  0.1186337E+00
        -11   -1    0    0    0    0  0.00000000000E+00  0.00000000000E+00  0.45593999997E+02  0.45594000000E+02  0.51100000000E-03 0.  1.
         11   -1    0    0    0    0 -0.00000000000E+00 -0.00000000000E+00 -0.45593999997E+02  0.45594000000E+02  0.51100000000E-03 0. -1.
    9900012    2    1    2    0    0  0.10538849512E+01 -0.34355840106E+00 -0.40245810695E+00  0.90008729720E+02  0.90001004147E+02 0.  0.
        -12    1    1    2    0    0 -0.10538849512E+01  0.34355840106E+00  0.40245810695E+00  0.11792702800E+01  0.00000000000E+00 0.  1.
         11    1    3    3    0    0  0.19268087753E+01 -0.10706167344E+02 -0.10818792348E+01  0.10931837640E+02  0.51100000000E-03 0. -1.
        -11    1    3    3    0    0  0.14911537430E+02 -0.30680089359E+02 -0.58865194578E+01  0.34616079258E+02  0.51100000000E-03 0.  1.
         12    1    3    3    0    0 -0.15784461254E+02  0.41042698302E+02  0.65659405856E+01  0.44460812822E+02  0.00000000000E+00 0. -1.
</event>
<event>
 7    1  0.4413758E-015  0.9000775E+02  0.7816164E-02  0.1186339E+00
        -11   -1    0    0    0    0  0.00000000000E+00  0.00000000000E+00  0.45593999997E+02  0.45594000000E+02  0.51100000000E-03 0. -1.
         11   -1    0    0    0    0 -0.00000000000E+00 -0.00000000000E+00 -0.45593999997E+02  0.45594000000E+02  0.51100000000E-03 0.  1.
    9900012    2    1    2    0    0  0.24428669795E+00  0.10849630774E+01 -0.39517727519E+00  0.90007751743E+02  0.90000013266E+02 0.  0.
        -12    1    1    2    0    0 -0.24428669795E+00 -0.10849630774E+01  0.39517727519E+00  0.11802482574E+01  0.00000000000E+00 0.  1.
         11    1    3    3    0    0  0.36291156683E+02  0.25189705602E+01 -0.12638102368E+02  0.38511230801E+02  0.51100000000E-03 0. -1.
        -11    1    3    3    0    0  0.41300251182E+01  0.63277853508E+01  0.68939582731E+01  0.10228618472E+02  0.51100000000E-03 0.  1.
        -12    1    3    3    0    0 -0.40176895104E+02 -0.77617928336E+01  0.53489668192E+01  0.41267902469E+02  0.00000000000E+00 0.  1.
</event>
<event>
 7    1  0.4195243E-015  0.9000781E+02  0.7816164E-02  0.1186339E+00
        -11   -1    0    0    0    0  0.00000000000E+00  0.00000000000E+00  0.45593999997E+02  0.45594000000E+02  0.51100000000E-03 0.  1.
         11   -1    0    0    0    0 -0.00000000000E+00 -0.00000000000E+00 -0.45593999997E+02  0.45594000000E+02  0.51100000000E-03 0. -1.
    9900012    2    1    2    0    0  0.11780337189E+01 -0.71170593351E-01 -0.53869009721E-02  0.90007806069E+02  0.90000068309E+02 0.  0.
        -12    1    1    2    0    0 -0.11780337189E+01  0.71170593351E-01  0.53869009721E-02  0.11801939310E+01  0.00000000000E+00 0.  1.
         11    1    3    3    0    0  0.17824135869E+01  0.62031868387E+01  0.10698819876E+02  0.12494849825E+02  0.51100000000E-03 0. -1.
        -11    1    3    3    0    0 -0.20782419139E+02 -0.51478453463E+01  0.27165223351E+02  0.34588417381E+02  0.51100000000E-03 0.  1.
         12    1    3    3    0    0  0.20178039270E+02 -0.11265120858E+01 -0.37869430129E+02  0.42924538862E+02  0.00000000000E+00 0. -1.
</event>
<event>
 7    1  0.4195243E-015  0.9000770E+02  0.7816164E-02  0.1186339E+00
        -11   -1    0    0    0    0  0.00000000000E+00  0.00000000000E+00  0.45593999997E+02  0.45594000000E+02  0.51100000000E-03 0.  1.
         11   -1    0    0    0    0 -0.00000000000E+00 -0.00000000000E+00 -0.45593999997E+02  0.45594000000E+02  0.51100000000E-03 0. -1.
    9900012    2    1    2    0    0  0.87799287561E+00  0.78813493933E+00  0.33015805795E-01  0.90007695711E+02  0.89999956494E+02 0.  0.
        -12    1    1    2    0    0 -0.87799287561E+00 -0.78813493933E+00 -0.33015805795E-01  0.11803042894E+01  0.00000000000E+00 0.  1.
         11    1    3    3    0    0 -0.18838235233E+02  0.65343995288E+01 -0.41697839942E+00  0.19943704649E+02  0.51100000000E-03 0. -1.
        -11    1    3    3    0    0  0.16426687096E+02  0.11487253483E+02 -0.29315098522E+02  0.35512927832E+02  0.51100000000E-03 0.  1.
         12    1    3    3    0    0  0.32895410124E+01 -0.17233518072E+02  0.29765092727E+02  0.34551063230E+02  0.00000000000E+00 0. -1.
</event>
<event>
 7    1  0.4195243E-015  0.9000770E+02  0.7816164E-02  0.1186339E+00
        -11   -1    0    0    0    0  0.00000000000E+00  0.00000000000E+00  0.45593999997E+02  0.45594000000E+02  0.51100000000E-03 0. -1.
         11   -1    0    0    0    0 -0.00000000000E+00 -0.00000000000E+00 -0.45593999997E+02  0.45594000000E+02  0.51100000000E-03 0.  1.
    9900012    2    1    2    0    0 -0.10053909257E+01 -0.30189367243E+00 -0.53959642696E+00  0.90007697070E+02  0.89999957871E+02 0.  0.
        -12    1    1    2    0    0  0.10053909257E+01  0.30189367243E+00  0.53959642696E+00  0.11803029302E+01  0.00000000000E+00 0.  1.
         11    1    3    3    0    0  0.16896056531E+00 -0.92277821911E+01 -0.72593310128E+01  0.11742163295E+02  0.51100000000E-03 0. -1.
        -11    1    3    3    0    0 -0.32651503308E+02  0.25898997225E+02 -0.96693289764E+00  0.41687092547E+02  0.51100000000E-03 0.  1.
         12    1    3    3    0    0  0.31477151817E+02 -0.16973108706E+02  0.76866674835E+01  0.36578441228E+02  0.00000000000E+00 0. -1.
</event>
<event>
 7    1  0.4195243E-015  0.9000773E+02  0.7816164E-02  0.1186339E+00
        -11   -1    0    0    0    0  0.00000000000E+00  0.00000000000E+00  0.45593999997E+02  0.45594000000E+02  0.51100000000E-03 0.  1.
         11   -1    0    0    0    0 -0.00000000000E+00 -0.00000000000E+00 -0.45593999997E+02  0.45594000000E+02  0.51100000000E-03 0. -1.
    9900012    2    1    2    0    0  0.11111758219E+01  0.39645731601E+00 -0.33779077873E-01  0.90007732599E+02  0.89999993870E+02 0.  0.
        -12    1    1    2    0    0 -0.11111758219E+01 -0.39645731601E+00  0.33779077873E-01  0.11802674005E+01  0.00000000000E+00 0.  1.
         11    1    3    3    0    0  0.51347522749E+01 -0.65136146850E+01  0.53309507835E+01  0.98596092066E+01  0.51100000000E-03 0. -1.
        -11    1    3    3    0    0  0.23194200411E+02 -0.27148854774E+02  0.27023925263E+01  0.35809693853E+02  0.51100000000E-03 0.  1.
         12    1    3    3    0    0 -0.27217776864E+02  0.34058926775E+02 -0.80671223877E+01  0.44338429540E+02  0.00000000000E+00 0. -1.
</event>
<event>
 7    1  0.4195243E-015  0.9000796E+02  0.7816164E-02  0.1186339E+00
        -11   -1    0    0    0    0  0.00000000000E+00  0.00000000000E+00  0.45593999997E+02  0.45594000000E+02  0.51100000000E-03 0.  1.
         11   -1    0    0    0    0 -0.00000000000E+00 -0.00000000000E+00 -0.45593999997E+02  0.45594000000E+02  0.51100000000E-03 0. -1.
    9900012    2    1    2    0    0  0.68700855433E+00 -0.89374218211E+00  0.34891040866E+00  0.90007960037E+02  0.90000224309E+02 0.  0.
        -12    1    1    2    0    0 -0.68700855433E+00  0.89374218211E+00 -0.34891040866E+00  0.11800399633E+01  0.00000000000E+00 0.  1.
         11    1    3    3    0    0  0.15849485373E+02 -0.17623064837E+02 -0.34609577926E+02  0.41947604047E+02  0.51100000000E-03 0. -1.
        -11    1    3    3    0    0  0.51753340451E+00  0.10864180062E+02  0.19509557412E+01  0.11050089493E+02  0.51100000000E-03 0.  1.
        -12    1    3    3    0    0 -0.15680010223E+02  0.58651425930E+01  0.33007532594E+02  0.37010266496E+02  0.00000000000E+00 0.  1.
</event>
<event>
 7    1  0.4195243E-015  0.9000776E+02  0.7816164E-02  0.1186339E+00
        -11   -1    0    0    0    0  0.00000000000E+00  0.00000000000E+00  0.45593999997E+02  0.45594000000E+02  0.51100000000E-03 0.  1.
         11   -1    0    0    0    0 -0.00000000000E+00 -0.00000000000E+00 -0.45593999997E+02  0.45594000000E+02  0.51100000000E-03 0. -1.
    9900012    2    1    2    0    0  0.23340098267E+00  0.39261340297E+00 -0.10882737345E+01  0.90007762302E+02  0.90000023964E+02 0.  0.
        -12    1    1    2    0    0 -0.23340098267E+00 -0.39261340297E+00  0.10882737345E+01  0.11802376981E+01  0.00000000000E+00 0.  1.
         11    1    3    3    0    0  0.30969313187E+02 -0.77051659019E+01 -0.19355400388E+02  0.37324247685E+02  0.51100000000E-03 0. -1.
        -11    1    3    3    0    0  0.50504517610E+01 -0.35924978473E+01 -0.53954544429E+01  0.82173008147E+01  0.51100000000E-03 0.  1.
        -12    1    3    3    0    0 -0.35786363965E+02  0.11690277152E+02  0.23662581096E+02  0.44466213802E+02  0.00000000000E+00 0.  1.
</event>
<event>
 7    1  0.4195243E-015  0.9000791E+02  0.7816164E-02  0.1186339E+00
        -11   -1    0    0    0    0  0.00000000000E+00  0.00000000000E+00  0.45593999997E+02  0.45594000000E+02  0.51100000000E-03 0.  1.
         11   -1    0    0    0    0 -0.00000000000E+00 -0.00000000000E+00 -0.45593999997E+02  0.45594000000E+02  0.51100000000E-03 0. -1.
    9900012    2    1    2    0    0  0.11517186858E+01 -0.22485927922E+00  0.12488603650E+00  0.90007909262E+02  0.90000172865E+02 0.  0.
        -12    1    1    2    0    0 -0.11517186858E+01  0.22485927922E+00 -0.12488603650E+00  0.11800907376E+01  0.00000000000E+00 0.  1.
         11    1    3    3    0    0  0.17763330117E+02 -0.13744476338E+02 -0.33101955876E+02  0.40002325054E+02  0.51100000000E-03 0. -1.
        -11    1    3    3    0    0  0.38046103176E+01 -0.71271415850E+01  0.49467701341E+01  0.94732118029E+01  0.51100000000E-03 0.  1.
        -12    1    3    3    0    0 -0.20416221749E+02  0.20646758644E+02  0.28280071779E+02  0.40532372405E+02  0.00000000000E+00 0.  1.
</event>
<event>
 7    1  0.4195243E-015  0.9000772E+02  0.7816164E-02  0.1186339E+00
        -11   -1    0    0    0    0  0.00000000000E+00  0.00000000000E+00  0.45593999997E+02  0.45594000000E+02  0.51100000000E-03 0. -1.
         11   -1    0    0    0    0 -0.00000000000E+00 -0.00000000000E+00 -0.45593999997E+02  0.45594000000E+02  0.51100000000E-03 0.  1.
    9900012    2    1    2    0    0  0.30978578647E+00  0.74262837496E+00  0.86347556275E+00  0.90007722836E+02  0.89999983977E+02 0.  0.
        -12    1    1    2    0    0 -0.30978578647E+00 -0.74262837496E+00 -0.86347556275E+00  0.11802771642E+01  0.00000000000E+00 0.  1.
         11    1    3    3    0    0 -0.61461056512E+01  0.49184595118E+01 -0.60711802538E+01  0.99410808557E+01  0.51100000000E-03 0. -1.
        -11    1    3    3    0    0 -0.17435359795E+02  0.31892672731E+02  0.68318231893E+00  0.36353831757E+02  0.51100000000E-03 0.  1.
         12    1    3    3    0    0  0.23891251233E+02 -0.36068503867E+02  0.62514734976E+01  0.43712810223E+02  0.00000000000E+00 0. -1.
</event>
<event>
 7    1  0.4195243E-015  0.9000746E+02  0.7816164E-02  0.1186340E+00
        -11   -1    0    0    0    0  0.00000000000E+00  0.00000000000E+00  0.45593999997E+02  0.45594000000E+02  0.51100000000E-03 0. -1.
         11   -1    0    0    0    0 -0.00000000000E+00 -0.00000000000E+00 -0.45593999997E+02  0.45594000000E+02  0.51100000000E-03 0.  1.
    9900012    2    1    2    0    0 -0.90598400419E+00 -0.72806542822E+00  0.20683425011E+00  0.90007463389E+02  0.89999721105E+02 0.  0.
        -12    1    1    2    0    0  0.90598400419E+00  0.72806542822E+00 -0.20683425011E+00  0.11805366113E+01  0.00000000000E+00 0.  1.
         11    1    3    3    0    0  0.75339374641E+01  0.23155406564E+01 -0.42104796033E+01  0.89358872528E+01  0.51100000000E-03 0. -1.
        -11    1    3    3    0    0 -0.17982134001E+02  0.19129795809E+02 -0.29467893455E+02  0.39467239273E+02  0.51100000000E-03 0.  1.
         12    1    3    3    0    0  0.95422125323E+01 -0.22173401893E+02  0.33885207308E+02  0.41604336863E+02  0.00000000000E+00 0. -1.
</event>
<event>
 7    1  0.4195243E-015  0.9000774E+02  0.7816164E-02  0.1186339E+00
        -11   -1    0    0    0    0  0.00000000000E+00  0.00000000000E+00  0.45593999997E+02  0.45594000000E+02  0.51100000000E-03 0.  1.
         11   -1    0    0    0    0 -0.00000000000E+00 -0.00000000000E+00 -0.45593999997E+02  0.45594000000E+02  0.51100000000E-03 0. -1.
    9900012    2    1    2    0    0  0.87219999713E+00 -0.75774093817E+00  0.24105387881E+00  0.90007741072E+02  0.90000002454E+02 0.  0.
        -12    1    1    2    0    0 -0.87219999713E+00  0.75774093817E+00 -0.24105387881E+00  0.11802589279E+01  0.00000000000E+00 0.  1.
         11    1    3    3    0    0 -0.23123114045E+02  0.15667032372E+02 -0.30745115236E+02  0.41537891348E+02  0.51100000000E-03 0. -1.
        -11    1    3    3    0    0  0.91500723476E+01  0.54409821059E+01  0.11222261566E+02  0.15468266391E+02  0.51100000000E-03 0.  1.
        -12    1    3    3    0    0  0.14845241694E+02 -0.21865755417E+02  0.19763907549E+02  0.33001583333E+02  0.00000000000E+00 0.  1.
</event>
<event>
 7    1  0.4195243E-015  0.9000755E+02  0.7816164E-02  0.1186339E+00
        -11   -1    0    0    0    0  0.00000000000E+00  0.00000000000E+00  0.45593999997E+02  0.45594000000E+02  0.51100000000E-03 0.  1.
         11   -1    0    0    0    0 -0.00000000000E+00 -0.00000000000E+00 -0.45593999997E+02  0.45594000000E+02  0.51100000000E-03 0. -1.
    9900012    2    1    2    0    0  0.43479847664E+00  0.36386448765E+00 -0.10353834379E+01  0.90007548415E+02  0.89999807254E+02 0.  0.
        -12    1    1    2    0    0 -0.43479847664E+00 -0.36386448765E+00  0.10353834379E+01  0.11804515848E+01  0.00000000000E+00 0.  1.
         11    1    3    3    0    0 -0.50941932621E+01 -0.37998933649E+02 -0.92964046557E+01  0.39449878368E+02  0.51100000000E-03 0. -1.
        -11    1    3    3    0    0  0.39631672245E+01 -0.47301795275E+01  0.37011841152E+01  0.71958360826E+01  0.51100000000E-03 0.  1.
        -12    1    3    3    0    0  0.15658245142E+01  0.43092977664E+02  0.45598371026E+01  0.43361833965E+02  0.00000000000E+00 0.  1.
</event>
<event>
 7    1  0.4195243E-015  0.9000770E+02  0.7816164E-02  0.1186339E+00
        -11   -1    0    0    0    0  0.00000000000E+00  0.00000000000E+00  0.45593999997E+02  0.45594000000E+02  0.51100000000E-03 0.  1.
         11   -1    0    0    0    0 -0.00000000000E+00 -0.00000000000E+00 -0.45593999997E+02  0.45594000000E+02  0.51100000000E-03 0. -1.
    9900012    2    1    2    0    0  0.69167485745E+00  0.47820727099E-02  0.95638066660E+00  0.90007703022E+02  0.89999963902E+02 0.  0.
        -12    1    1    2    0    0 -0.69167485745E+00 -0.47820727099E-02 -0.95638066660E+00  0.11802969779E+01  0.00000000000E+00 0.  1.
         11    1    3    3    0    0  0.20038209994E+02  0.17445360522E+02 -0.33264566157E+02  0.42572312897E+02  0.51100000000E-03 0. -1.
        -11    1    3    3    0    0 -0.96404803116E+01 -0.10823660129E+02  0.40370349315E+01  0.15046199870E+02  0.51100000000E-03 0.  1.
        -12    1    3    3    0    0 -0.97060548254E+01 -0.66169183206E+01  0.30183911892E+02  0.32389190256E+02  0.00000000000E+00 0.  1.
</event>
<event>
 7    1  0.4195243E-015  0.9000773E+02  0.7816164E-02  0.1186339E+00
        -11   -1    0    0    0    0  0.00000000000E+00  0.00000000000E+00  0.45593999997E+02  0.45594000000E+02  0.51100000000E-03 0.  1.
         11   -1    0    0    0    0 -0.00000000000E+00 -0.00000000000E+00 -0.45593999997E+02  0.45594000000E+02  0.51100000000E-03 0. -1.
    9900012    2    1    2    0    0 -0.10440827165E+01  0.49598405296E+00  0.23858010809E+00  0.90007733349E+02  0.89999994629E+02 0.  0.
        -12    1    1    2    0    0  0.10440827165E+01 -0.49598405296E+00 -0.23858010809E+00  0.11802666511E+01  0.00000000000E+00 0.  1.
         11    1    3    3    0    0 -0.14827067927E+02  0.34813257975E+02  0.13012568779E+02  0.40014145257E+02  0.51100000000E-03 0. -1.
        -11    1    3    3    0    0  0.65381054262E+01  0.50634857057E+01 -0.27701804550E+01  0.87212160889E+01  0.51100000000E-03 0.  1.
        -12    1    3    3    0    0  0.72448797848E+01 -0.39380759627E+02 -0.10003808216E+02  0.41272372003E+02  0.00000000000E+00 0.  1.
</event>
<event>
 7    1  0.4195243E-015  0.9000765E+02  0.7816164E-02  0.1186339E+00
        -11   -1    0    0    0    0  0.00000000000E+00  0.00000000000E+00  0.45593999997E+02  0.45594000000E+02  0.51100000000E-03 0.  1.
         11   -1    0    0    0    0 -0.00000000000E+00 -0.00000000000E+00 -0.45593999997E+02  0.45594000000E+02  0.51100000000E-03 0. -1.
    9900012    2    1    2    0    0  0.83008469477E+00 -0.41512677401E+00 -0.72927745229E+00  0.90007654101E+02  0.89999914335E+02 0.  0.
        -12    1    1    2    0    0 -0.83008469477E+00  0.41512677401E+00  0.72927745229E+00  0.11803458990E+01  0.00000000000E+00 0.  1.
         11    1    3    3    0    0  0.30975537035E+01 -0.67398512878E+01  0.81915765761E+01  0.11050898669E+02  0.51100000000E-03 0. -1.
        -11    1    3    3    0    0 -0.74829368417E+00 -0.19753862652E+01  0.34580317099E+02  0.34644774862E+02  0.51100000000E-03 0.  1.
         12    1    3    3    0    0 -0.15191753246E+01  0.83001107790E+01 -0.43501171127E+02  0.44311980570E+02  0.00000000000E+00 0. -1.
</event>
<event>
 7    1  0.4195243E-015  0.9000778E+02  0.7816164E-02  0.1186339E+00
        -11   -1    0    0    0    0  0.00000000000E+00  0.00000000000E+00  0.45593999997E+02  0.45594000000E+02  0.51100000000E-03 0.  1.
         11   -1    0    0    0    0 -0.00000000000E+00 -0.00000000000E+00 -0.45593999997E+02  0.45594000000E+02  0.51100000000E-03 0. -1.
    9900012    2    1    2    0    0  0.11720229213E+01 -0.90955293350E-01  0.10487614793E+00  0.90007784088E+02  0.90000046038E+02 0.  0.
        -12    1    1    2    0    0 -0.11720229213E+01  0.90955293350E-01 -0.10487614793E+00  0.11802159124E+01  0.00000000000E+00 0.  1.
         11    1    3    3    0    0  0.26972578389E+01  0.85323664059E+01  0.29225168380E+01  0.94136911604E+01  0.51100000000E-03 0. -1.
        -11    1    3    3    0    0  0.11702940638E+02 -0.14232632764E+02  0.35321134471E+02  0.39838539074E+02  0.51100000000E-03 0.  1.
         12    1    3    3    0    0 -0.13228175556E+02  0.56093110644E+01 -0.38138775161E+02  0.40755553854E+02  0.00000000000E+00 0. -1.
</event>
<event>
 7    1  0.4195243E-015  0.9000785E+02  0.7816164E-02  0.1186339E+00
        -11   -1    0    0    0    0  0.00000000000E+00  0.00000000000E+00  0.45593999997E+02  0.45594000000E+02  0.51100000000E-03 0. -1.
         11   -1    0    0    0    0 -0.00000000000E+00 -0.00000000000E+00 -0.45593999997E+02  0.45594000000E+02  0.51100000000E-03 0.  1.
    9900012    2    1    2    0    0 -0.20340056232E+00  0.68476895125E-01  0.11604715307E+01  0.90007849566E+02  0.90000112380E+02 0.  0.
        -12    1    1    2    0    0  0.20340056232E+00 -0.68476895125E-01 -0.11604715307E+01  0.11801504342E+01  0.00000000000E+00 0.  1.
         11    1    3    3    0    0 -0.73811459001E+01 -0.38338676184E+02  0.87246308210E+01  0.40005681966E+02  0.51100000000E-03 0. -1.
        -11    1    3    3    0    0 -0.79946119671E+01  0.29400393872E+01 -0.76155278499E+01  0.11426019289E+02  0.51100000000E-03 0.  1.
        -12    1    3    3    0    0  0.15172357305E+02  0.35467113691E+02  0.51368559483E-01  0.38576148311E+02  0.00000000000E+00 0.  1.
</event>
<event>
 7    1  0.4195243E-015  0.9000764E+02  0.7816164E-02  0.1186339E+00
        -11   -1    0    0    0    0  0.00000000000E+00  0.00000000000E+00  0.45593999997E+02  0.45594000000E+02  0.51100000000E-03 0. -1.
         11   -1    0    0    0    0 -0.00000000000E+00 -0.00000000000E+00 -0.45593999997E+02  0.45594000000E+02  0.51100000000E-03 0.  1.
    9900012    2    1    2    0    0  0.60683885163E+00  0.73137487647E+00 -0.70005846935E+00  0.90007642231E+02  0.89999902309E+02 0.  0.
        -12    1    1    2    0    0 -0.60683885163E+00 -0.73137487647E+00  0.70005846935E+00  0.11803577688E+01  0.00000000000E+00 0.  1.
         11    1    3    3    0    0 -0.11189458731E+01  0.28797111507E+01  0.87525517728E+01  0.92818068810E+01  0.51100000000E-03 0. -1.
        -11    1    3    3    0    0  0.26510349738E+02 -0.16304601048E+02 -0.31784794206E+02  0.44484961522E+02  0.51100000000E-03 0.  1.
         12    1    3    3    0    0 -0.24784565014E+02  0.14156264773E+02  0.22332183964E+02  0.36240873829E+02  0.00000000000E+00 0. -1.
</event>
<event>
 7    1  0.4195243E-015  0.9000774E+02  0.7816164E-02  0.1186339E+00
        -11   -1    0    0    0    0  0.00000000000E+00  0.00000000000E+00  0.45593999997E+02  0.45594000000E+02  0.51100000000E-03 0. -1.
         11   -1    0    0    0    0 -0.00000000000E+00 -0.00000000000E+00 -0.45593999997E+02  0.45594000000E+02  0.51100000000E-03 0.  1.
    9900012    2    1    2    0    0 -0.10178501337E+01 -0.93467820417E-01  0.59013529273E+00  0.90007739524E+02  0.90000000885E+02 0.  0.
        -12    1    1    2    0    0  0.10178501337E+01  0.93467820417E-01 -0.59013529273E+00  0.11802604763E+01  0.00000000000E+00 0.  1.
         11    1    3    3    0    0 -0.36514138300E+02 -0.17241183910E+02  0.86329079650E+01  0.41292466851E+02  0.51100000000E-03 0. -1.
        -11    1    3    3    0    0  0.48713508803E+01  0.46831638588E+00  0.87382044060E+01  0.10015268151E+02  0.51100000000E-03 0.  1.
        -12    1    3    3    0    0  0.30624937286E+02  0.16679399704E+02 -0.16780977078E+02  0.38700004522E+02  0.00000000000E+00 0.  1.
</event>
<event>
 7    1  0.4195243E-015  0.9000772E+02  0.7816164E-02  0.1186339E+00
        -11   -1    0    0    0    0  0.00000000000E+00  0.00000000000E+00  0.45593999997E+02  0.45594000000E+02  0.51100000000E-03 0.  1.
         11   -1    0    0    0    0 -0.00000000000E+00 -0.00000000000E+00 -0.45593999997E+02  0.45594000000E+02  0.51100000000E-03 0. -1.
    9900012    2    1    2    0    0  0.34330102721E+00  0.10510805084E+01 -0.41285155128E+00  0.90007715190E+02  0.89999976230E+02 0.  0.
        -12    1    1    2    0    0 -0.34330102721E+00 -0.10510805084E+01  0.41285155128E+00  0.11802848105E+01  0.00000000000E+00 0.  1.
         11    1    3    3    0    0 -0.27514647531E+02  0.16712450290E+02 -0.28018517747E+02  0.42677853278E+02  0.51100000000E-03 0. -1.
        -11    1    3    3    0    0  0.78027509518E+01  0.96979483042E+00 -0.17755391956E+01  0.80607669688E+01  0.51100000000E-03 0.  1.
        -12    1    3    3    0    0  0.20055197606E+02 -0.16631164612E+02  0.29381205392E+02  0.39269094943E+02  0.00000000000E+00 0.  1.
</event>
<event>
 7    1  0.4195243E-015  0.9000775E+02  0.7816164E-02  0.1186339E+00
        -11   -1    0    0    0    0  0.00000000000E+00  0.00000000000E+00  0.45593999997E+02  0.45594000000E+02  0.51100000000E-03 0. -1.
         11   -1    0    0    0    0 -0.00000000000E+00 -0.00000000000E+00 -0.45593999997E+02  0.45594000000E+02  0.51100000000E-03 0.  1.
    9900012    2    1    2    0    0  0.10590913515E+01 -0.45693305884E+00 -0.25005899906E+00  0.90007749258E+02  0.90000010748E+02 0.  0.
        -12    1    1    2    0    0 -0.10590913515E+01  0.45693305884E+00  0.25005899906E+00  0.11802507421E+01  0.00000000000E+00 0.  1.
         11    1    3    3    0    0  0.91162429941E+01  0.19305051392E+01  0.33139372281E+02  0.34424565819E+02  0.51100000000E-03 0. -1.
        -11    1    3    3    0    0  0.30258583074E+01  0.96664795306E+00  0.10095234064E+02  0.10583193177E+02  0.51100000000E-03 0.  1.
        -12    1    3    3    0    0 -0.11083009950E+02 -0.33540861511E+01 -0.43484665344E+02  0.44999990261E+02  0.00000000000E+00 0.  1.
</event>
<event>
 7    1  0.4195243E-015  0.9000759E+02  0.7816164E-02  0.1186339E+00
        -11   -1    0    0    0    0  0.00000000000E+00  0.00000000000E+00  0.45593999997E+02  0.45594000000E+02  0.51100000000E-03 0.  1.
         11   -1    0    0    0    0 -0.00000000000E+00 -0.00000000000E+00 -0.45593999997E+02  0.45594000000E+02  0.51100000000E-03 0. -1.
    9900012    2    1    2    0    0 -0.10741451023E+01 -0.16116044131E+00 -0.46218013944E+00  0.90007588686E+02  0.89999848057E+02 0.  0.
        -12    1    1    2    0    0  0.10741451023E+01  0.16116044131E+00  0.46218013944E+00  0.11804113139E+01  0.00000000000E+00 0.  1.
         11    1    3    3    0    0 -0.81547999612E+01 -0.68200459690E-01 -0.10252610570E+02  0.13100436537E+02  0.51100000000E-03 0. -1.
        -11    1    3    3    0    0 -0.24916822260E+02 -0.23175419471E+02 -0.57342486571E+01  0.34508400530E+02  0.51100000000E-03 0.  1.
         12    1    3    3    0    0  0.31997477119E+02  0.23082459489E+02  0.15524679088E+02  0.42398751619E+02  0.00000000000E+00 0. -1.
</event>
<event>
 7    1  0.4195243E-015  0.9000766E+02  0.7816164E-02  0.1186339E+00
        -11   -1    0    0    0    0  0.00000000000E+00  0.00000000000E+00  0.45593999997E+02  0.45594000000E+02  0.51100000000E-03 0. -1.
         11   -1    0    0    0    0 -0.00000000000E+00 -0.00000000000E+00 -0.45593999997E+02  0.45594000000E+02  0.51100000000E-03 0.  1.
    9900012    2    1    2    0    0 -0.11012359188E+01  0.19010099468E+00  0.37993524145E+00  0.90007656946E+02  0.89999917218E+02 0.  0.
        -12    1    1    2    0    0  0.11012359188E+01 -0.19010099468E+00 -0.37993524145E+00  0.11803430538E+01  0.00000000000E+00 0.  1.
         11    1    3    3    0    0 -0.60106785390E+01  0.11538584645E+02  0.25205527793E+02  0.28365222081E+02  0.51100000000E-03 0. -1.
        -11    1    3    3    0    0  0.97001568551E+01  0.15209967493E+02  0.74962786641E+01  0.19535361482E+02  0.51100000000E-03 0.  1.
        -12    1    3    3    0    0 -0.47907142349E+01 -0.26558451144E+02 -0.32321871216E+02  0.42107073383E+02  0.00000000000E+00 0.  1.
</event>
<event>
 7    1  0.4195243E-015  0.9000756E+02  0.7816164E-02  0.1186339E+00
        -11   -1    0    0    0    0  0.00000000000E+00  0.00000000000E+00  0.45593999997E+02  0.45594000000E+02  0.51100000000E-03 0.  1.
         11   -1    0    0    0    0 -0.00000000000E+00 -0.00000000000E+00 -0.45593999997E+02  0.45594000000E+02  0.51100000000E-03 0. -1.
    9900012    2    1    2    0    0  0.18821911076E+00  0.80444986676E+00  0.84312864298E+00  0.90007562822E+02  0.89999821851E+02 0.  0.
        -12    1    1    2    0    0 -0.18821911076E+00 -0.80444986676E+00 -0.84312864298E+00  0.11804371777E+01  0.00000000000E+00 0.  1.
         11    1    3    3    0    0 -0.37132004378E+02 -0.10355018755E+02 -0.52021303903E+01  0.38898256045E+02  0.51100000000E-03 0. -1.
        -11    1    3    3    0    0  0.18614031258E+00 -0.43680041581E+01  0.97540524706E+01  0.10689043381E+02  0.51100000000E-03 0.  1.
        -12    1    3    3    0    0  0.37134083176E+02  0.15527472780E+02 -0.37087934373E+01  0.40420263396E+02  0.00000000000E+00 0.  1.
</event>
<event>
 7    1  0.4195243E-015  0.9000775E+02  0.7816164E-02  0.1186339E+00
        -11   -1    0    0    0    0  0.00000000000E+00  0.00000000000E+00  0.45593999997E+02  0.45594000000E+02  0.51100000000E-03 0.  1.
         11   -1    0    0    0    0 -0.00000000000E+00 -0.00000000000E+00 -0.45593999997E+02  0.45594000000E+02  0.51100000000E-03 0. -1.
    9900012    2    1    2    0    0  0.54951844583E+00 -0.81337235245E+00 -0.65532466302E+00  0.90007747688E+02  0.90000009157E+02 0.  0.
        -12    1    1    2    0    0 -0.54951844583E+00  0.81337235245E+00  0.65532466302E+00  0.11802523120E+01  0.00000000000E+00 0.  1.
         11    1    3    3    0    0 -0.15012666102E+02  0.11834166765E+01 -0.12994702186E+02  0.19890774336E+02  0.51100000000E-03 0. -1.
        -11    1    3    3    0    0  0.15801763483E+00 -0.20226823193E+02 -0.20972594460E+02  0.29137588519E+02  0.51100000000E-03 0.  1.
         12    1    3    3    0    0  0.15404166913E+02  0.18230034164E+02  0.33311971983E+02  0.40979384833E+02  0.00000000000E+00 0. -1.
</event>
<event>
 7    1  0.4195243E-015  0.9000776E+02  0.7816164E-02  0.1186339E+00
        -11   -1    0    0    0    0  0.00000000000E+00  0.00000000000E+00  0.45593999997E+02  0.45594000000E+02  0.51100000000E-03 0. -1.
         11   -1    0    0    0    0 -0.00000000000E+00 -0.00000000000E+00 -0.45593999997E+02  0.45594000000E+02  0.51100000000E-03 0.  1.
    9900012    2    1    2    0    0 -0.48780744863E+00 -0.70524732843E+00  0.81095042447E+00  0.90007758291E+02  0.90000019900E+02 0.  0.
        -12    1    1    2    0    0  0.48780744863E+00  0.70524732843E+00 -0.81095042447E+00  0.11802417092E+01  0.00000000000E+00 0.  1.
         11    1    3    3    0    0 -0.49844593840E+01  0.72051438478E+01 -0.16637706093E+00  0.87627972021E+01  0.51100000000E-03 0. -1.
        -11    1    3    3    0    0  0.13272106392E+02  0.32621023529E+02  0.13818829623E+02  0.37831733196E+02  0.51100000000E-03 0.  1.
         12    1    3    3    0    0 -0.87754544568E+01 -0.40531414705E+02 -0.12841502138E+02  0.43413227893E+02  0.00000000000E+00 0. -1.
</event>
<event>
 7    1  0.4195243E-015  0.9000787E+02  0.7816164E-02  0.1186339E+00
        -11   -1    0    0    0    0  0.00000000000E+00  0.00000000000E+00  0.45593999997E+02  0.45594000000E+02  0.51100000000E-03 0. -1.
         11   -1    0    0    0    0 -0.00000000000E+00 -0.00000000000E+00 -0.45593999997E+02  0.45594000000E+02  0.51100000000E-03 0.  1.
    9900012    2    1    2    0    0 -0.63893554221E+00  0.90072750695E+00  0.41611990737E+00  0.90007871004E+02  0.90000134102E+02 0.  0.
        -12    1    1    2    0    0  0.63893554221E+00 -0.90072750695E+00 -0.41611990737E+00  0.11801289956E+01  0.00000000000E+00 0.  1.
         11    1    3    3    0    0 -0.12856771591E+02  0.36006418328E+01  0.11415777216E+01  0.13400164077E+02  0.51100000000E-03 0. -1.
        -11    1    3    3    0    0  0.10378356427E+02  0.35878798320E+02 -0.52663915907E+01  0.37719137472E+02  0.51100000000E-03 0.  1.
         12    1    3    3    0    0  0.18394796217E+01 -0.38578712646E+02  0.45409337765E+01  0.38888569455E+02  0.00000000000E+00 0. -1.
</event>
<event>
 7    1  0.4195243E-015  0.9000814E+02  0.7816164E-02  0.1186338E+00
        -11   -1    0    0    0    0  0.00000000000E+00  0.00000000000E+00  0.45593999997E+02  0.45594000000E+02  0.51100000000E-03 0.  1.
         11   -1    0    0    0    0 -0.00000000000E+00 -0.00000000000E+00 -0.45593999997E+02  0.45594000000E+02  0.51100000000E-03 0. -1.
    9900012    2    1    2    0    0 -0.17923703463E+00  0.74760454747E+00 -0.89500254621E+00  0.90008140673E+02  0.90000407329E+02 0.  0.
        -12    1    1    2    0    0  0.17923703463E+00 -0.74760454747E+00  0.89500254621E+00  0.11798593271E+01  0.00000000000E+00 0.  1.
         11    1    3    3    0    0  0.62429045786E+00  0.11666869498E+02 -0.31218200933E+01  0.12093442166E+02  0.51100000000E-03 0. -1.
        -11    1    3    3    0    0 -0.24195513569E+00  0.33259192285E+02 -0.31397538171E+01  0.33407940195E+02  0.51100000000E-03 0.  1.
         12    1    3    3    0    0 -0.56157235681E+00 -0.44178457236E+02  0.53665713641E+01  0.44506758312E+02  0.00000000000E+00 0. -1.
</event>
<event>
 7    1  0.4195243E-015  0.9000773E+02  0.7816164E-02  0.1186339E+00
        -11   -1    0    0    0    0  0.00000000000E+00  0.00000000000E+00  0.45593999997E+02  0.45594000000E+02  0.51100000000E-03 0.  1.
         11   -1    0    0    0    0 -0.00000000000E+00 -0.00000000000E+00 -0.45593999997E+02  0.45594000000E+02  0.51100000000E-03 0. -1.
    9900012    2    1    2    0    0 -0.45847569113E+00  0.10258851103E+01 -0.36109199569E+00  0.90007734077E+02  0.89999995367E+02 0.  0.
        -12    1    1    2    0    0  0.45847569113E+00 -0.10258851103E+01  0.36109199569E+00  0.11802659227E+01  0.00000000000E+00 0.  1.
         11    1    3    3    0    0  0.10646110984E+01  0.98026777474E+01  0.24986421470E+01  0.10171976241E+02  0.51100000000E-03 0. -1.
        -11    1    3    3    0    0 -0.35928192034E+02 -0.21943237098E+02  0.42651858834E+01  0.42314683598E+02  0.51100000000E-03 0.  1.
         12    1    3    3    0    0  0.34405105244E+02  0.13166444461E+02 -0.71249200261E+01  0.37521074238E+02  0.00000000000E+00 0. -1.
</event>
<event>
 7    1  0.4195243E-015  0.9000776E+02  0.7816164E-02  0.1186339E+00
        -11   -1    0    0    0    0  0.00000000000E+00  0.00000000000E+00  0.45593999997E+02  0.45594000000E+02  0.51100000000E-03 0.  1.
         11   -1    0    0    0    0 -0.00000000000E+00 -0.00000000000E+00 -0.45593999997E+02  0.45594000000E+02  0.51100000000E-03 0. -1.
    9900012    2    1    2    0    0  0.11694917675E+01 -0.33983447091E-01 -0.15522010436E+00  0.90007763096E+02  0.90000024769E+02 0.  0.
        -12    1    1    2    0    0 -0.11694917675E+01  0.33983447091E-01  0.15522010436E+00  0.11802369040E+01  0.00000000000E+00 0.  1.
         11    1    3    3    0    0 -0.34656642988E+02  0.87371090855E+01  0.18974363428E+02  0.40465373421E+02  0.51100000000E-03 0. -1.
        -11    1    3    3    0    0  0.68174756783E+01 -0.12174514502E+02  0.11255015177E+01  0.13998697507E+02  0.51100000000E-03 0.  1.
        -12    1    3    3    0    0  0.29008659077E+02  0.34034219690E+01 -0.20255085050E+02  0.35543692168E+02  0.00000000000E+00 0.  1.
</event>
<event>
 7    1  0.4195243E-015  0.9000772E+02  0.7816164E-02  0.1186339E+00
        -11   -1    0    0    0    0  0.00000000000E+00  0.00000000000E+00  0.45593999997E+02  0.45594000000E+02  0.51100000000E-03 0. -1.
         11   -1    0    0    0    0 -0.00000000000E+00 -0.00000000000E+00 -0.45593999997E+02  0.45594000000E+02  0.51100000000E-03 0.  1.
    9900012    2    1    2    0    0  0.46734807840E-01 -0.93582296165E+00 -0.71772080869E+00  0.90007715324E+02  0.89999976366E+02 0.  0.
        -12    1    1    2    0    0 -0.46734807840E-01  0.93582296165E+00  0.71772080869E+00  0.11802846763E+01  0.00000000000E+00 0.  1.
         11    1    3    3    0    0 -0.10929972884E+02 -0.60277125449E+01  0.37380203318E+01  0.13029597923E+02  0.51100000000E-03 0. -1.
        -11    1    3    3    0    0 -0.10168897733E+01  0.24541768888E+02 -0.32541454914E+02  0.40771053127E+02  0.51100000000E-03 0.  1.
         12    1    3    3    0    0  0.11993597465E+02 -0.19449879305E+02  0.28085713773E+02  0.36207064273E+02  0.00000000000E+00 0. -1.
</event>
<event>
 7    1  0.4195243E-015  0.9000772E+02  0.7816164E-02  0.1186339E+00
        -11   -1    0    0    0    0  0.00000000000E+00  0.00000000000E+00  0.45593999997E+02  0.45594000000E+02  0.51100000000E-03 0.  1.
         11   -1    0    0    0    0 -0.00000000000E+00 -0.00000000000E+00 -0.45593999997E+02  0.45594000000E+02  0.51100000000E-03 0. -1.
    9900012    2    1    2    0    0 -0.11338364172E+01  0.32784893699E+00 -0.14105140971E-02  0.90007715316E+02  0.89999976358E+02 0.  0.
        -12    1    1    2    0    0  0.11338364172E+01 -0.32784893699E+00  0.14105140971E-02  0.11802846843E+01  0.00000000000E+00 0.  1.
         11    1    3    3    0    0  0.78993219986E+01 -0.58535009620E+01 -0.19335789133E+01  0.10020054352E+02  0.51100000000E-03 0. -1.
        -11    1    3    3    0    0 -0.16488361914E+01  0.78715401847E+01 -0.38255773042E+02  0.39091993770E+02  0.51100000000E-03 0.  1.
         12    1    3    3    0    0 -0.73843222244E+01 -0.16901902857E+01  0.40187941441E+02  0.40895667193E+02  0.00000000000E+00 0. -1.
</event>
<event>
 7    1  0.4195243E-015  0.9000770E+02  0.7816164E-02  0.1186339E+00
        -11   -1    0    0    0    0  0.00000000000E+00  0.00000000000E+00  0.45593999997E+02  0.45594000000E+02  0.51100000000E-03 0.  1.
         11   -1    0    0    0    0 -0.00000000000E+00 -0.00000000000E+00 -0.45593999997E+02  0.45594000000E+02  0.51100000000E-03 0. -1.
    9900012    2    1    2    0    0 -0.60648654445E+00 -0.15948834458E+00 -0.99991698087E+00  0.90007704940E+02  0.89999965845E+02 0.  0.
        -12    1    1    2    0    0  0.60648654445E+00  0.15948834458E+00  0.99991698087E+00  0.11802950603E+01  0.00000000000E+00 0.  1.
         11    1    3    3    0    0  0.18850946158E+02  0.27883508409E+02 -0.14504840130E+02  0.36650219640E+02  0.51100000000E-03 0. -1.
        -11    1    3    3    0    0  0.11179356360E+02 -0.21792272756E+01  0.46167701354E+01  0.12289898571E+02  0.51100000000E-03 0.  1.
        -12    1    3    3    0    0 -0.30636789063E+02 -0.25863769478E+02  0.88881530132E+01  0.41067586728E+02  0.00000000000E+00 0.  1.
</event>
<event>
 7    1  0.4195243E-015  0.9000757E+02  0.7816164E-02  0.1186339E+00
        -11   -1    0    0    0    0  0.00000000000E+00  0.00000000000E+00  0.45593999997E+02  0.45594000000E+02  0.51100000000E-03 0. -1.
         11   -1    0    0    0    0 -0.00000000000E+00 -0.00000000000E+00 -0.45593999997E+02  0.45594000000E+02  0.51100000000E-03 0.  1.
    9900012    2    1    2    0    0 -0.46696183754E-01  0.11597538233E+01 -0.21494278897E+00  0.90007572168E+02  0.89999831320E+02 0.  0.
        -12    1    1    2    0    0  0.46696183754E-01 -0.11597538233E+01  0.21494278897E+00  0.11804278320E+01  0.00000000000E+00 0.  1.
         11    1    3    3    0    0 -0.71571886889E+01 -0.38216590190E+01  0.61995011793E+01  0.10210986373E+02  0.51100000000E-03 0. -1.
        -11    1    3    3    0    0 -0.32037751984E+02 -0.14268882242E+02 -0.86208548261E+01  0.36115615609E+02  0.51100000000E-03 0.  1.
         12    1    3    3    0    0  0.39148244490E+02  0.19250295084E+02  0.22064108578E+01  0.43680970185E+02  0.00000000000E+00 0. -1.
</event>
<event>
 7    1  0.4195243E-015  0.9000780E+02  0.7816164E-02  0.1186339E+00
        -11   -1    0    0    0    0  0.00000000000E+00  0.00000000000E+00  0.45593999997E+02  0.45594000000E+02  0.51100000000E-03 0.  1.
         11   -1    0    0    0    0 -0.00000000000E+00 -0.00000000000E+00 -0.45593999997E+02  0.45594000000E+02  0.51100000000E-03 0. -1.
    9900012    2    1    2    0    0  0.83871062126E+00  0.14419213343E+00  0.81771258541E+00  0.90007796310E+02  0.90000058421E+02 0.  0.
        -12    1    1    2    0    0 -0.83871062126E+00 -0.14419213343E+00 -0.81771258541E+00  0.11802036900E+01  0.00000000000E+00 0.  1.
         11    1    3    3    0    0 -0.41027174241E+01 -0.49663509983E+01  0.73239763031E+01  0.97538485558E+01  0.51100000000E-03 0. -1.
        -11    1    3    3    0    0 -0.14335856090E+02  0.77888376975E+01  0.32665719336E+02  0.36513449337E+02  0.51100000000E-03 0.  1.
         12    1    3    3    0    0  0.19277284135E+02 -0.26782945658E+01 -0.39171983054E+02  0.43740498417E+02  0.00000000000E+00 0. -1.
</event>
<event>
 7    1  0.4195243E-015  0.9000768E+02  0.7816164E-02  0.1186339E+00
        -11   -1    0    0    0    0  0.00000000000E+00  0.00000000000E+00  0.45593999997E+02  0.45594000000E+02  0.51100000000E-03 0. -1.
         11   -1    0    0    0    0 -0.00000000000E+00 -0.00000000000E+00 -0.45593999997E+02  0.45594000000E+02  0.51100000000E-03 0.  1.
    9900012    2    1    2    0    0 -0.56779837669E+00  0.10182391395E+01 -0.18422799403E+00  0.90007683985E+02  0.89999944613E+02 0.  0.
        -12    1    1    2    0    0  0.56779837669E+00 -0.10182391395E+01  0.18422799403E+00  0.11803160151E+01  0.00000000000E+00 0.  1.
         11    1    3    3    0    0  0.27148927645E+02  0.25331727953E+01  0.34521481724E+02  0.43991066563E+02  0.51100000000E-03 0. -1.
        -11    1    3    3    0    0 -0.20016757676E+01 -0.25803844963E+01 -0.92821130344E+01  0.98398532850E+01  0.51100000000E-03 0.  1.
        -12    1    3    3    0    0 -0.25715050255E+02  0.10654508405E+01 -0.25423596683E+02  0.36176764137E+02  0.00000000000E+00 0.  1.
</event>
<event>
 7    1  0.4195243E-015  0.9000779E+02  0.7816164E-02  0.1186339E+00
        -11   -1    0    0    0    0  0.00000000000E+00  0.00000000000E+00  0.45593999997E+02  0.45594000000E+02  0.51100000000E-03 0. -1.
         11   -1    0    0    0    0 -0.00000000000E+00 -0.00000000000E+00 -0.45593999997E+02  0.45594000000E+02  0.51100000000E-03 0.  1.
    9900012    2    1    2    0    0 -0.85170666232E-01 -0.65720561919E+00  0.97659268607E+00  0.90007785383E+02  0.90000047350E+02 0.  0.
        -12    1    1    2    0    0  0.85170666232E-01  0.65720561919E+00 -0.97659268607E+00  0.11802146172E+01  0.00000000000E+00 0.  1.
         11    1    3    3    0    0  0.10082645244E+02  0.73909282356E+01 -0.68595886645E+01  0.14259716414E+02  0.51100000000E-03 0. -1.
        -11    1    3    3    0    0 -0.23530241994E+01 -0.38977925594E+02 -0.84152902173E+01  0.39945369146E+02  0.51100000000E-03 0.  1.
         12    1    3    3    0    0 -0.78147917104E+01  0.30929791739E+02  0.16251471568E+02  0.35802699823E+02  0.00000000000E+00 0. -1.
</event>
<event>
 7    1  0.4195243E-015  0.9000778E+02  0.7816164E-02  0.1186339E+00
        -11   -1    0    0    0    0  0.00000000000E+00  0.00000000000E+00  0.45593999997E+02  0.45594000000E+02  0.51100000000E-03 0.  1.
         11   -1    0    0    0    0 -0.00000000000E+00 -0.00000000000E+00 -0.45593999997E+02  0.45594000000E+02  0.51100000000E-03 0. -1.
    9900012    2    1    2    0    0  0.39561566098E+00 -0.10151989863E+01  0.45363057514E+00  0.90007779075E+02  0.90000040959E+02 0.  0.
        -12    1    1    2    0    0 -0.39561566098E+00  0.10151989863E+01 -0.45363057514E+00  0.11802209249E+01  0.00000000000E+00 0.  1.
         11    1    3    3    0    0 -0.28519448913E+02  0.22937115964E+02  0.95851177820E+01  0.37833116950E+02  0.51100000000E-03 0. -1.
        -11    1    3    3    0    0 -0.17096728466E+01  0.11275124766E+00  0.90361577152E+01  0.91971648132E+01  0.51100000000E-03 0.  1.
        -12    1    3    3    0    0  0.30624737420E+02 -0.24065066198E+02 -0.18167644922E+02  0.42977497312E+02  0.00000000000E+00 0.  1.
</event>
<event>
 7    1  0.4195243E-015  0.9000774E+02  0.7816164E-02  0.1186339E+00
        -11   -1    0    0    0    0  0.00000000000E+00  0.00000000000E+00  0.45593999997E+02  0.45594000000E+02  0.51100000000E-03 0. -1.
         11   -1    0    0    0    0 -0.00000000000E+00 -0.00000000000E+00 -0.45593999997E+02  0.45594000000E+02  0.51100000000E-03 0.  1.
    9900012    2    1    2    0    0 -0.11150796224E+00  0.92969855252E-01  0.11712985713E+01  0.90007738265E+02  0.89999999610E+02 0.  0.
        -12    1    1    2    0    0  0.11150796224E+00 -0.92969855252E-01 -0.11712985713E+01  0.11802617348E+01  0.00000000000E+00 0.  1.
         11    1    3    3    0    0 -0.20637129466E+02  0.29824114575E+01  0.30462758313E+02  0.36915654335E+02  0.51100000000E-03 0. -1.
        -11    1    3    3    0    0 -0.17990988556E+01  0.41267874264E+01  0.79339379192E+01  0.91221983272E+01  0.51100000000E-03 0.  1.
        -12    1    3    3    0    0  0.22324720359E+02 -0.70162290287E+01 -0.37225397661E+02  0.43969885603E+02  0.00000000000E+00 0.  1.
</event>
<event>
 7    1  0.4195243E-015  0.9000774E+02  0.7816164E-02  0.1186339E+00
        -11   -1    0    0    0    0  0.00000000000E+00  0.00000000000E+00  0.45593999997E+02  0.45594000000E+02  0.51100000000E-03 0. -1.
         11   -1    0    0    0    0 -0.00000000000E+00 -0.00000000000E+00 -0.45593999997E+02  0.45594000000E+02  0.51100000000E-03 0.  1.
    9900012    2    1    2    0    0 -0.41309826083E+00 -0.19695460796E+00  0.10879208277E+01  0.90007740275E+02  0.90000001647E+02 0.  0.
        -12    1    1    2    0    0  0.41309826083E+00  0.19695460796E+00 -0.10879208277E+01  0.11802597248E+01  0.00000000000E+00 0.  1.
         11    1    3    3    0    0  0.50510514860E+01 -0.69035973446E+01  0.45847237763E+01  0.97052805099E+01  0.51100000000E-03 0. -1.
        -11    1    3    3    0    0 -0.77634752976E+01  0.35421494376E+02  0.21504660243E+02  0.42159272111E+02  0.51100000000E-03 0.  1.
         12    1    3    3    0    0  0.22993255508E+01 -0.28714851640E+02 -0.25001463191E+02  0.38143187654E+02  0.00000000000E+00 0. -1.
</event>
<event>
 7    1  0.4195243E-015  0.9000772E+02  0.7816164E-02  0.1186339E+00
        -11   -1    0    0    0    0  0.00000000000E+00  0.00000000000E+00  0.45593999997E+02  0.45594000000E+02  0.51100000000E-03 0. -1.
         11   -1    0    0    0    0 -0.00000000000E+00 -0.00000000000E+00 -0.45593999997E+02  0.45594000000E+02  0.51100000000E-03 0.  1.
    9900012    2    1    2    0    0 -0.69911802261E+00  0.13310505418E+00  0.94157815987E+00  0.90007723593E+02  0.89999984745E+02 0.  0.
        -12    1    1    2    0    0  0.69911802261E+00 -0.13310505418E+00 -0.94157815987E+00  0.11802764067E+01  0.00000000000E+00 0.  1.
         11    1    3    3    0    0 -0.25073258912E+02  0.16429132807E+02  0.21039216592E+02  0.36622852870E+02  0.51100000000E-03 0. -1.
        -11    1    3    3    0    0 -0.94734648329E+01  0.34743035421E+01 -0.23757404411E+01  0.10366362137E+02  0.51100000000E-03 0.  1.
        -12    1    3    3    0    0  0.33847605722E+02 -0.19770331295E+02 -0.17721897991E+02  0.43018508587E+02  0.00000000000E+00 0.  1.
</event>
<event>
 7    1  0.4195243E-015  0.9000774E+02  0.7816164E-02  0.1186339E+00
        -11   -1    0    0    0    0  0.00000000000E+00  0.00000000000E+00  0.45593999997E+02  0.45594000000E+02  0.51100000000E-03 0.  1.
         11   -1    0    0    0    0 -0.00000000000E+00 -0.00000000000E+00 -0.45593999997E+02  0.45594000000E+02  0.51100000000E-03 0. -1.
    9900012    2    1    2    0    0  0.48983247301E-01  0.10972537619E+01 -0.43202915661E+00  0.90007739703E+02  0.90000001067E+02 0.  0.
        -12    1    1    2    0    0 -0.48983247301E-01 -0.10972537619E+01  0.43202915661E+00  0.11802602970E+01  0.00000000000E+00 0.  1.
         11    1    3    3    0    0  0.18604999815E+02  0.32009483617E+02 -0.46102869900E+01  0.37309620822E+02  0.51100000000E-03 0. -1.
        -11    1    3    3    0    0  0.49610657700E+01  0.56470092079E+01  0.53272313173E+01  0.92130494592E+01  0.51100000000E-03 0.  1.
        -12    1    3    3    0    0 -0.23517082338E+02 -0.36559239063E+02 -0.11489734839E+01  0.43485069421E+02  0.00000000000E+00 0.  1.
</event>
<event>
 7    1  0.4195243E-015  0.9000772E+02  0.7816164E-02  0.1186339E+00
        -11   -1    0    0    0    0  0.00000000000E+00  0.00000000000E+00  0.45593999997E+02  0.45594000000E+02  0.51100000000E-03 0.  1.
         11   -1    0    0    0    0 -0.00000000000E+00 -0.00000000000E+00 -0.45593999997E+02  0.45594000000E+02  0.51100000000E-03 0. -1.
    9900012    2    1    2    0    0  0.10240953894E+01 -0.50233901433E+00  0.30323357166E+00  0.90007717639E+02  0.89999978712E+02 0.  0.
        -12    1    1    2    0    0 -0.10240953894E+01  0.50233901433E+00 -0.30323357166E+00  0.11802823606E+01  0.00000000000E+00 0.  1.
         11    1    3    3    0    0  0.81851726438E+01 -0.25787633292E+02 -0.20017573541E+02  0.33655643401E+02  0.51100000000E-03 0. -1.
        -11    1    3    3    0    0  0.19201349008E+01 -0.12718798739E+02  0.14025141038E+01  0.12939157835E+02  0.51100000000E-03 0.  1.
        -12    1    3    3    0    0 -0.90812121553E+01  0.38004093017E+02  0.18918293009E+02  0.43412916403E+02  0.00000000000E+00 0.  1.
</event>
<event>
 7    1  0.4195243E-015  0.9000766E+02  0.7816164E-02  0.1186339E+00
        -11   -1    0    0    0    0  0.00000000000E+00  0.00000000000E+00  0.45593999997E+02  0.45594000000E+02  0.51100000000E-03 0.  1.
         11   -1    0    0    0    0 -0.00000000000E+00 -0.00000000000E+00 -0.45593999997E+02  0.45594000000E+02  0.51100000000E-03 0. -1.
    9900012    2    1    2    0    0  0.66089999919E+00 -0.34373878022E+00 -0.91557035063E+00  0.90007655040E+02  0.89999915286E+02 0.  0.
        -12    1    1    2    0    0 -0.66089999919E+00  0.34373878022E+00  0.91557035063E+00  0.11803449601E+01  0.00000000000E+00 0.  1.
         11    1    3    3    0    0  0.47645423529E+01  0.36592631361E+01  0.80903819081E+01  0.10076971282E+02  0.51100000000E-03 0. -1.
        -11    1    3    3    0    0  0.33166444153E+02 -0.18191480823E+02  0.38671603596E+01  0.38024964455E+02  0.51100000000E-03 0.  1.
         12    1    3    3    0    0 -0.37270086506E+02  0.14188478906E+02 -0.12873112618E+02  0.41905719304E+02  0.00000000000E+00 0. -1.
</event>
<event>
 7    1  0.4195243E-015  0.9000772E+02  0.7816164E-02  0.1186339E+00
        -11   -1    0    0    0    0  0.00000000000E+00  0.00000000000E+00  0.45593999997E+02  0.45594000000E+02  0.51100000000E-03 0. -1.
         11   -1    0    0    0    0 -0.00000000000E+00 -0.00000000000E+00 -0.45593999997E+02  0.45594000000E+02  0.51100000000E-03 0.  1.
    9900012    2    1    2    0    0  0.75924007650E+00  0.77010734527E+00  0.47280132659E+00  0.90007723799E+02  0.89999984953E+02 0.  0.
        -12    1    1    2    0    0 -0.75924007650E+00 -0.77010734527E+00 -0.47280132659E+00  0.11802762013E+01  0.00000000000E+00 0.  1.
         11    1    3    3    0    0 -0.22879714286E+01 -0.56461455516E+01  0.10176002734E+02  0.11860219423E+02  0.51100000000E-03 0. -1.
        -11    1    3    3    0    0  0.26094469692E+02 -0.12420438240E+02 -0.30360532074E+02  0.41915993876E+02  0.51100000000E-03 0.  1.
         12    1    3    3    0    0 -0.23047258186E+02  0.18836691136E+02  0.20657330666E+02  0.36231510500E+02  0.00000000000E+00 0. -1.
</event>
<event>
 7    1  0.4195243E-015  0.9000768E+02  0.7816164E-02  0.1186339E+00
        -11   -1    0    0    0    0  0.00000000000E+00  0.00000000000E+00  0.45593999997E+02  0.45594000000E+02  0.51100000000E-03 0. -1.
         11   -1    0    0    0    0 -0.00000000000E+00 -0.00000000000E+00 -0.45593999997E+02  0.45594000000E+02  0.51100000000E-03 0.  1.
    9900012    2    1    2    0    0  0.75322802197E+00 -0.19084570280E+00  0.88846787677E+00  0.90007682372E+02  0.89999942979E+02 0.  0.
        -12    1    1    2    0    0 -0.75322802197E+00  0.19084570280E+00 -0.88846787677E+00  0.11803176282E+01  0.00000000000E+00 0.  1.
         11    1    3    3    0    0  0.15478859770E+02  0.10161225663E+02 -0.29524587973E+02  0.34850350098E+02  0.51100000000E-03 0. -1.
        -11    1    3    3    0    0  0.18823025443E+01  0.19000028067E+01 -0.96916156309E+01  0.10053879218E+02  0.51100000000E-03 0.  1.
        -12    1    3    3    0    0 -0.16607934292E+02 -0.12252074172E+02  0.40104671481E+02  0.45103453056E+02  0.00000000000E+00 0.  1.
</event>
<event>
 7    1  0.4195243E-015  0.9000787E+02  0.7816164E-02  0.1186339E+00
        -11   -1    0    0    0    0  0.00000000000E+00  0.00000000000E+00  0.45593999997E+02  0.45594000000E+02  0.51100000000E-03 0.  1.
         11   -1    0    0    0    0 -0.00000000000E+00 -0.00000000000E+00 -0.45593999997E+02  0.45594000000E+02  0.51100000000E-03 0. -1.
    9900012    2    1    2    0    0  0.59867546025E+00 -0.58548906169E+00 -0.83155989464E+00  0.90007872208E+02  0.90000135321E+02 0.  0.
        -12    1    1    2    0    0 -0.59867546025E+00  0.58548906169E+00  0.83155989464E+00  0.11801277924E+01  0.00000000000E+00 0.  1.
         11    1    3    3    0    0  0.64304290934E+01  0.22184679036E-01 -0.42109005826E+02  0.42597174582E+02  0.51100000000E-03 0. -1.
        -11    1    3    3    0    0 -0.64741885076E+01 -0.48004131531E+01  0.25526557148E+01  0.84542968206E+01  0.51100000000E-03 0.  1.
        -12    1    3    3    0    0  0.64243487448E+00  0.41927394123E+01  0.38724790216E+02  0.38956400805E+02  0.00000000000E+00 0.  1.
</event>
<event>
 7    1  0.4195243E-015  0.9000776E+02  0.7816164E-02  0.1186339E+00
        -11   -1    0    0    0    0  0.00000000000E+00  0.00000000000E+00  0.45593999997E+02  0.45594000000E+02  0.51100000000E-03 0.  1.
         11   -1    0    0    0    0 -0.00000000000E+00 -0.00000000000E+00 -0.45593999997E+02  0.45594000000E+02  0.51100000000E-03 0. -1.
    9900012    2    1    2    0    0 -0.11584908780E+00  0.11330341448E+01 -0.30949412039E+00  0.90007756807E+02  0.90000018397E+02 0.  0.
        -12    1    1    2    0    0  0.11584908780E+00 -0.11330341448E+01  0.30949412039E+00  0.11802431931E+01  0.00000000000E+00 0.  1.
         11    1    3    3    0    0  0.30244746141E+02  0.92727923680E+01 -0.23591496684E+02  0.39462489322E+02  0.51100000000E-03 0. -1.
        -11    1    3    3    0    0 -0.14406396248E+01  0.84963496882E+01 -0.18020210065E+01  0.88040150228E+01  0.51100000000E-03 0.  1.
        -12    1    3    3    0    0 -0.28919955604E+02 -0.16636107911E+02  0.25084023570E+02  0.41741252462E+02  0.00000000000E+00 0.  1.
</event>
<event>
 7    1  0.4195243E-015  0.9000799E+02  0.7816164E-02  0.1186339E+00
        -11   -1    0    0    0    0  0.00000000000E+00  0.00000000000E+00  0.45593999997E+02  0.45594000000E+02  0.51100000000E-03 0.  1.
         11   -1    0    0    0    0 -0.00000000000E+00 -0.00000000000E+00 -0.45593999997E+02  0.45594000000E+02  0.51100000000E-03 0. -1.
    9900012    2    1    2    0    0  0.73500521238E+00  0.48543100605E+00 -0.78519930359E+00  0.90007994123E+02  0.90000258845E+02 0.  0.
        -12    1    1    2    0    0 -0.73500521238E+00 -0.48543100605E+00  0.78519930359E+00  0.11800058772E+01  0.00000000000E+00 0.  1.
         11    1    3    3    0    0  0.98052953846E+01  0.14032126122E+01 -0.97743400554E+01  0.13915837991E+02  0.51100000000E-03 0. -1.
        -11    1    3    3    0    0 -0.15009940331E+02 -0.22667732192E+02 -0.23912366869E+02  0.36206707680E+02  0.51100000000E-03 0.  1.
         12    1    3    3    0    0  0.59396501592E+01  0.21749950586E+02  0.32901507620E+02  0.39885448452E+02  0.00000000000E+00 0. -1.
</event>
<event>
 7    1  0.4195243E-015  0.9000760E+02  0.7816164E-02  0.1186339E+00
        -11   -1    0    0    0    0  0.00000000000E+00  0.00000000000E+00  0.45593999997E+02  0.45594000000E+02  0.51100000000E-03 0. -1.
         11   -1    0    0    0    0 -0.00000000000E+00 -0.00000000000E+00 -0.45593999997E+02  0.45594000000E+02  0.51100000000E-03 0.  1.
    9900012    2    1    2    0    0  0.16249020867E+00 -0.87210437672E+00 -0.77869446524E+00  0.90007604227E+02  0.89999863802E+02 0.  0.
        -12    1    1    2    0    0 -0.16249020867E+00  0.87210437672E+00  0.77869446524E+00  0.11803957735E+01  0.00000000000E+00 0.  1.
         11    1    3    3    0    0 -0.11378386232E+02  0.15010476574E+01 -0.63061298414E+00  0.11494280766E+02  0.51100000000E-03 0. -1.
        -11    1    3    3    0    0 -0.56841190582E+01 -0.51963592307E+01  0.36827892909E+02  0.37624527307E+02  0.51100000000E-03 0.  1.
         12    1    3    3    0    0  0.17224995499E+02  0.28232071966E+01 -0.36975974390E+02  0.40888796154E+02  0.00000000000E+00 0. -1.
</event>
<event>
 7    1  0.4195243E-015  0.9000772E+02  0.7816164E-02  0.1186339E+00
        -11   -1    0    0    0    0  0.00000000000E+00  0.00000000000E+00  0.45593999997E+02  0.45594000000E+02  0.51100000000E-03 0.  1.
         11   -1    0    0    0    0 -0.00000000000E+00 -0.00000000000E+00 -0.45593999997E+02  0.45594000000E+02  0.51100000000E-03 0. -1.
    9900012    2    1    2    0    0  0.59616944184E+00 -0.44137825548E-01 -0.10176965375E+01  0.90007715122E+02  0.89999976162E+02 0.  0.
        -12    1    1    2    0    0 -0.59616944184E+00  0.44137825548E-01  0.10176965375E+01  0.11802848781E+01  0.00000000000E+00 0.  1.
         11    1    3    3    0    0  0.84458861311E+01  0.76994407944E+00 -0.79636095357E+01  0.11633781996E+02  0.51100000000E-03 0. -1.
        -11    1    3    3    0    0 -0.19160091513E+02  0.17160676390E+02  0.34845810976E+02  0.43310835408E+02  0.51100000000E-03 0.  1.
         12    1    3    3    0    0  0.11310374824E+02 -0.17974758295E+02 -0.27899897978E+02  0.35063097718E+02  0.00000000000E+00 0. -1.
</event>
<event>
 7    1  0.4195243E-015  0.9000773E+02  0.7816164E-02  0.1186339E+00
        -11   -1    0    0    0    0  0.00000000000E+00  0.00000000000E+00  0.45593999997E+02  0.45594000000E+02  0.51100000000E-03 0.  1.
         11   -1    0    0    0    0 -0.00000000000E+00 -0.00000000000E+00 -0.45593999997E+02  0.45594000000E+02  0.51100000000E-03 0. -1.
    9900012    2    1    2    0    0  0.41577893257E+00 -0.67166297170E+00 -0.87694619187E+00  0.90007729738E+02  0.89999990970E+02 0.  0.
        -12    1    1    2    0    0 -0.41577893257E+00  0.67166297170E+00  0.87694619187E+00  0.11802702622E+01  0.00000000000E+00 0.  1.
         11    1    3    3    0    0 -0.43362470013E+01  0.67789575646E+00 -0.98907832435E+01  0.10820821325E+02  0.51100000000E-03 0. -1.
        -11    1    3    3    0    0  0.41683586642E+02 -0.17788313923E+01  0.39684982504E+01  0.41909839121E+02  0.51100000000E-03 0.  1.
         12    1    3    3    0    0 -0.36931560709E+02  0.42927266416E+00  0.50453388013E+01  0.37277069292E+02  0.00000000000E+00 0. -1.
</event>
<event>
 7    1  0.4195243E-015  0.9000769E+02  0.7816164E-02  0.1186339E+00
        -11   -1    0    0    0    0  0.00000000000E+00  0.00000000000E+00  0.45593999997E+02  0.45594000000E+02  0.51100000000E-03 0.  1.
         11   -1    0    0    0    0 -0.00000000000E+00 -0.00000000000E+00 -0.45593999997E+02  0.45594000000E+02  0.51100000000E-03 0. -1.
    9900012    2    1    2    0    0 -0.94926758434E+00  0.17881434644E+00 -0.67827633599E+00  0.90007685506E+02  0.89999946154E+02 0.  0.
        -12    1    1    2    0    0  0.94926758434E+00 -0.17881434644E+00  0.67827633599E+00  0.11803144942E+01  0.00000000000E+00 0.  1.
         11    1    3    3    0    0  0.70632926122E+01  0.12045721565E+01  0.71671323165E+01  0.10134539087E+02  0.51100000000E-03 0. -1.
        -11    1    3    3    0    0 -0.11888703592E+02  0.37831961758E+02 -0.95344049637E+01  0.40786069703E+02  0.51100000000E-03 0.  1.
         12    1    3    3    0    0  0.38761433954E+01 -0.38857719568E+02  0.16889963113E+01  0.39087076716E+02  0.00000000000E+00 0. -1.
</event>
<event>
 7    1  0.4195243E-015  0.9000782E+02  0.7816164E-02  0.1186339E+00
        -11   -1    0    0    0    0  0.00000000000E+00  0.00000000000E+00  0.45593999997E+02  0.45594000000E+02  0.51100000000E-03 0.  1.
         11   -1    0    0    0    0 -0.00000000000E+00 -0.00000000000E+00 -0.45593999997E+02  0.45594000000E+02  0.51100000000E-03 0. -1.
    9900012    2    1    2    0    0  0.50758635988E+00  0.18651106460E+00 -0.10489929523E+01  0.90007823528E+02  0.90000085999E+02 0.  0.
        -12    1    1    2    0    0 -0.50758635988E+00 -0.18651106460E+00  0.10489929523E+01  0.11801764715E+01  0.00000000000E+00 0.  1.
         11    1    3    3    0    0 -0.13358580639E+02  0.74038576054E+01 -0.63623970444E+01  0.16545358278E+02  0.51100000000E-03 0. -1.
        -11    1    3    3    0    0  0.32537833827E+02  0.19305112304E+02  0.13220070843E+02  0.40077029138E+02  0.51100000000E-03 0.  1.
         12    1    3    3    0    0 -0.18671666828E+02 -0.26522458845E+02 -0.79066667510E+01  0.33385436112E+02  0.00000000000E+00 0. -1.
</event>
<event>
 7    1  0.4195243E-015  0.9000776E+02  0.7816164E-02  0.1186339E+00
        -11   -1    0    0    0    0  0.00000000000E+00  0.00000000000E+00  0.45593999997E+02  0.45594000000E+02  0.51100000000E-03 0. -1.
         11   -1    0    0    0    0 -0.00000000000E+00 -0.00000000000E+00 -0.45593999997E+02  0.45594000000E+02  0.51100000000E-03 0.  1.
    9900012    2    1    2    0    0 -0.72846070131E+00 -0.62785055424E+00  0.68418119166E+00  0.90007764763E+02  0.90000026458E+02 0.  0.
        -12    1    1    2    0    0  0.72846070131E+00  0.62785055424E+00 -0.68418119166E+00  0.11802352371E+01  0.00000000000E+00 0.  1.
         11    1    3    3    0    0 -0.32219576538E+01 -0.87919322202E+01  0.38745924907E+01  0.10133683956E+02  0.51100000000E-03 0. -1.
        -11    1    3    3    0    0  0.14714997401E+01 -0.35512221180E+02  0.33448099898E+01  0.35699732754E+02  0.51100000000E-03 0.  1.
         12    1    3    3    0    0  0.10219972124E+01  0.43676302846E+02 -0.65352212888E+01  0.44174348053E+02  0.00000000000E+00 0. -1.
</event>
<event>
 7    1  0.4195243E-015  0.9000786E+02  0.7816164E-02  0.1186339E+00
        -11   -1    0    0    0    0  0.00000000000E+00  0.00000000000E+00  0.45593999997E+02  0.45594000000E+02  0.51100000000E-03 0.  1.
         11   -1    0    0    0    0 -0.00000000000E+00 -0.00000000000E+00 -0.45593999997E+02  0.45594000000E+02  0.51100000000E-03 0. -1.
    9900012    2    1    2    0    0 -0.26484356312E+00  0.46941904675E+00 -0.10498711465E+01  0.90007861966E+02  0.90000124944E+02 0.  0.
        -12    1    1    2    0    0  0.26484356312E+00 -0.46941904675E+00  0.10498711465E+01  0.11801380337E+01  0.00000000000E+00 0.  1.
         11    1    3    3    0    0  0.56161538091E+01 -0.38053697919E+02  0.87462307367E+01  0.39447707935E+02  0.51100000000E-03 0. -1.
        -11    1    3    3    0    0 -0.38471004875E+01  0.19675979826E+01  0.85714864446E+01  0.95990626684E+01  0.51100000000E-03 0.  1.
        -12    1    3    3    0    0 -0.20338968847E+01  0.36555518983E+02 -0.18367588328E+02  0.40961091363E+02  0.00000000000E+00 0.  1.
</event>
<event>
 7    1  0.4195243E-015  0.9000768E+02  0.7816164E-02  0.1186339E+00
        -11   -1    0    0    0    0  0.00000000000E+00  0.00000000000E+00  0.45593999997E+02  0.45594000000E+02  0.51100000000E-03 0. -1.
         11   -1    0    0    0    0 -0.00000000000E+00 -0.00000000000E+00 -0.45593999997E+02  0.45594000000E+02  0.51100000000E-03 0.  1.
    9900012    2    1    2    0    0  0.44757132224E+00  0.10716668157E+01  0.21064841231E+00  0.90007676906E+02  0.89999937441E+02 0.  0.
        -12    1    1    2    0    0 -0.44757132224E+00 -0.10716668157E+01 -0.21064841231E+00  0.11803230939E+01  0.00000000000E+00 0.  1.
         11    1    3    3    0    0 -0.10819217959E+02 -0.44685026542E+01 -0.90903176907E+01  0.14820825523E+02  0.51100000000E-03 0. -1.
        -11    1    3    3    0    0  0.21425263972E+02 -0.28877764596E+02 -0.54859764229E+01  0.36373935200E+02  0.51100000000E-03 0.  1.
         12    1    3    3    0    0 -0.10158474691E+02  0.34417934066E+02  0.14786942526E+02  0.38812916184E+02  0.00000000000E+00 0. -1.
</event>
<event>
 7    1  0.4195243E-015  0.9000805E+02  0.7816164E-02  0.1186338E+00
        -11   -1    0    0    0    0  0.00000000000E+00  0.00000000000E+00  0.45593999997E+02  0.45594000000E+02  0.51100000000E-03 0.  1.
         11   -1    0    0    0    0 -0.00000000000E+00 -0.00000000000E+00 -0.45593999997E+02  0.45594000000E+02  0.51100000000E-03 0. -1.
    9900012    2    1    2    0    0  0.60222111528E+00  0.84676674739E+00 -0.55910748768E+00  0.90008048569E+02  0.90000314010E+02 0.  0.
        -12    1    1    2    0    0 -0.60222111528E+00 -0.84676674739E+00  0.55910748768E+00  0.11799514308E+01  0.00000000000E+00 0.  1.
         11    1    3    3    0    0 -0.44397815643E+01  0.57770255919E+00  0.88797238543E+01  0.99445913227E+01  0.51100000000E-03 0. -1.
        -11    1    3    3    0    0  0.19354657936E+01  0.40710771551E+01  0.35032801215E+02  0.35321620267E+02  0.51100000000E-03 0.  1.
         12    1    3    3    0    0  0.31065368860E+01 -0.38020129669E+01 -0.44471632557E+02  0.44741836980E+02  0.00000000000E+00 0. -1.
</event>
<event>
 7    1  0.4195243E-015  0.9000775E+02  0.7816164E-02  0.1186339E+00
        -11   -1    0    0    0    0  0.00000000000E+00  0.00000000000E+00  0.45593999997E+02  0.45594000000E+02  0.51100000000E-03 0. -1.
         11   -1    0    0    0    0 -0.00000000000E+00 -0.00000000000E+00 -0.45593999997E+02  0.45594000000E+02  0.51100000000E-03 0.  1.
    9900012    2    1    2    0    0 -0.54742591852E+00  0.95373370432E+00  0.42862168887E+00  0.90007745931E+02  0.90000007377E+02 0.  0.
        -12    1    1    2    0    0  0.54742591852E+00 -0.95373370432E+00 -0.42862168887E+00  0.11802540689E+01  0.00000000000E+00 0.  1.
         11    1    3    3    0    0 -0.73419276195E+01  0.98760289117E+01 -0.23999452670E+01  0.12537925896E+02  0.51100000000E-03 0. -1.
        -11    1    3    3    0    0 -0.58656905170E+01  0.31075047166E+02 -0.10706972377E+02  0.33387185257E+02  0.51100000000E-03 0.  1.
         12    1    3    3    0    0  0.12660192218E+02 -0.39997342374E+02  0.13535539333E+02  0.44082634778E+02  0.00000000000E+00 0. -1.
</event>
<event>
 7    1  0.4195243E-015  0.9000767E+02  0.7816164E-02  0.1186339E+00
        -11   -1    0    0    0    0  0.00000000000E+00  0.00000000000E+00  0.45593999997E+02  0.45594000000E+02  0.51100000000E-03 0.  1.
         11   -1    0    0    0    0 -0.00000000000E+00 -0.00000000000E+00 -0.45593999997E+02  0.45594000000E+02  0.51100000000E-03 0. -1.
    9900012    2    1    2    0    0 -0.88407543471E-01 -0.71941043924E+00 -0.93155865206E+00  0.90007674284E+02  0.89999934784E+02 0.  0.
        -12    1    1    2    0    0  0.88407543471E-01  0.71941043924E+00  0.93155865206E+00  0.11803257161E+01  0.00000000000E+00 0.  1.
         11    1    3    3    0    0 -0.25487933700E+02  0.23951710572E+01  0.32575104269E+02  0.41430773914E+02  0.51100000000E-03 0. -1.
        -11    1    3    3    0    0 -0.31962308968E+01  0.29050558184E+01 -0.10600922065E+02  0.11447042855E+02  0.51100000000E-03 0.  1.
        -12    1    3    3    0    0  0.28595757053E+02 -0.60196373147E+01 -0.22905740857E+02  0.37129857515E+02  0.00000000000E+00 0.  1.
</event>
<event>
 7    1  0.4195243E-015  0.9000776E+02  0.7816164E-02  0.1186339E+00
        -11   -1    0    0    0    0  0.00000000000E+00  0.00000000000E+00  0.45593999997E+02  0.45594000000E+02  0.51100000000E-03 0. -1.
         11   -1    0    0    0    0 -0.00000000000E+00 -0.00000000000E+00 -0.45593999997E+02  0.45594000000E+02  0.51100000000E-03 0.  1.
    9900012    2    1    2    0    0  0.10398729256E+01 -0.36660434056E+00  0.42097610860E+00  0.90007764715E+02  0.90000026409E+02 0.  0.
        -12    1    1    2    0    0 -0.10398729256E+01  0.36660434056E+00 -0.42097610860E+00  0.11802352850E+01  0.00000000000E+00 0.  1.
         11    1    3    3    0    0 -0.37876351374E+02 -0.38283943028E+01 -0.17004082789E+02  0.41694285317E+02  0.51100000000E-03 0. -1.
        -11    1    3    3    0    0  0.29186813973E+01  0.82005605674E+01  0.42727711456E+01  0.96966214860E+01  0.51100000000E-03 0.  1.
        -12    1    3    3    0    0  0.35997542903E+02 -0.47387706051E+01  0.13152287752E+02  0.38616857912E+02  0.00000000000E+00 0.  1.
</event>
<event>
 7    1  0.4195243E-015  0.9000776E+02  0.7816164E-02  0.1186339E+00
        -11   -1    0    0    0    0  0.00000000000E+00  0.00000000000E+00  0.45593999997E+02  0.45594000000E+02  0.51100000000E-03 0.  1.
         11   -1    0    0    0    0 -0.00000000000E+00 -0.00000000000E+00 -0.45593999997E+02  0.45594000000E+02  0.51100000000E-03 0. -1.
    9900012    2    1    2    0    0  0.51520592772E+00  0.10611672378E+01  0.38108803842E-01  0.90007760475E+02  0.90000022114E+02 0.  0.
        -12    1    1    2    0    0 -0.51520592772E+00 -0.10611672378E+01 -0.38108803842E-01  0.11802395246E+01  0.00000000000E+00 0.  1.
         11    1    3    3    0    0  0.24712553413E+02 -0.21898089914E+02 -0.20820061392E+02  0.39034748554E+02  0.51100000000E-03 0. -1.
        -11    1    3    3    0    0  0.60115233969E+01 -0.65897158305E+00 -0.19532051610E+01  0.63551292482E+01  0.51100000000E-03 0.  1.
        -12    1    3    3    0    0 -0.30208870882E+02  0.23618228735E+02  0.22811375357E+02  0.44617882673E+02  0.00000000000E+00 0.  1.
</event>
<event>
 7    1  0.4195243E-015  0.9000774E+02  0.7816164E-02  0.1186339E+00
        -11   -1    0    0    0    0  0.00000000000E+00  0.00000000000E+00  0.45593999997E+02  0.45594000000E+02  0.51100000000E-03 0. -1.
         11   -1    0    0    0    0 -0.00000000000E+00 -0.00000000000E+00 -0.45593999997E+02  0.45594000000E+02  0.51100000000E-03 0.  1.
    9900012    2    1    2    0    0 -0.34414337841E+00  0.10701547528E+01  0.35963557461E+00  0.90007744262E+02  0.90000005687E+02 0.  0.
        -12    1    1    2    0    0  0.34414337841E+00 -0.10701547528E+01 -0.35963557461E+00  0.11802557377E+01  0.00000000000E+00 0.  1.
         11    1    3    3    0    0  0.44786900395E+01 -0.91657205862E+01 -0.10829563757E+01  0.10258747151E+02  0.51100000000E-03 0. -1.
        -11    1    3    3    0    0 -0.22775517868E+02 -0.27083794222E+02  0.11357966259E+02  0.37165299964E+02  0.51100000000E-03 0.  1.
         12    1    3    3    0    0  0.17952684450E+02  0.37319669561E+02 -0.99153743082E+01  0.42583697148E+02  0.00000000000E+00 0. -1.
</event>
<event>
 7    1  0.4195243E-015  0.9000774E+02  0.7816164E-02  0.1186339E+00
        -11   -1    0    0    0    0  0.00000000000E+00  0.00000000000E+00  0.45593999997E+02  0.45594000000E+02  0.51100000000E-03 0. -1.
         11   -1    0    0    0    0 -0.00000000000E+00 -0.00000000000E+00 -0.45593999997E+02  0.45594000000E+02  0.51100000000E-03 0.  1.
    9900012    2    1    2    0    0  0.94204554088E+00 -0.11922905250E+00  0.70097049255E+00  0.90007735199E+02  0.89999996504E+02 0.  0.
        -12    1    1    2    0    0 -0.94204554088E+00  0.11922905250E+00 -0.70097049255E+00  0.11802648006E+01  0.00000000000E+00 0.  1.
         11    1    3    3    0    0 -0.53894941971E+00  0.27882377011E+02 -0.27350299145E+02  0.39060930324E+02  0.51100000000E-03 0. -1.
        -11    1    3    3    0    0 -0.69898312774E+01 -0.48328456937E+01 -0.48808685215E+01  0.97998477831E+01  0.51100000000E-03 0.  1.
        -12    1    3    3    0    0  0.84708262380E+01 -0.23168760370E+02  0.32932138159E+02  0.41146957092E+02  0.00000000000E+00 0.  1.
</event>
<event>
 7    1  0.4195243E-015  0.9000781E+02  0.7816164E-02  0.1186339E+00
        -11   -1    0    0    0    0  0.00000000000E+00  0.00000000000E+00  0.45593999997E+02  0.45594000000E+02  0.51100000000E-03 0. -1.
         11   -1    0    0    0    0 -0.00000000000E+00 -0.00000000000E+00 -0.45593999997E+02  0.45594000000E+02  0.51100000000E-03 0.  1.
    9900012    2    1    2    0    0  0.11539433390E+01 -0.24690309716E+00 -0.17231499649E-01  0.90007812179E+02  0.90000074499E+02 0.  0.
        -12    1    1    2    0    0 -0.11539433390E+01  0.24690309716E+00  0.17231499649E-01  0.11801878213E+01  0.00000000000E+00 0.  1.
         11    1    3    3    0    0 -0.40050547346E+01  0.56185094887E+01  0.65813070852E+01  0.95352879093E+01  0.51100000000E-03 0. -1.
        -11    1    3    3    0    0 -0.77150145803E+01 -0.36348485012E+02  0.15942998665E+02  0.40434057666E+02  0.51100000000E-03 0.  1.
         12    1    3    3    0    0  0.12874012654E+02  0.30483072426E+02 -0.22541537250E+02  0.40038466603E+02  0.00000000000E+00 0. -1.
</event>
<event>
 7    1  0.4195243E-015  0.9000763E+02  0.7816164E-02  0.1186339E+00
        -11   -1    0    0    0    0  0.00000000000E+00  0.00000000000E+00  0.45593999997E+02  0.45594000000E+02  0.51100000000E-03 0.  1.
         11   -1    0    0    0    0 -0.00000000000E+00 -0.00000000000E+00 -0.45593999997E+02  0.45594000000E+02  0.51100000000E-03 0. -1.
    9900012    2    1    2    0    0  0.95378979127E+00 -0.55540612848E+00  0.41842578497E+00  0.90007630960E+02  0.89999890888E+02 0.  0.
        -12    1    1    2    0    0 -0.95378979127E+00  0.55540612848E+00 -0.41842578497E+00  0.11803690402E+01  0.00000000000E+00 0.  1.
         11    1    3    3    0    0  0.34596324389E+02  0.31001605829E+01 -0.12824352908E+02  0.37026756334E+02  0.51100000000E-03 0. -1.
        -11    1    3    3    0    0  0.32106722047E+01  0.82935520071E+01 -0.49520400887E+01  0.10179102230E+02  0.51100000000E-03 0.  1.
        -12    1    3    3    0    0 -0.36853206802E+02 -0.11949118718E+02  0.18194818782E+02  0.42801772396E+02  0.00000000000E+00 0.  1.
</event>
<event>
 7    1  0.4195243E-015  0.9000767E+02  0.7816164E-02  0.1186339E+00
        -11   -1    0    0    0    0  0.00000000000E+00  0.00000000000E+00  0.45593999997E+02  0.45594000000E+02  0.51100000000E-03 0.  1.
         11   -1    0    0    0    0 -0.00000000000E+00 -0.00000000000E+00 -0.45593999997E+02  0.45594000000E+02  0.51100000000E-03 0. -1.
    9900012    2    1    2    0    0 -0.60942606507E+00 -0.70305610948E+00 -0.72628100939E+00  0.90007672873E+02  0.89999933355E+02 0.  0.
        -12    1    1    2    0    0  0.60942606507E+00  0.70305610948E+00  0.72628100939E+00  0.11803271269E+01  0.00000000000E+00 0.  1.
         11    1    3    3    0    0 -0.39716580465E+02  0.48621770256E+01 -0.48528822768E+01  0.40306302186E+02  0.51100000000E-03 0. -1.
        -11    1    3    3    0    0  0.54462738830E+01 -0.16955097735E+01 -0.11157516452E+02  0.12531034524E+02  0.51100000000E-03 0.  1.
        -12    1    3    3    0    0  0.33660880517E+02 -0.38697233615E+01  0.15284117719E+02  0.37170336164E+02  0.00000000000E+00 0.  1.
</event>
<event>
 7    1  0.4195243E-015  0.9000776E+02  0.7816164E-02  0.1186339E+00
        -11   -1    0    0    0    0  0.00000000000E+00  0.00000000000E+00  0.45593999997E+02  0.45594000000E+02  0.51100000000E-03 0.  1.
         11   -1    0    0    0    0 -0.00000000000E+00 -0.00000000000E+00 -0.45593999997E+02  0.45594000000E+02  0.51100000000E-03 0. -1.
    9900012    2    1    2    0    0 -0.31764039210E+00  0.61607874753E-01 -0.11350200656E+01  0.90007762101E+02  0.90000023761E+02 0.  0.
        -12    1    1    2    0    0  0.31764039210E+00 -0.61607874753E-01  0.11350200656E+01  0.11802378990E+01  0.00000000000E+00 0.  1.
         11    1    3    3    0    0 -0.39122983051E+02 -0.57517341995E+01 -0.70089922337E+01  0.40159883236E+02  0.51100000000E-03 0. -1.
        -11    1    3    3    0    0 -0.16232444960E+00 -0.77033815724E+01  0.36942836784E+01  0.85449499141E+01  0.51100000000E-03 0.  1.
        -12    1    3    3    0    0  0.38967667109E+02  0.13516723647E+02  0.21796884897E+01  0.41302928951E+02  0.00000000000E+00 0.  1.
</event>
<event>
 7    1  0.4195243E-015  0.9000772E+02  0.7816164E-02  0.1186339E+00
        -11   -1    0    0    0    0  0.00000000000E+00  0.00000000000E+00  0.45593999997E+02  0.45594000000E+02  0.51100000000E-03 0.  1.
         11   -1    0    0    0    0 -0.00000000000E+00 -0.00000000000E+00 -0.45593999997E+02  0.45594000000E+02  0.51100000000E-03 0. -1.
    9900012    2    1    2    0    0  0.71165382845E+00  0.93571568341E+00 -0.10513834328E+00  0.90007716524E+02  0.89999977582E+02 0.  0.
        -12    1    1    2    0    0 -0.71165382845E+00 -0.93571568341E+00  0.10513834328E+00  0.11802834757E+01  0.00000000000E+00 0.  1.
         11    1    3    3    0    0 -0.53898611822E+01 -0.54146369504E+00  0.92565597305E+01  0.10725096028E+02  0.51100000000E-03 0. -1.
        -11    1    3    3    0    0 -0.26269406035E+02  0.45599210410E+01  0.21652198160E+02  0.34346648435E+02  0.51100000000E-03 0.  1.
         12    1    3    3    0    0  0.32370921045E+02 -0.30827416625E+01 -0.31013896234E+02  0.44935972061E+02  0.00000000000E+00 0. -1.
</event>
<event>
 7    1  0.4195243E-015  0.9000700E+02  0.7816164E-02  0.1186341E+00
        -11   -1    0    0    0    0  0.00000000000E+00  0.00000000000E+00  0.45593999997E+02  0.45594000000E+02  0.51100000000E-03 0.  1.
         11   -1    0    0    0    0 -0.00000000000E+00 -0.00000000000E+00 -0.45593999997E+02  0.45594000000E+02  0.51100000000E-03 0. -1.
    9900012    2    1    2    0    0 -0.79814761772E+00  0.80464078777E+00  0.33208269802E+00  0.90006998165E+02  0.89999249737E+02 0.  0.
        -12    1    1    2    0    0  0.79814761772E+00 -0.80464078777E+00 -0.33208269802E+00  0.11810018355E+01  0.00000000000E+00 0.  1.
         11    1    3    3    0    0 -0.96685063987E+01  0.74866189150E+00 -0.22816080804E+01  0.99622410281E+01  0.51100000000E-03 0. -1.
        -11    1    3    3    0    0 -0.18023909167E+02  0.16253425483E+02  0.29857217366E+02  0.38477117495E+02  0.51100000000E-03 0.  1.
         12    1    3    3    0    0  0.26894267948E+02 -0.16197446587E+02 -0.27243526588E+02  0.41567639641E+02  0.00000000000E+00 0. -1.
</event>
<event>
 7    1  0.4195243E-015  0.9000765E+02  0.7816164E-02  0.1186339E+00
        -11   -1    0    0    0    0  0.00000000000E+00  0.00000000000E+00  0.45593999997E+02  0.45594000000E+02  0.51100000000E-03 0.  1.
         11   -1    0    0    0    0 -0.00000000000E+00 -0.00000000000E+00 -0.45593999997E+02  0.45594000000E+02  0.51100000000E-03 0. -1.
    9900012    2    1    2    0    0  0.11467593632E+01 -0.22546873261E+00  0.16530571611E+00  0.90007652947E+02  0.89999913166E+02 0.  0.
        -12    1    1    2    0    0 -0.11467593632E+01  0.22546873261E+00 -0.16530571611E+00  0.11803470533E+01  0.00000000000E+00 0.  1.
         11    1    3    3    0    0  0.40565290490E+02 -0.63669898916E+01 -0.11392513726E+02  0.42613034649E+02  0.51100000000E-03 0. -1.
        -11    1    3    3    0    0 -0.55598780325E+01 -0.73422685930E+01  0.16747042785E+00  0.92113624635E+01  0.51100000000E-03 0.  1.
        -12    1    3    3    0    0 -0.33858653094E+02  0.13483789752E+02  0.11390349014E+02  0.38183255834E+02  0.00000000000E+00 0.  1.
</event>
<event>
 7    1  0.4195243E-015  0.9000773E+02  0.7816164E-02  0.1186339E+00
        -11   -1    0    0    0    0  0.00000000000E+00  0.00000000000E+00  0.45593999997E+02  0.45594000000E+02  0.51100000000E-03 0.  1.
         11   -1    0    0    0    0 -0.00000000000E+00 -0.00000000000E+00 -0.45593999997E+02  0.45594000000E+02  0.51100000000E-03 0. -1.
    9900012    2    1    2    0    0  0.94845393784E+00 -0.28537570889E+00  0.64189806991E+00  0.90007729989E+02  0.89999991225E+02 0.  0.
        -12    1    1    2    0    0 -0.94845393784E+00  0.28537570889E+00 -0.64189806991E+00  0.11802700113E+01  0.00000000000E+00 0.  1.
         11    1    3    3    0    0  0.43492922114E+01 -0.11495166625E+01  0.75230206784E+01  0.87654761243E+01  0.51100000000E-03 0. -1.
        -11    1    3    3    0    0 -0.95791111516E+01  0.39468883469E+02  0.35763137811E+01  0.40771830389E+02  0.51100000000E-03 0.  1.
         12    1    3    3    0    0  0.61782728781E+01 -0.38604742515E+02 -0.10457436390E+02  0.40470423475E+02  0.00000000000E+00 0. -1.
</event>
<event>
 7    1  0.4195243E-015  0.9000753E+02  0.7816164E-02  0.1186339E+00
        -11   -1    0    0    0    0  0.00000000000E+00  0.00000000000E+00  0.45593999997E+02  0.45594000000E+02  0.51100000000E-03 0. -1.
         11   -1    0    0    0    0 -0.00000000000E+00 -0.00000000000E+00 -0.45593999997E+02  0.45594000000E+02  0.51100000000E-03 0.  1.
    9900012    2    1    2    0    0  0.49911555505E+00 -0.76421502307E+00 -0.74858455566E+00  0.90007525614E+02  0.89999784152E+02 0.  0.
        -12    1    1    2    0    0 -0.49911555505E+00  0.76421502307E+00  0.74858455566E+00  0.11804743859E+01  0.00000000000E+00 0.  1.
         11    1    3    3    0    0  0.16752763349E+01  0.22609273186E+00 -0.66914547000E+01  0.69016834892E+01  0.51100000000E-03 0. -1.
        -11    1    3    3    0    0  0.13760482407E+02 -0.39304327883E+02  0.69089991789E+00  0.41649230598E+02  0.51100000000E-03 0.  1.
         12    1    3    3    0    0 -0.14936643187E+02  0.38314020128E+02  0.52519702264E+01  0.41456611527E+02  0.00000000000E+00 0. -1.
</event>
<event>
 7    1  0.4195243E-015  0.9000783E+02  0.7816164E-02  0.1186339E+00
        -11   -1    0    0    0    0  0.00000000000E+00  0.00000000000E+00  0.45593999997E+02  0.45594000000E+02  0.51100000000E-03 0.  1.
         11   -1    0    0    0    0 -0.00000000000E+00 -0.00000000000E+00 -0.45593999997E+02  0.45594000000E+02  0.51100000000E-03 0. -1.
    9900012    2    1    2    0    0 -0.14382430984E+00  0.86804176426E+00  0.78652811057E+00  0.90007826960E+02  0.90000089475E+02 0.  0.
        -12    1    1    2    0    0  0.14382430984E+00 -0.86804176426E+00 -0.78652811057E+00  0.11801730404E+01  0.00000000000E+00 0.  1.
         11    1    3    3    0    0  0.28022413034E+02 -0.27484326397E+02 -0.16998102774E+02  0.42773582127E+02  0.51100000000E-03 0. -1.
        -11    1    3    3    0    0 -0.56845139976E+01  0.89052072823E+01 -0.29765752549E+01  0.10976174955E+02  0.51100000000E-03 0.  1.
        -12    1    3    3    0    0 -0.22481723346E+02  0.19447160879E+02  0.20761206140E+02  0.36258069878E+02  0.00000000000E+00 0.  1.
</event>
<event>
 7    1  0.4195243E-015  0.9000782E+02  0.7816164E-02  0.1186339E+00
        -11   -1    0    0    0    0  0.00000000000E+00  0.00000000000E+00  0.45593999997E+02  0.45594000000E+02  0.51100000000E-03 0.  1.
         11   -1    0    0    0    0 -0.00000000000E+00 -0.00000000000E+00 -0.45593999997E+02  0.45594000000E+02  0.51100000000E-03 0. -1.
    9900012    2    1    2    0    0  0.15485950891E+00  0.39354811269E+00 -0.11018033312E+01  0.90007816893E+02  0.90000079276E+02 0.  0.
        -12    1    1    2    0    0 -0.15485950891E+00 -0.39354811269E+00  0.11018033312E+01  0.11801831067E+01  0.00000000000E+00 0.  1.
         11    1    3    3    0    0  0.24852748537E+01 -0.31946698330E+01  0.59438309580E+01  0.71910801107E+01  0.51100000000E-03 0. -1.
        -11    1    3    3    0    0 -0.33913422090E+02 -0.10683717229E-01  0.21449263177E+02  0.40127187829E+02  0.51100000000E-03 0.  1.
         12    1    3    3    0    0  0.31583006745E+02  0.35989016629E+01 -0.28494897466E+02  0.42689548953E+02  0.00000000000E+00 0. -1.
</event>
<event>
 7    1  0.4195243E-015  0.9000761E+02  0.7816164E-02  0.1186339E+00
        -11   -1    0    0    0    0  0.00000000000E+00  0.00000000000E+00  0.45593999997E+02  0.45594000000E+02  0.51100000000E-03 0. -1.
         11   -1    0    0    0    0 -0.00000000000E+00 -0.00000000000E+00 -0.45593999997E+02  0.45594000000E+02  0.51100000000E-03 0.  1.
    9900012    2    1    2    0    0 -0.88199968749E+00  0.55365991720E-02  0.78445080710E+00  0.90007611432E+02  0.89999871103E+02 0.  0.
        -12    1    1    2    0    0  0.88199968749E+00 -0.55365991720E-02 -0.78445080710E+00  0.11803885680E+01  0.00000000000E+00 0.  1.
         11    1    3    3    0    0  0.16847580951E+02 -0.23244026994E+02  0.27324653081E+02  0.39632845483E+02  0.51100000000E-03 0. -1.
        -11    1    3    3    0    0  0.87576826843E+01  0.44122836224E+01 -0.95971929718E+01  0.13721201331E+02  0.51100000000E-03 0.  1.
        -12    1    3    3    0    0 -0.26487263323E+02  0.18837279971E+02 -0.16943009302E+02  0.36653564618E+02  0.00000000000E+00 0.  1.
</event>
<event>
 7    1  0.4195243E-015  0.9000776E+02  0.7816164E-02  0.1186339E+00
        -11   -1    0    0    0    0  0.00000000000E+00  0.00000000000E+00  0.45593999997E+02  0.45594000000E+02  0.51100000000E-03 0.  1.
         11   -1    0    0    0    0 -0.00000000000E+00 -0.00000000000E+00 -0.45593999997E+02  0.45594000000E+02  0.51100000000E-03 0. -1.
    9900012    2    1    2    0    0 -0.74458351784E+00 -0.91472190039E+00 -0.42897681223E-01  0.90007762320E+02  0.90000023983E+02 0.  0.
        -12    1    1    2    0    0  0.74458351784E+00  0.91472190039E+00  0.42897681223E-01  0.11802376799E+01  0.00000000000E+00 0.  1.
         11    1    3    3    0    0  0.67427943670E+00 -0.92682052222E+01  0.13415813073E+01  0.93890426277E+01  0.51100000000E-03 0. -1.
        -11    1    3    3    0    0  0.36816238795E+02 -0.44764698428E+01  0.10551686595E+02  0.38559205277E+02  0.51100000000E-03 0.  1.
         12    1    3    3    0    0 -0.38235101750E+02  0.12829953165E+02 -0.11936165584E+02  0.42059514416E+02  0.00000000000E+00 0. -1.
</event>
<event>
 7    1  0.4195243E-015  0.9000767E+02  0.7816164E-02  0.1186339E+00
        -11   -1    0    0    0    0  0.00000000000E+00  0.00000000000E+00  0.45593999997E+02  0.45594000000E+02  0.51100000000E-03 0. -1.
         11   -1    0    0    0    0 -0.00000000000E+00 -0.00000000000E+00 -0.45593999997E+02  0.45594000000E+02  0.51100000000E-03 0.  1.
    9900012    2    1    2    0    0 -0.80780693209E+00  0.78045296512E+00  0.36264423321E+00  0.90007673897E+02  0.89999934392E+02 0.  0.
        -12    1    1    2    0    0  0.80780693209E+00 -0.78045296512E+00 -0.36264423321E+00  0.11803261033E+01  0.00000000000E+00 0.  1.
         11    1    3    3    0    0 -0.29225302296E+01 -0.19548057650E+02 -0.12246273355E+02  0.23251644075E+02  0.51100000000E-03 0.  1.
        -11    1    3    3    0    0 -0.12727883040E+02 -0.11339271340E+02  0.24473282940E+02  0.29824816166E+02  0.51100000000E-03 0. -1.
        -12    1    3    3    0    0  0.14842606338E+02  0.31667781956E+02 -0.11864365352E+02  0.36931213656E+02  0.00000000000E+00 0.  1.
</event>
<event>
 7    1  0.4195243E-015  0.9000776E+02  0.7816164E-02  0.1186339E+00
        -11   -1    0    0    0    0  0.00000000000E+00  0.00000000000E+00  0.45593999997E+02  0.45594000000E+02  0.51100000000E-03 0.  1.
         11   -1    0    0    0    0 -0.00000000000E+00 -0.00000000000E+00 -0.45593999997E+02  0.45594000000E+02  0.51100000000E-03 0. -1.
    9900012    2    1    2    0    0 -0.20196274369E+00  0.94780563460E+00 -0.67368056160E+00  0.90007758512E+02  0.90000020124E+02 0.  0.
        -12    1    1    2    0    0  0.20196274369E+00 -0.94780563460E+00  0.67368056160E+00  0.11802414880E+01  0.00000000000E+00 0.  1.
         11    1    3    3    0    0 -0.32178194949E+02  0.27954689493E+01  0.15634613969E+02  0.35884426024E+02  0.51100000000E-03 0. -1.
        -11    1    3    3    0    0 -0.71515034987E+01 -0.12047740930E+01  0.57017678471E+01  0.92252717982E+01  0.51100000000E-03 0.  1.
        -12    1    3    3    0    0  0.39127735704E+02 -0.64288922170E+00 -0.22010062378E+02  0.44898060690E+02  0.00000000000E+00 0.  1.
</event>
<event>
 7    1  0.4195243E-015  0.9000776E+02  0.7816164E-02  0.1186339E+00
        -11   -1    0    0    0    0  0.00000000000E+00  0.00000000000E+00  0.45593999997E+02  0.45594000000E+02  0.51100000000E-03 0.  1.
         11   -1    0    0    0    0 -0.00000000000E+00 -0.00000000000E+00 -0.45593999997E+02  0.45594000000E+02  0.51100000000E-03 0. -1.
    9900012    2    1    2    0    0 -0.22489600276E-01 -0.80043764560E+00 -0.86703966139E+00  0.90007761049E+02  0.90000022695E+02 0.  0.
        -12    1    1    2    0    0  0.22489600276E-01  0.80043764560E+00  0.86703966139E+00  0.11802389508E+01  0.00000000000E+00 0.  1.
         11    1    3    3    0    0 -0.10667471025E+02  0.14055337210E+02  0.11220698687E+02  0.20910560046E+02  0.51100000000E-03 0. -1.
        -11    1    3    3    0    0 -0.27589472727E+02 -0.97205093817E+01 -0.25817824245E+01  0.29365505422E+02  0.51100000000E-03 0.  1.
         12    1    3    3    0    0  0.38234454151E+02 -0.51352654738E+01 -0.95059559241E+01  0.39731695581E+02  0.00000000000E+00 0. -1.
</event>
<event>
 7    1  0.4195243E-015  0.9000777E+02  0.7816164E-02  0.1186339E+00
        -11   -1    0    0    0    0  0.00000000000E+00  0.00000000000E+00  0.45593999997E+02  0.45594000000E+02  0.51100000000E-03 0.  1.
         11   -1    0    0    0    0 -0.00000000000E+00 -0.00000000000E+00 -0.45593999997E+02  0.45594000000E+02  0.51100000000E-03 0. -1.
    9900012    2    1    2    0    0  0.35782470689E-01 -0.11511958445E+01  0.25772328679E+00  0.90007765468E+02  0.90000027172E+02 0.  0.
        -12    1    1    2    0    0 -0.35782470689E-01  0.11511958445E+01 -0.25772328679E+00  0.11802345319E+01  0.00000000000E+00 0.  1.
         11    1    3    3    0    0 -0.13834366254E+02 -0.11119989485E+02  0.86188822211E+00  0.17770388498E+02  0.51100000000E-03 0. -1.
        -11    1    3    3    0    0 -0.67475352979E+01 -0.28002942631E+02  0.25326834228E+01  0.28915541049E+02  0.51100000000E-03 0.  1.
         12    1    3    3    0    0  0.20617684023E+02  0.37971736271E+02 -0.31368483581E+01  0.43321835921E+02  0.00000000000E+00 0. -1.
</event>
<event>
 7    1  0.4195243E-015  0.9000770E+02  0.7816164E-02  0.1186339E+00
        -11   -1    0    0    0    0  0.00000000000E+00  0.00000000000E+00  0.45593999997E+02  0.45594000000E+02  0.51100000000E-03 0.  1.
         11   -1    0    0    0    0 -0.00000000000E+00 -0.00000000000E+00 -0.45593999997E+02  0.45594000000E+02  0.51100000000E-03 0. -1.
    9900012    2    1    2    0    0 -0.10524972294E+01  0.84651176110E-01 -0.52743859945E+00  0.90007700159E+02  0.89999961001E+02 0.  0.
        -12    1    1    2    0    0  0.10524972294E+01 -0.84651176110E-01  0.52743859945E+00  0.11802998414E+01  0.00000000000E+00 0.  1.
         11    1    3    3    0    0 -0.70492206792E+01  0.44571556352E+01 -0.23686828384E+01  0.86699715795E+01  0.51100000000E-03 0. -1.
        -11    1    3    3    0    0 -0.10903762379E+02 -0.40204105707E+02 -0.38002208857E+00  0.41658211277E+02  0.51100000000E-03 0.  1.
         12    1    3    3    0    0  0.16900485829E+02  0.35831601248E+02  0.22212663275E+01  0.39679517302E+02  0.00000000000E+00 0. -1.
</event>
<event>
 7    1  0.4195243E-015  0.9000766E+02  0.7816164E-02  0.1186339E+00
        -11   -1    0    0    0    0  0.00000000000E+00  0.00000000000E+00  0.45593999997E+02  0.45594000000E+02  0.51100000000E-03 0.  1.
         11   -1    0    0    0    0 -0.00000000000E+00 -0.00000000000E+00 -0.45593999997E+02  0.45594000000E+02  0.51100000000E-03 0. -1.
    9900012    2    1    2    0    0 -0.37729428521E+00  0.27040656439E+00 -0.10852375231E+01  0.90007656334E+02  0.89999916598E+02 0.  0.
        -12    1    1    2    0    0  0.37729428521E+00 -0.27040656439E+00  0.10852375231E+01  0.11803436657E+01  0.00000000000E+00 0.  1.
         11    1    3    3    0    0 -0.69239954573E+01  0.17965584450E+02 -0.28500759639E+01  0.19463475306E+02  0.51100000000E-03 0. -1.
        -11    1    3    3    0    0 -0.16808314726E+02  0.17588080443E+02 -0.10488743351E+02  0.26492900086E+02  0.51100000000E-03 0.  1.
         12    1    3    3    0    0  0.23355015898E+02 -0.35283258329E+02  0.12253581792E+02  0.44051280942E+02  0.00000000000E+00 0. -1.
</event>
<event>
 7    1  0.4195243E-015  0.9000756E+02  0.7816164E-02  0.1186339E+00
        -11   -1    0    0    0    0  0.00000000000E+00  0.00000000000E+00  0.45593999997E+02  0.45594000000E+02  0.51100000000E-03 0.  1.
         11   -1    0    0    0    0 -0.00000000000E+00 -0.00000000000E+00 -0.45593999997E+02  0.45594000000E+02  0.51100000000E-03 0. -1.
    9900012    2    1    2    0    0 -0.63589933953E+00 -0.73364208013E+00 -0.67143885187E+00  0.90007564147E+02  0.89999823193E+02 0.  0.
        -12    1    1    2    0    0  0.63589933953E+00  0.73364208013E+00  0.67143885187E+00  0.11804358532E+01  0.00000000000E+00 0.  1.
         11    1    3    3    0    0  0.25008115877E+02 -0.26980965397E+02 -0.14633996865E+02  0.39592072666E+02  0.51100000000E-03 0. -1.
        -11    1    3    3    0    0 -0.52920752421E+01 -0.10842316721E+01 -0.81611315560E+01  0.97870162574E+01  0.51100000000E-03 0.  1.
        -12    1    3    3    0    0 -0.20351939975E+02  0.27331554989E+02  0.22123689569E+02  0.40628475224E+02  0.00000000000E+00 0.  1.
</event>
<event>
 7    1  0.4195243E-015  0.9000765E+02  0.7816164E-02  0.1186339E+00
        -11   -1    0    0    0    0  0.00000000000E+00  0.00000000000E+00  0.45593999997E+02  0.45594000000E+02  0.51100000000E-03 0.  1.
         11   -1    0    0    0    0 -0.00000000000E+00 -0.00000000000E+00 -0.45593999997E+02  0.45594000000E+02  0.51100000000E-03 0. -1.
    9900012    2    1    2    0    0  0.10088587467E+01 -0.91816901550E-01 -0.60581030473E+00  0.90007647324E+02  0.89999907469E+02 0.  0.
        -12    1    1    2    0    0 -0.10088587467E+01  0.91816901550E-01  0.60581030473E+00  0.11803526759E+01  0.00000000000E+00 0.  1.
         11    1    3    3    0    0  0.17770056068E+02 -0.23851066767E+02 -0.26514144325E+02  0.39845302460E+02  0.51100000000E-03 0. -1.
        -11    1    3    3    0    0  0.18957442725E+01 -0.66026391452E+01  0.70530051841E+01  0.98454848746E+01  0.51100000000E-03 0.  1.
        -12    1    3    3    0    0 -0.18656941594E+02  0.30361889010E+02  0.18855328836E+02  0.40316859990E+02  0.00000000000E+00 0.  1.
</event>
<event>
 7    1  0.4195243E-015  0.9000785E+02  0.7816164E-02  0.1186339E+00
        -11   -1    0    0    0    0  0.00000000000E+00  0.00000000000E+00  0.45593999997E+02  0.45594000000E+02  0.51100000000E-03 0. -1.
         11   -1    0    0    0    0 -0.00000000000E+00 -0.00000000000E+00 -0.45593999997E+02  0.45594000000E+02  0.51100000000E-03 0.  1.
    9900012    2    1    2    0    0 -0.74043483018E+00 -0.67160544109E+00 -0.62726708696E+00  0.90007846788E+02  0.90000109565E+02 0.  0.
        -12    1    1    2    0    0  0.74043483018E+00  0.67160544109E+00  0.62726708696E+00  0.11801532124E+01  0.00000000000E+00 0.  1.
         11    1    3    3    0    0 -0.15034599977E+02 -0.30798852342E+02  0.13128296681E+02  0.36700962877E+02  0.51100000000E-03 0. -1.
        -11    1    3    3    0    0 -0.56791464411E+01 -0.56219987438E+01  0.36815869054E+01  0.87985030873E+01  0.51100000000E-03 0.  1.
        -12    1    3    3    0    0  0.19973311588E+02  0.35749245645E+02 -0.17437150673E+02  0.44508380824E+02  0.00000000000E+00 0.  1.
</event>
<event>
 7    1  0.4195243E-015  0.9000772E+02  0.7816164E-02  0.1186339E+00
        -11   -1    0    0    0    0  0.00000000000E+00  0.00000000000E+00  0.45593999997E+02  0.45594000000E+02  0.51100000000E-03 0.  1.
         11   -1    0    0    0    0 -0.00000000000E+00 -0.00000000000E+00 -0.45593999997E+02  0.45594000000E+02  0.51100000000E-03 0. -1.
    9900012    2    1    2    0    0 -0.38161235501E+00  0.11097353116E+01 -0.12620956466E+00  0.90007716430E+02  0.89999977487E+02 0.  0.
        -12    1    1    2    0    0  0.38161235501E+00 -0.11097353116E+01  0.12620956466E+00  0.11802835699E+01  0.00000000000E+00 0.  1.
         11    1    3    3    0    0  0.70644489936E+01  0.15673715996E+01 -0.30282094408E+01  0.78443065973E+01  0.51100000000E-03 0. -1.
        -11    1    3    3    0    0  0.27143678140E+02  0.23916899947E+02  0.13376657836E+02  0.38571133522E+02  0.51100000000E-03 0.  1.
         12    1    3    3    0    0 -0.34589739489E+02 -0.24374536235E+02 -0.10474657960E+02  0.43592276311E+02  0.00000000000E+00 0. -1.
</event>
<event>
 7    1  0.4195243E-015  0.9000816E+02  0.7816164E-02  0.1186338E+00
        -11   -1    0    0    0    0  0.00000000000E+00  0.00000000000E+00  0.45593999997E+02  0.45594000000E+02  0.51100000000E-03 0.  1.
         11   -1    0    0    0    0 -0.00000000000E+00 -0.00000000000E+00 -0.45593999997E+02  0.45594000000E+02  0.51100000000E-03 0. -1.
    9900012    2    1    2    0    0  0.32355836450E+00 -0.77314111146E+00 -0.83041057064E+00  0.90008161490E+02  0.90000428421E+02 0.  0.
        -12    1    1    2    0    0 -0.32355836450E+00  0.77314111146E+00  0.83041057064E+00  0.11798385098E+01  0.00000000000E+00 0.  1.
         11    1    3    3    0    0 -0.42024404113E+00  0.33300036732E+00  0.94877204764E+01  0.95028592749E+01  0.51100000000E-03 0. -1.
        -11    1    3    3    0    0 -0.12807008266E+02  0.87365334868E+01  0.31691448340E+02  0.35280226420E+02  0.51100000000E-03 0.  1.
         12    1    3    3    0    0  0.13550810672E+02 -0.98426749656E+01 -0.42009579387E+02  0.45225075795E+02  0.00000000000E+00 0. -1.
</event>
<event>
 7    1  0.4195243E-015  0.9000758E+02  0.7816164E-02  0.1186339E+00
        -11   -1    0    0    0    0  0.00000000000E+00  0.00000000000E+00  0.45593999997E+02  0.45594000000E+02  0.51100000000E-03 0. -1.
         11   -1    0    0    0    0 -0.00000000000E+00 -0.00000000000E+00 -0.45593999997E+02  0.45594000000E+02  0.51100000000E-03 0.  1.
    9900012    2    1    2    0    0 -0.75069604182E-01 -0.11766894326E+01  0.56093443407E-01  0.90007584844E+02  0.89999844164E+02 0.  0.
        -12    1    1    2    0    0  0.75069604182E-01  0.11766894326E+01 -0.56093443407E-01  0.11804151561E+01  0.00000000000E+00 0.  1.
         11    1    3    3    0    0  0.23590185023E+02 -0.24983610573E+02  0.28140607330E+02  0.44413639885E+02  0.51100000000E-03 0. -1.
        -11    1    3    3    0    0 -0.16507244857E+01  0.94448549172E+01 -0.85252116842E+01  0.12830019885E+02  0.51100000000E-03 0.  1.
        -12    1    3    3    0    0 -0.22014530142E+02  0.14362066223E+02 -0.19559302202E+02  0.32763925073E+02  0.00000000000E+00 0.  1.
</event>
<event>
 7    1  0.4195243E-015  0.9000768E+02  0.7816164E-02  0.1186339E+00
        -11   -1    0    0    0    0  0.00000000000E+00  0.00000000000E+00  0.45593999997E+02  0.45594000000E+02  0.51100000000E-03 0. -1.
         11   -1    0    0    0    0 -0.00000000000E+00 -0.00000000000E+00 -0.45593999997E+02  0.45594000000E+02  0.51100000000E-03 0.  1.
    9900012    2    1    2    0    0 -0.86944356635E+00  0.69183030006E+00  0.39825007808E+00  0.90007676145E+02  0.89999936670E+02 0.  0.
        -12    1    1    2    0    0  0.86944356635E+00 -0.69183030006E+00 -0.39825007808E+00  0.11803238555E+01  0.00000000000E+00 0.  1.
         11    1    3    3    0    0 -0.99592878913E+01  0.16656876272E+00  0.31388660608E+01  0.10443545416E+02  0.51100000000E-03 0. -1.
        -11    1    3    3    0    0 -0.24466557755E+02 -0.23895256038E+02 -0.13374739888E+02  0.36721647251E+02  0.51100000000E-03 0.  1.
         12    1    3    3    0    0  0.33556402080E+02  0.24420517576E+02  0.10634123905E+02  0.42842483477E+02  0.00000000000E+00 0. -1.
</event>
<event>
 7    1  0.4195243E-015  0.9000839E+02  0.7816164E-02  0.1186338E+00
        -11   -1    0    0    0    0  0.00000000000E+00  0.00000000000E+00  0.45593999997E+02  0.45594000000E+02  0.51100000000E-03 0.  1.
         11   -1    0    0    0    0 -0.00000000000E+00 -0.00000000000E+00 -0.45593999997E+02  0.45594000000E+02  0.51100000000E-03 0. -1.
    9900012    2    1    2    0    0 -0.89440626887E+00 -0.14746402826E+00 -0.75483496320E+00  0.90008388185E+02  0.90000658106E+02 0.  0.
        -12    1    1    2    0    0  0.89440626887E+00  0.14746402826E+00  0.75483496320E+00  0.11796118154E+01  0.00000000000E+00 0.  1.
         11    1    3    3    0    0 -0.32477440037E+02  0.73794015824E+01 -0.24271649419E+02  0.41211074299E+02  0.51100000000E-03 0. -1.
        -11    1    3    3    0    0  0.72373486544E+01  0.37619351303E+01 -0.50574397310E+01  0.95973469440E+01  0.51100000000E-03 0.  1.
        -12    1    3    3    0    0  0.24345685114E+02 -0.11288800741E+02  0.28574254187E+02  0.39199966941E+02  0.00000000000E+00 0.  1.
</event>
<event>
 7    1  0.4195243E-015  0.9000770E+02  0.7816164E-02  0.1186339E+00
        -11   -1    0    0    0    0  0.00000000000E+00  0.00000000000E+00  0.45593999997E+02  0.45594000000E+02  0.51100000000E-03 0. -1.
         11   -1    0    0    0    0 -0.00000000000E+00 -0.00000000000E+00 -0.45593999997E+02  0.45594000000E+02  0.51100000000E-03 0.  1.
    9900012    2    1    2    0    0 -0.71636041794E+00 -0.83579967180E+00  0.42588794556E+00  0.90007697546E+02  0.89999958354E+02 0.  0.
        -12    1    1    2    0    0  0.71636041794E+00  0.83579967180E+00 -0.42588794556E+00  0.11803024536E+01  0.00000000000E+00 0.  1.
         11    1    3    3    0    0 -0.25052165621E+02 -0.10142193744E+02  0.30745209136E+02  0.40935839814E+02  0.51100000000E-03 0. -1.
        -11    1    3    3    0    0  0.78278852739E+01 -0.47609442527E+01  0.27133033025E+01  0.95553332287E+01  0.51100000000E-03 0.  1.
        -12    1    3    3    0    0  0.16507919929E+02  0.14067338325E+02 -0.33032624493E+02  0.39516524503E+02  0.00000000000E+00 0.  1.
</event>
<event>
 7    1  0.4195243E-015  0.9000850E+02  0.7816164E-02  0.1186338E+00
        -11   -1    0    0    0    0  0.00000000000E+00  0.00000000000E+00  0.45593999997E+02  0.45594000000E+02  0.51100000000E-03 0.  1.
         11   -1    0    0    0    0 -0.00000000000E+00 -0.00000000000E+00 -0.45593999997E+02  0.45594000000E+02  0.51100000000E-03 0. -1.
    9900012    2    1    2    0    0  0.46157149648E+00  0.71353877900E+00  0.81794693101E+00  0.90008498827E+02  0.90000770208E+02 0.  0.
        -12    1    1    2    0    0 -0.46157149648E+00 -0.71353877900E+00 -0.81794693101E+00  0.11795011731E+01  0.00000000000E+00 0.  1.
         11    1    3    3    0    0 -0.55831940669E+01  0.92801205278E+01  0.59573612226E+01  0.12360535830E+02  0.51100000000E-03 0. -1.
        -11    1    3    3    0    0  0.21166786282E+02  0.28326656317E+02  0.68362672432E+01  0.36016202599E+02  0.51100000000E-03 0.  1.
         12    1    3    3    0    0 -0.15122020719E+02 -0.36893238066E+02 -0.11975681535E+02  0.41631760398E+02  0.00000000000E+00 0. -1.
</event>
<event>
 7    1  0.4195243E-015  0.9000777E+02  0.7816164E-02  0.1186339E+00
        -11   -1    0    0    0    0  0.00000000000E+00  0.00000000000E+00  0.45593999997E+02  0.45594000000E+02  0.51100000000E-03 0. -1.
         11   -1    0    0    0    0 -0.00000000000E+00 -0.00000000000E+00 -0.45593999997E+02  0.45594000000E+02  0.51100000000E-03 0.  1.
    9900012    2    1    2    0    0  0.19728285148E+00  0.33162186989E+00  0.11153742175E+01  0.90007765602E+02  0.90000027308E+02 0.  0.
        -12    1    1    2    0    0 -0.19728285148E+00 -0.33162186989E+00 -0.11153742175E+01  0.11802343976E+01  0.00000000000E+00 0.  1.
         11    1    3    3    0    0 -0.33526887146E+01 -0.11217058794E+01  0.90331193563E+01  0.97003088231E+01  0.51100000000E-03 0. -1.
        -11    1    3    3    0    0 -0.33879217088E+02  0.18693956502E+02 -0.45484538954E+01  0.38960926494E+02  0.51100000000E-03 0.  1.
         12    1    3    3    0    0  0.37429188654E+02 -0.17240628753E+02 -0.33692912434E+01  0.41346530285E+02  0.00000000000E+00 0. -1.
</event>
<event>
 7    1  0.4195243E-015  0.9000755E+02  0.7816164E-02  0.1186339E+00
        -11   -1    0    0    0    0  0.00000000000E+00  0.00000000000E+00  0.45593999997E+02  0.45594000000E+02  0.51100000000E-03 0.  1.
         11   -1    0    0    0    0 -0.00000000000E+00 -0.00000000000E+00 -0.45593999997E+02  0.45594000000E+02  0.51100000000E-03 0. -1.
    9900012    2    1    2    0    0  0.50358119918E+00 -0.10091748654E+00 -0.10628612227E+01  0.90007554177E+02  0.89999813092E+02 0.  0.
        -12    1    1    2    0    0 -0.50358119918E+00  0.10091748654E+00  0.10628612227E+01  0.11804458234E+01  0.00000000000E+00 0.  1.
         11    1    3    3    0    0 -0.16965587171E+02  0.83656582170E+01 -0.35758432762E+02  0.40453441131E+02  0.51100000000E-03 0. -1.
        -11    1    3    3    0    0 -0.53007896146E+01 -0.71123858863E+01  0.10882709546E+01  0.89369310989E+01  0.51100000000E-03 0.  1.
        -12    1    3    3    0    0  0.22769957985E+02 -0.13541898172E+01  0.33607300585E+02  0.40617181947E+02  0.00000000000E+00 0.  1.
</event>
<event>
 7    1  0.4195243E-015  0.9000780E+02  0.7816164E-02  0.1186339E+00
        -11   -1    0    0    0    0  0.00000000000E+00  0.00000000000E+00  0.45593999997E+02  0.45594000000E+02  0.51100000000E-03 0. -1.
         11   -1    0    0    0    0 -0.00000000000E+00 -0.00000000000E+00 -0.45593999997E+02  0.45594000000E+02  0.51100000000E-03 0.  1.
    9900012    2    1    2    0    0 -0.83146499483E+00  0.61324771170E+00  0.57049196915E+00  0.90007801762E+02  0.90000063945E+02 0.  0.
        -12    1    1    2    0    0  0.83146499483E+00 -0.61324771170E+00 -0.57049196915E+00  0.11801982378E+01  0.00000000000E+00 0.  1.
         11    1    3    3    0    0  0.33915817688E+02 -0.22074365683E+02 -0.12208423121E+02  0.42268261202E+02  0.51100000000E-03 0. -1.
        -11    1    3    3    0    0 -0.67069690278E+01 -0.94984226301E+00  0.84211344625E+01  0.10807457599E+02  0.51100000000E-03 0.  1.
        -12    1    3    3    0    0 -0.28040313655E+02  0.23637455657E+02  0.43577806277E+01  0.36932082961E+02  0.00000000000E+00 0.  1.
</event>
<event>
 7    1  0.4195243E-015  0.9000718E+02  0.7816164E-02  0.1186340E+00
        -11   -1    0    0    0    0  0.00000000000E+00  0.00000000000E+00  0.45593999997E+02  0.45594000000E+02  0.51100000000E-03 0.  1.
         11   -1    0    0    0    0 -0.00000000000E+00 -0.00000000000E+00 -0.45593999997E+02  0.45594000000E+02  0.51100000000E-03 0. -1.
    9900012    2    1    2    0    0  0.85906899236E+00 -0.28954626338E-01 -0.80962452268E+00  0.90007182583E+02  0.89999436592E+02 0.  0.
        -12    1    1    2    0    0 -0.85906899236E+00  0.28954626338E-01  0.80962452268E+00  0.11808174168E+01  0.00000000000E+00 0.  1.
         11    1    3    3    0    0 -0.10505639013E+02  0.36857617960E+01  0.21214653227E+01  0.11333750768E+02  0.51100000000E-03 0. -1.
        -11    1    3    3    0    0 -0.12326774842E+02  0.29917040064E+02  0.12567859887E+02  0.34712098274E+02  0.51100000000E-03 0.  1.
         12    1    3    3    0    0  0.23691482848E+02 -0.33631756486E+02 -0.15498949732E+02  0.43961333541E+02  0.00000000000E+00 0. -1.
</event>
<event>
 7    1  0.4195243E-015  0.9000776E+02  0.7816164E-02  0.1186339E+00
        -11   -1    0    0    0    0  0.00000000000E+00  0.00000000000E+00  0.45593999997E+02  0.45594000000E+02  0.51100000000E-03 0. -1.
         11   -1    0    0    0    0 -0.00000000000E+00 -0.00000000000E+00 -0.45593999997E+02  0.45594000000E+02  0.51100000000E-03 0.  1.
    9900012    2    1    2    0    0  0.21986712713E+00 -0.11552828784E+01  0.99736962896E-01  0.90007759540E+02  0.90000021165E+02 0.  0.
        -12    1    1    2    0    0 -0.21986712713E+00  0.11552828784E+01 -0.99736962896E-01  0.11802404604E+01  0.00000000000E+00 0.  1.
         11    1    3    3    0    0 -0.11924103820E+02 -0.21162010192E+02  0.22314401900E+02  0.32984048564E+02  0.51100000000E-03 0. -1.
        -11    1    3    3    0    0  0.63832742515E+01 -0.14863711510E+02 -0.12284275435E+02  0.20312053891E+02  0.51100000000E-03 0.  1.
         12    1    3    3    0    0  0.57606966952E+01  0.34870438824E+02 -0.99303895020E+01  0.36711657084E+02  0.00000000000E+00 0. -1.
</event>
<event>
 7    1  0.4195243E-015  0.9000765E+02  0.7816164E-02  0.1186339E+00
        -11   -1    0    0    0    0  0.00000000000E+00  0.00000000000E+00  0.45593999997E+02  0.45594000000E+02  0.51100000000E-03 0. -1.
         11   -1    0    0    0    0 -0.00000000000E+00 -0.00000000000E+00 -0.45593999997E+02  0.45594000000E+02  0.51100000000E-03 0.  1.
    9900012    2    1    2    0    0 -0.60070025349E+00  0.42651921293E+00  0.92220683985E+00  0.90007650523E+02  0.89999910709E+02 0.  0.
        -12    1    1    2    0    0  0.60070025349E+00 -0.42651921293E+00 -0.92220683985E+00  0.11803494775E+01  0.00000000000E+00 0.  1.
         11    1    3    3    0    0  0.33451307783E+01 -0.39679721281E+01 -0.64011179804E+01  0.82406925918E+01  0.51100000000E-03 0. -1.
        -11    1    3    3    0    0 -0.36967825137E+02 -0.18408076936E+02  0.43865249960E+01  0.41529736258E+02  0.51100000000E-03 0.  1.
         12    1    3    3    0    0  0.33021994105E+02  0.22802568277E+02  0.29367998242E+01  0.40237221673E+02  0.00000000000E+00 0. -1.
</event>
<event>
 7    1  0.4195243E-015  0.9000760E+02  0.7816164E-02  0.1186339E+00
        -11   -1    0    0    0    0  0.00000000000E+00  0.00000000000E+00  0.45593999997E+02  0.45594000000E+02  0.51100000000E-03 0.  1.
         11   -1    0    0    0    0 -0.00000000000E+00 -0.00000000000E+00 -0.45593999997E+02  0.45594000000E+02  0.51100000000E-03 0. -1.
    9900012    2    1    2    0    0  0.50115974647E+00  0.10123602940E+01 -0.34250755481E+00  0.90007599271E+02  0.89999858781E+02 0.  0.
        -12    1    1    2    0    0 -0.50115974647E+00 -0.10123602940E+01  0.34250755481E+00  0.11804007291E+01  0.00000000000E+00 0.  1.
         11    1    3    3    0    0  0.23258151284E+01 -0.16331450586E+01  0.81863082532E+01  0.86655768343E+01  0.51100000000E-03 0. -1.
        -11    1    3    3    0    0  0.26965297457E+01  0.11420536396E+02  0.34892462480E+02  0.36812821984E+02  0.51100000000E-03 0.  1.
         12    1    3    3    0    0 -0.45211851277E+01 -0.87750310430E+01 -0.43421278288E+02  0.44529200453E+02  0.00000000000E+00 0. -1.
</event>
<event>
 7    1  0.4195243E-015  0.9000688E+02  0.7816164E-02  0.1186341E+00
        -11   -1    0    0    0    0  0.00000000000E+00  0.00000000000E+00  0.45593999997E+02  0.45594000000E+02  0.51100000000E-03 0. -1.
         11   -1    0    0    0    0 -0.00000000000E+00 -0.00000000000E+00 -0.45593999997E+02  0.45594000000E+02  0.51100000000E-03 0.  1.
    9900012    2    1    2    0    0  0.83837849608E+00  0.21785344080E+00  0.80293989429E+00  0.90006877188E+02  0.89999127162E+02 0.  0.
        -12    1    1    2    0    0 -0.83837849608E+00 -0.21785344080E+00 -0.80293989429E+00  0.11811228125E+01  0.00000000000E+00 0.  1.
         11    1    3    3    0    0  0.23629219425E+02  0.30189795830E+02  0.30200027302E+01  0.38456263465E+02  0.51100000000E-03 0. -1.
        -11    1    3    3    0    0  0.68646681525E+01 -0.70599915425E+01 -0.91467695732E+01  0.13439886283E+02  0.51100000000E-03 0.  1.
        -12    1    3    3    0    0 -0.29655509082E+02 -0.22911950847E+02  0.69297067373E+01  0.38110727440E+02  0.00000000000E+00 0.  1.
</event>
<event>
 7    1  0.4195243E-015  0.9000773E+02  0.7816164E-02  0.1186339E+00
        -11   -1    0    0    0    0  0.00000000000E+00  0.00000000000E+00  0.45593999997E+02  0.45594000000E+02  0.51100000000E-03 0.  1.
         11   -1    0    0    0    0 -0.00000000000E+00 -0.00000000000E+00 -0.45593999997E+02  0.45594000000E+02  0.51100000000E-03 0. -1.
    9900012    2    1    2    0    0  0.22407727373E+00 -0.68190481529E-01 -0.11567964519E+01  0.90007729439E+02  0.89999990667E+02 0.  0.
        -12    1    1    2    0    0 -0.22407727373E+00  0.68190481529E-01  0.11567964519E+01  0.11802705611E+01  0.00000000000E+00 0.  1.
         11    1    3    3    0    0  0.76548928894E+01 -0.73187234360E+01  0.92309318337E+00  0.10630766631E+02  0.51100000000E-03 0. -1.
        -11    1    3    3    0    0 -0.79353436499E+01 -0.28245713066E+02  0.21835515400E+02  0.36572936968E+02  0.51100000000E-03 0.  1.
         12    1    3    3    0    0  0.50452803432E+00  0.35496246020E+02 -0.23915405035E+02  0.42804025839E+02  0.00000000000E+00 0. -1.
</event>
<event>
 7    1  0.4195243E-015  0.9000793E+02  0.7816164E-02  0.1186339E+00
        -11   -1    0    0    0    0  0.00000000000E+00  0.00000000000E+00  0.45593999997E+02  0.45594000000E+02  0.51100000000E-03 0.  1.
         11   -1    0    0    0    0 -0.00000000000E+00 -0.00000000000E+00 -0.45593999997E+02  0.45594000000E+02  0.51100000000E-03 0. -1.
    9900012    2    1    2    0    0  0.15724369882E+00  0.94277555891E+00 -0.69210477533E+00  0.90007932055E+02  0.90000195958E+02 0.  0.
        -12    1    1    2    0    0 -0.15724369882E+00 -0.94277555891E+00  0.69210477533E+00  0.11800679452E+01  0.00000000000E+00 0.  1.
         11    1    3    3    0    0  0.64392915430E+01  0.17070395411E+02 -0.28096790132E+02  0.33500634188E+02  0.51100000000E-03 0. -1.
        -11    1    3    3    0    0  0.97610521065E+00  0.12651819217E+02 -0.39915828170E+01  0.13302407471E+02  0.51100000000E-03 0.  1.
        -12    1    3    3    0    0 -0.72581530548E+01 -0.28779439069E+02  0.31396268173E+02  0.43204890396E+02  0.00000000000E+00 0.  1.
</event>
<event>
 7    1  0.4195243E-015  0.9000774E+02  0.7816164E-02  0.1186339E+00
        -11   -1    0    0    0    0  0.00000000000E+00  0.00000000000E+00  0.45593999997E+02  0.45594000000E+02  0.51100000000E-03 0.  1.
         11   -1    0    0    0    0 -0.00000000000E+00 -0.00000000000E+00 -0.45593999997E+02  0.45594000000E+02  0.51100000000E-03 0. -1.
    9900012    2    1    2    0    0 -0.33964761198E+00 -0.14924279647E+00  0.11204346981E+01  0.90007742475E+02  0.90000003876E+02 0.  0.
        -12    1    1    2    0    0  0.33964761198E+00  0.14924279647E+00 -0.11204346981E+01  0.11802575250E+01  0.00000000000E+00 0.  1.
         11    1    3    3    0    0  0.39063246764E+01 -0.10678066671E+02 -0.22555396842E+01  0.11591718588E+02  0.51100000000E-03 0. -1.
        -11    1    3    3    0    0  0.15915720321E+02 -0.27513564941E+02 -0.10016782013E+02  0.33326300894E+02  0.51100000000E-03 0.  1.
         12    1    3    3    0    0 -0.20161692610E+02  0.38042388815E+02  0.13392756396E+02  0.45089722993E+02  0.00000000000E+00 0. -1.
</event>
<event>
 7    1  0.4195243E-015  0.9000771E+02  0.7816164E-02  0.1186339E+00
        -11   -1    0    0    0    0  0.00000000000E+00  0.00000000000E+00  0.45593999997E+02  0.45594000000E+02  0.51100000000E-03 0. -1.
         11   -1    0    0    0    0 -0.00000000000E+00 -0.00000000000E+00 -0.45593999997E+02  0.45594000000E+02  0.51100000000E-03 0.  1.
    9900012    2    1    2    0    0 -0.71959543974E+00 -0.86307577944E+00 -0.36107080882E+00  0.90007707864E+02  0.89999968808E+02 0.  0.
        -12    1    1    2    0    0  0.71959543974E+00  0.86307577944E+00  0.36107080882E+00  0.11802921363E+01  0.00000000000E+00 0.  1.
         11    1    3    3    0    0 -0.24366707948E+02  0.24869729387E+02 -0.47886983601E+00  0.34820528608E+02  0.51100000000E-03 0. -1.
        -11    1    3    3    0    0 -0.80082126322E+01  0.55059437752E+01 -0.40290543856E+01  0.10520464150E+02  0.51100000000E-03 0.  1.
        -12    1    3    3    0    0  0.31655325140E+02 -0.31238748941E+02  0.41468534128E+01  0.44666715106E+02  0.00000000000E+00 0.  1.
</event>
<event>
 7    1  0.4195243E-015  0.9000783E+02  0.7816164E-02  0.1186339E+00
        -11   -1    0    0    0    0  0.00000000000E+00  0.00000000000E+00  0.45593999997E+02  0.45594000000E+02  0.51100000000E-03 0.  1.
         11   -1    0    0    0    0 -0.00000000000E+00 -0.00000000000E+00 -0.45593999997E+02  0.45594000000E+02  0.51100000000E-03 0. -1.
    9900012    2    1    2    0    0  0.42455578061E+00  0.10748773022E+01 -0.23914599423E+00  0.90007830676E+02  0.90000093241E+02 0.  0.
        -12    1    1    2    0    0 -0.42455578061E+00 -0.10748773022E+01  0.23914599423E+00  0.11801693235E+01  0.00000000000E+00 0.  1.
         11    1    3    3    0    0 -0.26825973250E+01  0.13375446602E+02  0.34607384120E+02  0.37199058269E+02  0.51100000000E-03 0.  1.
        -11    1    3    3    0    0 -0.44877772461E+01  0.11789114443E+02 -0.19590431960E+02  0.23300394602E+02  0.51100000000E-03 0. -1.
        -12    1    3    3    0    0  0.75949303517E+01 -0.24089683742E+02 -0.15256098154E+02  0.29508377806E+02  0.00000000000E+00 0.  1.
</event>
<event>
 7    1  0.4195243E-015  0.9000774E+02  0.7816164E-02  0.1186339E+00
        -11   -1    0    0    0    0  0.00000000000E+00  0.00000000000E+00  0.45593999997E+02  0.45594000000E+02  0.51100000000E-03 0.  1.
         11   -1    0    0    0    0 -0.00000000000E+00 -0.00000000000E+00 -0.45593999997E+02  0.45594000000E+02  0.51100000000E-03 0. -1.
    9900012    2    1    2    0    0 -0.11051164952E+01  0.11691571976E+00 -0.39756121186E+00  0.90007742964E+02  0.90000004371E+02 0.  0.
        -12    1    1    2    0    0  0.11051164952E+01 -0.11691571976E+00  0.39756121186E+00  0.11802570358E+01  0.00000000000E+00 0.  1.
         11    1    3    3    0    0  0.32625719847E+02 -0.13166866316E+02 -0.93473198530E+01  0.36402971758E+02  0.51100000000E-03 0. -1.
        -11    1    3    3    0    0  0.69543499948E+00 -0.10790793436E+02  0.11035127208E+01  0.10869341903E+02  0.51100000000E-03 0.  1.
        -12    1    3    3    0    0 -0.34426271342E+02  0.24074575472E+02  0.78462459203E+01  0.42735429303E+02  0.00000000000E+00 0.  1.
</event>
<event>
 7    1  0.4195243E-015  0.9000769E+02  0.7816164E-02  0.1186339E+00
        -11   -1    0    0    0    0  0.00000000000E+00  0.00000000000E+00  0.45593999997E+02  0.45594000000E+02  0.51100000000E-03 0.  1.
         11   -1    0    0    0    0 -0.00000000000E+00 -0.00000000000E+00 -0.45593999997E+02  0.45594000000E+02  0.51100000000E-03 0. -1.
    9900012    2    1    2    0    0  0.98215564607E+00 -0.63265761767E+00 -0.16805280397E+00  0.90007691939E+02  0.89999952672E+02 0.  0.
        -12    1    1    2    0    0 -0.98215564607E+00  0.63265761767E+00  0.16805280397E+00  0.11803080612E+01  0.00000000000E+00 0.  1.
         11    1    3    3    0    0 -0.74630535018E+01  0.29377411852E+01 -0.29847797040E+01  0.85578268845E+01  0.51100000000E-03 0. -1.
        -11    1    3    3    0    0  0.29685880205E+02  0.17176391816E+02 -0.23661267224E+02  0.41666959168E+02  0.51100000000E-03 0.  1.
         12    1    3    3    0    0 -0.21240671058E+02 -0.20746790619E+02  0.26477994124E+02  0.39782905887E+02  0.00000000000E+00 0. -1.
</event>
<event>
 7    1  0.4195243E-015  0.9000811E+02  0.7816164E-02  0.1186338E+00
        -11   -1    0    0    0    0  0.00000000000E+00  0.00000000000E+00  0.45593999997E+02  0.45594000000E+02  0.51100000000E-03 0.  1.
         11   -1    0    0    0    0 -0.00000000000E+00 -0.00000000000E+00 -0.45593999997E+02  0.45594000000E+02  0.51100000000E-03 0. -1.
    9900012    2    1    2    0    0 -0.59850151705E+00 -0.74155772891E+00  0.69571857965E+00  0.90008111754E+02  0.90000378028E+02 0.  0.
        -12    1    1    2    0    0  0.59850151705E+00  0.74155772891E+00 -0.69571857965E+00  0.11798882461E+01  0.00000000000E+00 0.  1.
         11    1    3    3    0    0  0.18506405919E+01 -0.33157338440E+02 -0.14178847156E+02  0.36109190935E+02  0.51100000000E-03 0. -1.
        -11    1    3    3    0    0 -0.34440988730E+01 -0.79407750438E+01 -0.37597465452E+01  0.94368119452E+01  0.51100000000E-03 0.  1.
        -12    1    3    3    0    0  0.99495676407E+00  0.40356555755E+02  0.18634312280E+02  0.44462108874E+02  0.00000000000E+00 0.  1.
</event>
<event>
 7    1  0.4195243E-015  0.9000785E+02  0.7816164E-02  0.1186339E+00
        -11   -1    0    0    0    0  0.00000000000E+00  0.00000000000E+00  0.45593999997E+02  0.45594000000E+02  0.51100000000E-03 0.  1.
         11   -1    0    0    0    0 -0.00000000000E+00 -0.00000000000E+00 -0.45593999997E+02  0.45594000000E+02  0.51100000000E-03 0. -1.
    9900012    2    1    2    0    0  0.10225991044E+01 -0.32714463444E+00 -0.48991425817E+00  0.90007852331E+02  0.90000115182E+02 0.  0.
        -12    1    1    2    0    0 -0.10225991044E+01  0.32714463444E+00  0.48991425817E+00  0.11801476689E+01  0.00000000000E+00 0.  1.
         11    1    3    3    0    0  0.29370433846E+02 -0.20556842695E+01 -0.21640787360E+02  0.36540004105E+02  0.51100000000E-03 0. -1.
        -11    1    3    3    0    0  0.32959812250E+01 -0.13236036091E+01 -0.89862262129E+01  0.96626953051E+01  0.51100000000E-03 0.  1.
        -12    1    3    3    0    0 -0.31643815967E+02  0.30521432442E+01  0.30137099315E+02  0.43805152921E+02  0.00000000000E+00 0.  1.
</event>
<event>
 7    1  0.4195243E-015  0.9000774E+02  0.7816164E-02  0.1186339E+00
        -11   -1    0    0    0    0  0.00000000000E+00  0.00000000000E+00  0.45593999997E+02  0.45594000000E+02  0.51100000000E-03 0. -1.
         11   -1    0    0    0    0 -0.00000000000E+00 -0.00000000000E+00 -0.45593999997E+02  0.45594000000E+02  0.51100000000E-03 0.  1.
    9900012    2    1    2    0    0  0.79150119567E+00  0.16296596248E+00  0.86022281404E+00  0.90007739293E+02  0.90000000651E+02 0.  0.
        -12    1    1    2    0    0 -0.79150119567E+00 -0.16296596248E+00 -0.86022281404E+00  0.11802607074E+01  0.00000000000E+00 0.  1.
         11    1    3    3    0    0 -0.27178801518E+02  0.54057988830E+01  0.29027274688E+02  0.40130943044E+02  0.51100000000E-03 0. -1.
        -11    1    3    3    0    0  0.67655021955E+01 -0.16737926437E+01  0.62058721208E+01  0.93320121524E+01  0.51100000000E-03 0.  1.
        -12    1    3    3    0    0  0.21204800518E+02 -0.35690402768E+01 -0.34372923995E+02  0.40544784097E+02  0.00000000000E+00 0.  1.
</event>
<event>
 7    1  0.4195243E-015  0.9000775E+02  0.7816164E-02  0.1186339E+00
        -11   -1    0    0    0    0  0.00000000000E+00  0.00000000000E+00  0.45593999997E+02  0.45594000000E+02  0.51100000000E-03 0. -1.
         11   -1    0    0    0    0 -0.00000000000E+00 -0.00000000000E+00 -0.45593999997E+02  0.45594000000E+02  0.51100000000E-03 0.  1.
    9900012    2    1    2    0    0  0.69169642967E+00  0.87168624364E+00 -0.39334043392E+00  0.90007746826E+02  0.90000008284E+02 0.  0.
        -12    1    1    2    0    0 -0.69169642967E+00 -0.87168624364E+00  0.39334043392E+00  0.11802531742E+01  0.00000000000E+00 0.  1.
         11    1    3    3    0    0 -0.82392761906E+00 -0.41052026461E+01  0.10010242275E+02  0.10850644965E+02  0.51100000000E-03 0. -1.
        -11    1    3    3    0    0  0.10462483118E+02  0.40502899939E+02 -0.58792634688E+01  0.42243510693E+02  0.51100000000E-03 0.  1.
         12    1    3    3    0    0 -0.89468590695E+01 -0.35526011049E+02 -0.45243192405E+01  0.36913591168E+02  0.00000000000E+00 0. -1.
</event>
<event>
 7    1  0.4195243E-015  0.9000783E+02  0.7816164E-02  0.1186339E+00
        -11   -1    0    0    0    0  0.00000000000E+00  0.00000000000E+00  0.45593999997E+02  0.45594000000E+02  0.51100000000E-03 0.  1.
         11   -1    0    0    0    0 -0.00000000000E+00 -0.00000000000E+00 -0.45593999997E+02  0.45594000000E+02  0.51100000000E-03 0. -1.
    9900012    2    1    2    0    0 -0.93756494277E+00  0.77296514110E-02 -0.71673342800E+00  0.90007832819E+02  0.90000095412E+02 0.  0.
        -12    1    1    2    0    0  0.93756494277E+00 -0.77296514110E-02  0.71673342800E+00  0.11801671815E+01  0.00000000000E+00 0.  1.
         11    1    3    3    0    0 -0.40121275790E+01 -0.14302398563E+01 -0.33693285161E+02  0.33961451956E+02  0.51100000000E-03 0. -1.
        -11    1    3    3    0    0  0.34862887471E+01  0.10908691432E+02 -0.80115340298E+01  0.13976352734E+02  0.51100000000E-03 0.  1.
        -12    1    3    3    0    0 -0.41172611088E+00 -0.94707219240E+01  0.40988085763E+02  0.42070028128E+02  0.00000000000E+00 0.  1.
</event>
<event>
 7    1  0.4195243E-015  0.9000784E+02  0.7816164E-02  0.1186339E+00
        -11   -1    0    0    0    0  0.00000000000E+00  0.00000000000E+00  0.45593999997E+02  0.45594000000E+02  0.51100000000E-03 0. -1.
         11   -1    0    0    0    0 -0.00000000000E+00 -0.00000000000E+00 -0.45593999997E+02  0.45594000000E+02  0.51100000000E-03 0.  1.
    9900012    2    1    2    0    0  0.75278179834E+00 -0.87075202269E+00 -0.26057584603E+00  0.90007835057E+02  0.90000097680E+02 0.  0.
        -12    1    1    2    0    0 -0.75278179834E+00  0.87075202269E+00  0.26057584603E+00  0.11801649429E+01  0.00000000000E+00 0.  1.
         11    1    3    3    0    0  0.30760983699E+00 -0.16190420087E+02 -0.20241448269E+01  0.16319359330E+02  0.51100000000E-03 0. -1.
        -11    1    3    3    0    0 -0.24356930546E+02 -0.53678715293E+01  0.23891406558E+02  0.34537999624E+02  0.51100000000E-03 0.  1.
         12    1    3    3    0    0  0.24802102508E+02  0.20687539594E+02 -0.22127837578E+02  0.39150476103E+02  0.00000000000E+00 0. -1.
</event>
<event>
 7    1  0.4195243E-015  0.9000778E+02  0.7816164E-02  0.1186339E+00
        -11   -1    0    0    0    0  0.00000000000E+00  0.00000000000E+00  0.45593999997E+02  0.45594000000E+02  0.51100000000E-03 0. -1.
         11   -1    0    0    0    0 -0.00000000000E+00 -0.00000000000E+00 -0.45593999997E+02  0.45594000000E+02  0.51100000000E-03 0.  1.
    9900012    2    1    2    0    0 -0.18804982564E+00  0.81638124386E+00  0.83131085191E+00  0.90007780188E+02  0.90000042086E+02 0.  0.
        -12    1    1    2    0    0  0.18804982564E+00 -0.81638124386E+00 -0.83131085191E+00  0.11802198121E+01  0.00000000000E+00 0.  1.
         11    1    3    3    0    0 -0.10316917573E+01  0.14942572530E+02  0.87600806520E+01  0.17351768641E+02  0.51100000000E-03 0. -1.
        -11    1    3    3    0    0 -0.26963633550E+02  0.39988140806E+01  0.16118744152E+02  0.31667680079E+02  0.51100000000E-03 0.  1.
         12    1    3    3    0    0  0.27807275482E+02 -0.18125005366E+02 -0.24047513952E+02  0.40988331468E+02  0.00000000000E+00 0. -1.
</event>
<event>
 7    1  0.4195243E-015  0.9000753E+02  0.7816164E-02  0.1186339E+00
        -11   -1    0    0    0    0  0.00000000000E+00  0.00000000000E+00  0.45593999997E+02  0.45594000000E+02  0.51100000000E-03 0. -1.
         11   -1    0    0    0    0 -0.00000000000E+00 -0.00000000000E+00 -0.45593999997E+02  0.45594000000E+02  0.51100000000E-03 0.  1.
    9900012    2    1    2    0    0  0.46045983632E+00  0.20815429879E+00  0.10668452049E+01  0.90007529685E+02  0.89999788277E+02 0.  0.
        -12    1    1    2    0    0 -0.46045983632E+00 -0.20815429879E+00 -0.10668452049E+01  0.11804703149E+01  0.00000000000E+00 0.  1.
         11    1    3    3    0    0 -0.74258285717E+01  0.65426534926E+01  0.66290539314E+01  0.11911910048E+02  0.51100000000E-03 0. -1.
        -11    1    3    3    0    0  0.32880072876E+02  0.19950834627E+02 -0.13871617114E+02  0.40884676302E+02  0.51100000000E-03 0.  1.
         12    1    3    3    0    0 -0.24993784468E+02 -0.26285333821E+02  0.83094083876E+01  0.37210943335E+02  0.00000000000E+00 0. -1.
</event>
<event>
 7    1  0.4195243E-015  0.9000779E+02  0.7816164E-02  0.1186339E+00
        -11   -1    0    0    0    0  0.00000000000E+00  0.00000000000E+00  0.45593999997E+02  0.45594000000E+02  0.51100000000E-03 0. -1.
         11   -1    0    0    0    0 -0.00000000000E+00 -0.00000000000E+00 -0.45593999997E+02  0.45594000000E+02  0.51100000000E-03 0.  1.
    9900012    2    1    2    0    0  0.26717235308E+00  0.48590900407E+00 -0.10418242173E+01  0.90007793948E+02  0.90000056028E+02 0.  0.
        -12    1    1    2    0    0 -0.26717235308E+00 -0.48590900407E+00  0.10418242173E+01  0.11802060525E+01  0.00000000000E+00 0.  1.
         11    1    3    3    0    0 -0.10311704479E+01 -0.33742622173E+02  0.16126326327E+02  0.37412381168E+02  0.51100000000E-03 0. -1.
        -11    1    3    3    0    0  0.24802801211E+01 -0.72967036429E+01 -0.16543216323E+00  0.77085044979E+01  0.51100000000E-03 0.  1.
        -12    1    3    3    0    0 -0.11819373201E+01  0.41525234820E+02 -0.17002718381E+02  0.44886908281E+02  0.00000000000E+00 0.  1.
</event>
<event>
 7    1  0.4195243E-015  0.9000774E+02  0.7816164E-02  0.1186339E+00
        -11   -1    0    0    0    0  0.00000000000E+00  0.00000000000E+00  0.45593999997E+02  0.45594000000E+02  0.51100000000E-03 0.  1.
         11   -1    0    0    0    0 -0.00000000000E+00 -0.00000000000E+00 -0.45593999997E+02  0.45594000000E+02  0.51100000000E-03 0. -1.
    9900012    2    1    2    0    0  0.33979384816E+00  0.86122027468E+00 -0.73201912055E+00  0.90007740616E+02  0.90000001992E+02 0.  0.
        -12    1    1    2    0    0 -0.33979384816E+00 -0.86122027468E+00  0.73201912055E+00  0.11802593840E+01  0.00000000000E+00 0.  1.
         11    1    3    3    0    0 -0.68242604908E+01 -0.15167221938E+02 -0.32687106587E+02  0.36675088137E+02  0.51100000000E-03 0. -1.
        -11    1    3    3    0    0  0.84707298282E+01 -0.76148125978E+01 -0.23680742145E+01  0.11633847621E+02  0.51100000000E-03 0.  1.
        -12    1    3    3    0    0 -0.13066754893E+01  0.23643254811E+02  0.34323161680E+02  0.41698804858E+02  0.00000000000E+00 0.  1.
</event>
<event>
 7    1  0.4678026E-015  0.9000772E+02  0.7816164E-02  0.1186339E+00
        -11   -1    0    0    0    0  0.00000000000E+00  0.00000000000E+00  0.45593999997E+02  0.45594000000E+02  0.51100000000E-03 0. -1.
         11   -1    0    0    0    0 -0.00000000000E+00 -0.00000000000E+00 -0.45593999997E+02  0.45594000000E+02  0.51100000000E-03 0.  1.
    9900012    2    1    2    0    0 -0.34480924157E+00 -0.11069104156E+01  0.22116028879E+00  0.90007722086E+02  0.89999983217E+02 0.  0.
        -12    1    1    2    0    0  0.34480924157E+00  0.11069104156E+01 -0.22116028879E+00  0.11802779141E+01  0.00000000000E+00 0.  1.
         11    1    3    3    0    0  0.10651944880E+02 -0.18426004196E+02  0.29915355299E+02  0.36713894418E+02  0.51100000000E-03 0. -1.
        -11    1    3    3    0    0 -0.41524807502E+01 -0.40204211645E+01  0.77426107686E+01  0.96620341800E+01  0.51100000000E-03 0.  1.
        -12    1    3    3    0    0 -0.68442733718E+01  0.21339514945E+02 -0.37436805779E+02  0.43631793488E+02  0.00000000000E+00 0.  1.
</event>
<event>
 7    1  0.4195243E-015  0.9000739E+02  0.7816164E-02  0.1186340E+00
        -11   -1    0    0    0    0  0.00000000000E+00  0.00000000000E+00  0.45593999997E+02  0.45594000000E+02  0.51100000000E-03 0. -1.
         11   -1    0    0    0    0 -0.00000000000E+00 -0.00000000000E+00 -0.45593999997E+02  0.45594000000E+02  0.51100000000E-03 0.  1.
    9900012    2    1    2    0    0 -0.10729226042E+01 -0.48978928177E+00  0.52669386163E-01  0.90007394003E+02  0.89999650804E+02 0.  0.
        -12    1    1    2    0    0  0.10729226042E+01  0.48978928177E+00 -0.52669386163E-01  0.11806059966E+01  0.00000000000E+00 0.  1.
         11    1    3    3    0    0 -0.16974530407E+01 -0.12071839558E+01  0.76139003570E+01  0.78936758760E+01  0.51100000000E-03 0. -1.
        -11    1    3    3    0    0 -0.10344451750E+02  0.39553692197E+02  0.84109110799E+00  0.40892660502E+02  0.51100000000E-03 0.  1.
         12    1    3    3    0    0  0.10968982186E+02 -0.38836297523E+02 -0.84023220788E+01  0.41221057626E+02  0.00000000000E+00 0. -1.
</event>
<event>
 7    1  0.4195243E-015  0.9000804E+02  0.7816164E-02  0.1186338E+00
        -11   -1    0    0    0    0  0.00000000000E+00  0.00000000000E+00  0.45593999997E+02  0.45594000000E+02  0.51100000000E-03 0. -1.
         11   -1    0    0    0    0 -0.00000000000E+00 -0.00000000000E+00 -0.45593999997E+02  0.45594000000E+02  0.51100000000E-03 0.  1.
    9900012    2    1    2    0    0 -0.35234242798E+00  0.79219871021E+00  0.80036161914E+00  0.90008041228E+02  0.90000306571E+02 0.  0.
        -12    1    1    2    0    0  0.35234242798E+00 -0.79219871021E+00 -0.80036161914E+00  0.11799587723E+01  0.00000000000E+00 0.  1.
         11    1    3    3    0    0  0.40304181935E+01  0.70661263086E+01 -0.60493491618E+01  0.10137506467E+02  0.51100000000E-03 0. -1.
        -11    1    3    3    0    0  0.19565902279E+02 -0.27859538423E+02 -0.18601716903E+02  0.38794358934E+02  0.51100000000E-03 0.  1.
         12    1    3    3    0    0 -0.23948662900E+02  0.21585610825E+02  0.25451427684E+02  0.41076175826E+02  0.00000000000E+00 0. -1.
</event>
<event>
 7    1  0.4195243E-015  0.9000767E+02  0.7816164E-02  0.1186339E+00
        -11   -1    0    0    0    0  0.00000000000E+00  0.00000000000E+00  0.45593999997E+02  0.45594000000E+02  0.51100000000E-03 0.  1.
         11   -1    0    0    0    0 -0.00000000000E+00 -0.00000000000E+00 -0.45593999997E+02  0.45594000000E+02  0.51100000000E-03 0. -1.
    9900012    2    1    2    0    0 -0.71705354922E-01  0.70475382467E+00 -0.94412020856E+00  0.90007668445E+02  0.89999928869E+02 0.  0.
        -12    1    1    2    0    0  0.71705354922E-01 -0.70475382467E+00  0.94412020856E+00  0.11803315549E+01  0.00000000000E+00 0.  1.
         11    1    3    3    0    0  0.37851985145E+01  0.30729974146E+02 -0.26688073847E+02  0.40876794452E+02  0.51100000000E-03 0. -1.
        -11    1    3    3    0    0  0.10152582084E+02 -0.25904271478E+01  0.31917662038E+01  0.10953200790E+02  0.51100000000E-03 0.  1.
        -12    1    3    3    0    0 -0.14009485954E+02 -0.27434793173E+02  0.22552187434E+02  0.38177673203E+02  0.00000000000E+00 0.  1.
</event>
<event>
 7    1  0.4195243E-015  0.9000764E+02  0.7816164E-02  0.1186339E+00
        -11   -1    0    0    0    0  0.00000000000E+00  0.00000000000E+00  0.45593999997E+02  0.45594000000E+02  0.51100000000E-03 0.  1.
         11   -1    0    0    0    0 -0.00000000000E+00 -0.00000000000E+00 -0.45593999997E+02  0.45594000000E+02  0.51100000000E-03 0. -1.
    9900012    2    1    2    0    0 -0.10995580572E+01 -0.29131503396E+00 -0.31522287024E+00  0.90007636570E+02  0.89999896572E+02 0.  0.
        -12    1    1    2    0    0  0.10995580572E+01  0.29131503396E+00  0.31522287024E+00  0.11803634305E+01  0.00000000000E+00 0.  1.
         11    1    3    3    0    0 -0.77660771812E+01 -0.65481038712E+01 -0.48754444106E+01  0.11267634071E+02  0.51100000000E-03 0. -1.
        -11    1    3    3    0    0  0.13060463911E+02 -0.28839162651E+02 -0.18109912064E+02  0.36472481890E+02  0.51100000000E-03 0.  1.
         12    1    3    3    0    0 -0.63939447867E+01  0.35095951488E+02  0.22670133604E+02  0.42267520609E+02  0.00000000000E+00 0. -1.
</event>
<event>
 7    1  0.4195243E-015  0.9000769E+02  0.7816164E-02  0.1186339E+00
        -11   -1    0    0    0    0  0.00000000000E+00  0.00000000000E+00  0.45593999997E+02  0.45594000000E+02  0.51100000000E-03 0.  1.
         11   -1    0    0    0    0 -0.00000000000E+00 -0.00000000000E+00 -0.45593999997E+02  0.45594000000E+02  0.51100000000E-03 0. -1.
    9900012    2    1    2    0    0  0.11661471675E+01 -0.17515415395E+00  0.50479654354E-01  0.90007692248E+02  0.89999952986E+02 0.  0.
        -12    1    1    2    0    0 -0.11661471675E+01  0.17515415395E+00 -0.50479654354E-01  0.11803077520E+01  0.00000000000E+00 0.  1.
         11    1    3    3    0    0  0.16109862057E+02  0.24519676621E+02 -0.26374327279E+02  0.39450568270E+02  0.51100000000E-03 0. -1.
        -11    1    3    3    0    0 -0.70248991822E+01  0.13936899147E+01 -0.51642755465E+01  0.88295709001E+01  0.51100000000E-03 0.  1.
        -12    1    3    3    0    0 -0.79188157078E+01 -0.26088520690E+02  0.31589082480E+02  0.41727553078E+02  0.00000000000E+00 0.  1.
</event>
<event>
 7    1  0.4195243E-015  0.9000835E+02  0.7816164E-02  0.1186338E+00
        -11   -1    0    0    0    0  0.00000000000E+00  0.00000000000E+00  0.45593999997E+02  0.45594000000E+02  0.51100000000E-03 0. -1.
         11   -1    0    0    0    0 -0.00000000000E+00 -0.00000000000E+00 -0.45593999997E+02  0.45594000000E+02  0.51100000000E-03 0.  1.
    9900012    2    1    2    0    0 -0.32919836231E+00 -0.54633094324E+00  0.99232809865E+00  0.90008354241E+02  0.90000623715E+02 0.  0.
        -12    1    1    2    0    0  0.32919836231E+00  0.54633094324E+00 -0.99232809865E+00  0.11796457590E+01  0.00000000000E+00 0.  1.
         11    1    3    3    0    0  0.30427955741E+02 -0.18317809677E+02 -0.47501375726E+01  0.35832477575E+02  0.51100000000E-03 0. -1.
        -11    1    3    3    0    0 -0.28795793021E+01 -0.12409699286E+02  0.23053159454E+01  0.12946315892E+02  0.51100000000E-03 0.  1.
         12    1    3    3    0    0 -0.27877574801E+02  0.30181178019E+02  0.34371497258E+01  0.41229560774E+02  0.00000000000E+00 0. -1.
</event>
<event>
 7    1  0.4195243E-015  0.9000775E+02  0.7816164E-02  0.1186339E+00
        -11   -1    0    0    0    0  0.00000000000E+00  0.00000000000E+00  0.45593999997E+02  0.45594000000E+02  0.51100000000E-03 0. -1.
         11   -1    0    0    0    0 -0.00000000000E+00 -0.00000000000E+00 -0.45593999997E+02  0.45594000000E+02  0.51100000000E-03 0.  1.
    9900012    2    1    2    0    0 -0.34660764963E+00 -0.54047328317E-01  0.11269087486E+01  0.90007753710E+02  0.90000015259E+02 0.  0.
        -12    1    1    2    0    0  0.34660764963E+00  0.54047328317E-01 -0.11269087486E+01  0.11802462896E+01  0.00000000000E+00 0.  1.
         11    1    3    3    0    0  0.27762984846E+02  0.16293054853E+01  0.21320220253E+02  0.35042684769E+02  0.51100000000E-03 0. -1.
        -11    1    3    3    0    0  0.61919011878E+01  0.12535163373E+02 -0.59750323769E+01  0.15204307721E+02  0.51100000000E-03 0.  1.
        -12    1    3    3    0    0 -0.34301493683E+02 -0.14218516187E+02 -0.14218279128E+02  0.39760761220E+02  0.00000000000E+00 0.  1.
</event>
<event>
 7    1  0.4195243E-015  0.9000778E+02  0.7816164E-02  0.1186339E+00
        -11   -1    0    0    0    0  0.00000000000E+00  0.00000000000E+00  0.45593999997E+02  0.45594000000E+02  0.51100000000E-03 0. -1.
         11   -1    0    0    0    0 -0.00000000000E+00 -0.00000000000E+00 -0.45593999997E+02  0.45594000000E+02  0.51100000000E-03 0.  1.
    9900012    2    1    2    0    0 -0.57633792671E+00 -0.89035948569E+00 -0.51769456902E+00  0.90007782611E+02  0.90000044541E+02 0.  0.
        -12    1    1    2    0    0  0.57633792671E+00  0.89035948569E+00  0.51769456902E+00  0.11802173894E+01  0.00000000000E+00 0.  1.
         11    1    3    3    0    0  0.96782587569E+01  0.39301043754E+00  0.21241118503E+01  0.99164006163E+01  0.51100000000E-03 0. -1.
        -11    1    3    3    0    0 -0.39354411255E+02  0.15211955002E+02 -0.14481209132E+02  0.44608056205E+02  0.51100000000E-03 0.  1.
         12    1    3    3    0    0  0.29099814571E+02 -0.16495324926E+02  0.11839402712E+02  0.35483325789E+02  0.00000000000E+00 0. -1.
</event>
<event>
 7    1  0.4195243E-015  0.9000763E+02  0.7816164E-02  0.1186339E+00
        -11   -1    0    0    0    0  0.00000000000E+00  0.00000000000E+00  0.45593999997E+02  0.45594000000E+02  0.51100000000E-03 0.  1.
         11   -1    0    0    0    0 -0.00000000000E+00 -0.00000000000E+00 -0.45593999997E+02  0.45594000000E+02  0.51100000000E-03 0. -1.
    9900012    2    1    2    0    0  0.87242866977E+00 -0.31200875381E+00  0.73129199139E+00  0.90007631743E+02  0.89999891682E+02 0.  0.
        -12    1    1    2    0    0 -0.87242866977E+00  0.31200875381E+00 -0.73129199139E+00  0.11803682574E+01  0.00000000000E+00 0.  1.
         11    1    3    3    0    0 -0.33223496310E+02 -0.18832143652E+02  0.13585379433E+02  0.40534095230E+02  0.51100000000E-03 0. -1.
        -11    1    3    3    0    0  0.20580934742E+01 -0.33727169468E-01  0.71164962643E+01  0.74081985403E+01  0.51100000000E-03 0.  1.
        -12    1    3    3    0    0  0.32037831505E+02  0.18553862067E+02 -0.19970583706E+02  0.42065337972E+02  0.00000000000E+00 0.  1.
</event>
<event>
 7    1  0.4195243E-015  0.9000777E+02  0.7816164E-02  0.1186339E+00
        -11   -1    0    0    0    0  0.00000000000E+00  0.00000000000E+00  0.45593999997E+02  0.45594000000E+02  0.51100000000E-03 0.  1.
         11   -1    0    0    0    0 -0.00000000000E+00 -0.00000000000E+00 -0.45593999997E+02  0.45594000000E+02  0.51100000000E-03 0. -1.
    9900012    2    1    2    0    0  0.10582086396E+01  0.45782354698E+00  0.25205247195E+00  0.90007771898E+02  0.90000033687E+02 0.  0.
        -12    1    1    2    0    0 -0.10582086396E+01 -0.45782354698E+00 -0.25205247195E+00  0.11802281024E+01  0.00000000000E+00 0.  1.
         11    1    3    3    0    0  0.20772577277E+02  0.27961954275E+02 -0.21763353886E+02  0.41073281172E+02  0.51100000000E-03 0. -1.
        -11    1    3    3    0    0 -0.67106948176E+01 -0.81257594632E+01 -0.62714645458E+01  0.12263468498E+02  0.51100000000E-03 0.  1.
        -12    1    3    3    0    0 -0.13003673820E+02 -0.19378371265E+02  0.28286870904E+02  0.36671022228E+02  0.00000000000E+00 0.  1.
</event>
<event>
 7    1  0.4195243E-015  0.9000761E+02  0.7816164E-02  0.1186339E+00
        -11   -1    0    0    0    0  0.00000000000E+00  0.00000000000E+00  0.45593999997E+02  0.45594000000E+02  0.51100000000E-03 0.  1.
         11   -1    0    0    0    0 -0.00000000000E+00 -0.00000000000E+00 -0.45593999997E+02  0.45594000000E+02  0.51100000000E-03 0. -1.
    9900012    2    1    2    0    0  0.57959028823E+00  0.15628512396E+00 -0.10163479669E+01  0.90007613143E+02  0.89999872836E+02 0.  0.
        -12    1    1    2    0    0 -0.57959028823E+00 -0.15628512396E+00  0.10163479669E+01  0.11803868569E+01  0.00000000000E+00 0.  1.
         11    1    3    3    0    0  0.20053299455E+02 -0.11566147813E+02  0.13970358325E+02  0.27038518936E+02  0.51100000000E-03 0. -1.
        -11    1    3    3    0    0  0.18522076308E+02  0.13547050999E+02 -0.79397859324E+01  0.24282300188E+02  0.51100000000E-03 0.  1.
        -12    1    3    3    0    0 -0.37995785475E+02 -0.18246180621E+01 -0.70469203597E+01  0.38686794019E+02  0.00000000000E+00 0.  1.
</event>
<event>
 7    1  0.4195243E-015  0.9000782E+02  0.7816164E-02  0.1186339E+00
        -11   -1    0    0    0    0  0.00000000000E+00  0.00000000000E+00  0.45593999997E+02  0.45594000000E+02  0.51100000000E-03 0. -1.
         11   -1    0    0    0    0 -0.00000000000E+00 -0.00000000000E+00 -0.45593999997E+02  0.45594000000E+02  0.51100000000E-03 0.  1.
    9900012    2    1    2    0    0  0.42180517887E+00  0.11014493045E+01  0.41423046803E-01  0.90007819485E+02  0.90000081902E+02 0.  0.
        -12    1    1    2    0    0 -0.42180517887E+00 -0.11014493045E+01 -0.41423046803E-01  0.11801805151E+01  0.00000000000E+00 0.  1.
         11    1    3    3    0    0 -0.36627673779E+02 -0.44357822842E+01 -0.10435316651E+02  0.38342645772E+02  0.51100000000E-03 0. -1.
        -11    1    3    3    0    0  0.11385008830E+01  0.33910398000E+01 -0.97558412145E+01  0.10390946696E+02  0.51100000000E-03 0.  1.
        -12    1    3    3    0    0  0.35910978075E+02  0.21461917887E+01  0.20232580912E+02  0.41274227017E+02  0.00000000000E+00 0.  1.
</event>
<event>
 7    1  0.4195243E-015  0.9000755E+02  0.7816164E-02  0.1186339E+00
        -11   -1    0    0    0    0  0.00000000000E+00  0.00000000000E+00  0.45593999997E+02  0.45594000000E+02  0.51100000000E-03 0.  1.
         11   -1    0    0    0    0 -0.00000000000E+00 -0.00000000000E+00 -0.45593999997E+02  0.45594000000E+02  0.51100000000E-03 0. -1.
    9900012    2    1    2    0    0  0.48441631347E-02  0.36146470510E+00 -0.11237373906E+01  0.90007548425E+02  0.89999807264E+02 0.  0.
        -12    1    1    2    0    0 -0.48441631347E-02 -0.36146470510E+00  0.11237373906E+01  0.11804515754E+01  0.00000000000E+00 0.  1.
         11    1    3    3    0    0 -0.20776154150E+02 -0.27811463035E+02 -0.17325528524E+02  0.38798195787E+02  0.51100000000E-03 0. -1.
        -11    1    3    3    0    0 -0.81691841478E+01  0.45362866574E+01 -0.21267947416E+01  0.95831478342E+01  0.51100000000E-03 0.  1.
        -12    1    3    3    0    0  0.28950182460E+02  0.23636641083E+02  0.18328585875E+02  0.41626204804E+02  0.00000000000E+00 0.  1.
</event>
<event>
 7    1  0.4195243E-015  0.9000732E+02  0.7816164E-02  0.1186340E+00
        -11   -1    0    0    0    0  0.00000000000E+00  0.00000000000E+00  0.45593999997E+02  0.45594000000E+02  0.51100000000E-03 0.  1.
         11   -1    0    0    0    0 -0.00000000000E+00 -0.00000000000E+00 -0.45593999997E+02  0.45594000000E+02  0.51100000000E-03 0. -1.
    9900012    2    1    2    0    0  0.10673003806E+01 -0.50313704642E-01 -0.50233415206E+00  0.90007321732E+02  0.89999577578E+02 0.  0.
        -12    1    1    2    0    0 -0.10673003806E+01  0.50313704642E-01  0.50233415206E+00  0.11806782677E+01  0.00000000000E+00 0.  1.
         11    1    3    3    0    0 -0.30292290345E+02  0.26632858353E+02 -0.38568255931E+01  0.40519218925E+02  0.51100000000E-03 0. -1.
        -11    1    3    3    0    0  0.93243476478E+01  0.47634486492E+01  0.36498006111E+01  0.11088505168E+02  0.51100000000E-03 0.  1.
        -12    1    3    3    0    0  0.22035243078E+02 -0.31446620707E+02 -0.29530917003E+00  0.38399597640E+02  0.00000000000E+00 0.  1.
</event>
<event>
 7    1  0.4599203E-015  0.9000769E+02  0.7816164E-02  0.1186339E+00
        -11   -1    0    0    0    0  0.00000000000E+00  0.00000000000E+00  0.45593999997E+02  0.45594000000E+02  0.51100000000E-03 0.  1.
         11   -1    0    0    0    0 -0.00000000000E+00 -0.00000000000E+00 -0.45593999997E+02  0.45594000000E+02  0.51100000000E-03 0. -1.
    9900012    2    1    2    0    0  0.12323078655E+00 -0.79387138580E+00 -0.86470929785E+00  0.90007686578E+02  0.89999947241E+02 0.  0.
        -12    1    1    2    0    0 -0.12323078655E+00  0.79387138580E+00  0.86470929785E+00  0.11803134218E+01  0.00000000000E+00 0.  1.
         11    1    3    3    0    0  0.17831089438E+01 -0.17842036101E+02 -0.31191390076E+02  0.35978056436E+02  0.51100000000E-03 0. -1.
        -11    1    3    3    0    0  0.36560075256E+01 -0.70286858271E+01 -0.61303535431E+01  0.10017487225E+02  0.51100000000E-03 0.  1.
        -12    1    3    3    0    0 -0.53158856829E+01  0.24076850543E+02  0.36457034321E+02  0.44012142917E+02  0.00000000000E+00 0.  1.
</event>
<event>
 7    1  0.4195243E-015  0.9000771E+02  0.7816164E-02  0.1186339E+00
        -11   -1    0    0    0    0  0.00000000000E+00  0.00000000000E+00  0.45593999997E+02  0.45594000000E+02  0.51100000000E-03 0.  1.
         11   -1    0    0    0    0 -0.00000000000E+00 -0.00000000000E+00 -0.45593999997E+02  0.45594000000E+02  0.51100000000E-03 0. -1.
    9900012    2    1    2    0    0 -0.53323459676E+00  0.80089844828E+00 -0.68359120521E+00  0.90007714274E+02  0.89999975302E+02 0.  0.
        -12    1    1    2    0    0  0.53323459676E+00 -0.80089844828E+00  0.68359120521E+00  0.11802857262E+01  0.00000000000E+00 0.  1.
         11    1    3    3    0    0  0.40542573882E+01 -0.17614612255E+01  0.64043104829E+01  0.77817055740E+01  0.51100000000E-03 0. -1.
        -11    1    3    3    0    0  0.11469559061E+02  0.31395933271E+02  0.20499916414E+02  0.39210993155E+02  0.51100000000E-03 0.  1.
         12    1    3    3    0    0 -0.16057051046E+02 -0.28833573597E+02 -0.27587818102E+02  0.43015015544E+02  0.00000000000E+00 0. -1.
</event>
<event>
 7    1  0.4195243E-015  0.9000647E+02  0.7816164E-02  0.1186342E+00
        -11   -1    0    0    0    0  0.00000000000E+00  0.00000000000E+00  0.45593999997E+02  0.45594000000E+02  0.51100000000E-03 0.  1.
         11   -1    0    0    0    0 -0.00000000000E+00 -0.00000000000E+00 -0.45593999997E+02  0.45594000000E+02  0.51100000000E-03 0. -1.
    9900012    2    1    2    0    0 -0.10970607065E+01  0.35619995083E+00  0.25611079474E+00  0.90006469917E+02  0.89998714510E+02 0.  0.
        -12    1    1    2    0    0  0.10970607065E+01 -0.35619995083E+00 -0.25611079474E+00  0.11815300834E+01  0.00000000000E+00 0.  1.
         11    1    3    3    0    0  0.65425529734E+01 -0.35633775872E+02  0.97124704477E+01  0.37508706520E+02  0.51100000000E-03 0. -1.
        -11    1    3    3    0    0  0.90248562550E+01 -0.27550486688E+01 -0.23791365874E+01  0.97313213262E+01  0.51100000000E-03 0.  1.
        -12    1    3    3    0    0 -0.16664469935E+02  0.38745024492E+02 -0.70772230655E+01  0.42766442071E+02  0.00000000000E+00 0.  1.
</event>
<event>
 7    1  0.4195243E-015  0.9000744E+02  0.7816164E-02  0.1186340E+00
        -11   -1    0    0    0    0  0.00000000000E+00  0.00000000000E+00  0.45593999997E+02  0.45594000000E+02  0.51100000000E-03 0.  1.
         11   -1    0    0    0    0 -0.00000000000E+00 -0.00000000000E+00 -0.45593999997E+02  0.45594000000E+02  0.51100000000E-03 0. -1.
    9900012    2    1    2    0    0  0.64420293225E+00  0.37686716985E+00 -0.91471595078E+00  0.90007435918E+02  0.89999693271E+02 0.  0.
        -12    1    1    2    0    0 -0.64420293225E+00 -0.37686716985E+00  0.91471595078E+00  0.11805640822E+01  0.00000000000E+00 0.  1.
         11    1    3    3    0    0  0.14789419239E+02 -0.12905822070E+02 -0.31582420194E+01  0.19881188537E+02  0.51100000000E-03 0. -1.
        -11    1    3    3    0    0 -0.73203234001E+01 -0.59164960068E+01  0.32395364927E+02  0.33735022287E+02  0.51100000000E-03 0.  1.
         12    1    3    3    0    0 -0.68248929070E+01  0.19199185246E+02 -0.30151838858E+02  0.36391225094E+02  0.00000000000E+00 0. -1.
</event>
<event>
 7    1  0.4195243E-015  0.9000770E+02  0.7816164E-02  0.1186339E+00
        -11   -1    0    0    0    0  0.00000000000E+00  0.00000000000E+00  0.45593999997E+02  0.45594000000E+02  0.51100000000E-03 0.  1.
         11   -1    0    0    0    0 -0.00000000000E+00 -0.00000000000E+00 -0.45593999997E+02  0.45594000000E+02  0.51100000000E-03 0. -1.
    9900012    2    1    2    0    0  0.11800501303E+01  0.13687109548E-01  0.20120566643E-01  0.90007698986E+02  0.89999959812E+02 0.  0.
        -12    1    1    2    0    0 -0.11800501303E+01 -0.13687109548E-01 -0.20120566643E-01  0.11803010142E+01  0.00000000000E+00 0.  1.
         11    1    3    3    0    0  0.22250108186E+02 -0.34364133758E+02  0.64564001671E+01  0.41444494286E+02  0.51100000000E-03 0. -1.
        -11    1    3    3    0    0 -0.23434185098E+00  0.58744178385E+00 -0.87738568539E+01  0.87966225511E+01  0.51100000000E-03 0.  1.
        -12    1    3    3    0    0 -0.20835716205E+02  0.33790379084E+02  0.23375772534E+01  0.39766582149E+02  0.00000000000E+00 0.  1.
</event>
<event>
 7    1  0.4195243E-015  0.9000758E+02  0.7816164E-02  0.1186339E+00
        -11   -1    0    0    0    0  0.00000000000E+00  0.00000000000E+00  0.45593999997E+02  0.45594000000E+02  0.51100000000E-03 0.  1.
         11   -1    0    0    0    0 -0.00000000000E+00 -0.00000000000E+00 -0.45593999997E+02  0.45594000000E+02  0.51100000000E-03 0. -1.
    9900012    2    1    2    0    0  0.54713186294E+00 -0.16817589295E+00 -0.10323496911E+01  0.90007583848E+02  0.89999843155E+02 0.  0.
        -12    1    1    2    0    0 -0.54713186294E+00  0.16817589295E+00  0.10323496911E+01  0.11804161516E+01  0.00000000000E+00 0.  1.
         11    1    3    3    0    0 -0.65113814326E+01  0.27534030394E+02 -0.25446296786E+02  0.38053054257E+02  0.51100000000E-03 0. -1.
        -11    1    3    3    0    0  0.42884148438E+01  0.24964850189E+01 -0.68111711223E+01  0.84270393164E+01  0.51100000000E-03 0.  1.
        -12    1    3    3    0    0  0.27700984518E+01 -0.30198691305E+02  0.31225118217E+02  0.43527490275E+02  0.00000000000E+00 0.  1.
</event>
<event>
 7    1  0.4195243E-015  0.9000777E+02  0.7816164E-02  0.1186339E+00
        -11   -1    0    0    0    0  0.00000000000E+00  0.00000000000E+00  0.45593999997E+02  0.45594000000E+02  0.51100000000E-03 0.  1.
         11   -1    0    0    0    0 -0.00000000000E+00 -0.00000000000E+00 -0.45593999997E+02  0.45594000000E+02  0.51100000000E-03 0. -1.
    9900012    2    1    2    0    0 -0.45300015037E+00 -0.10881930969E+01 -0.59647183220E-01  0.90007774963E+02  0.90000036792E+02 0.  0.
        -12    1    1    2    0    0  0.45300015037E+00  0.10881930969E+01  0.59647183220E-01  0.11802250373E+01  0.00000000000E+00 0.  1.
         11    1    3    3    0    0 -0.20805579239E+02  0.25259461653E+02  0.11994504901E+02  0.34853703943E+02  0.51100000000E-03 0. -1.
        -11    1    3    3    0    0 -0.90918799744E+01  0.23635159194E+00  0.66786901677E+01  0.11283751422E+02  0.51100000000E-03 0.  1.
        -12    1    3    3    0    0  0.29444459063E+02 -0.26584006342E+02 -0.18732842252E+02  0.43870319597E+02  0.00000000000E+00 0.  1.
</event>
<event>
 7    1  0.4195243E-015  0.9000775E+02  0.7816164E-02  0.1186339E+00
        -11   -1    0    0    0    0  0.00000000000E+00  0.00000000000E+00  0.45593999997E+02  0.45594000000E+02  0.51100000000E-03 0.  1.
         11   -1    0    0    0    0 -0.00000000000E+00 -0.00000000000E+00 -0.45593999997E+02  0.45594000000E+02  0.51100000000E-03 0. -1.
    9900012    2    1    2    0    0 -0.14756262952E+00 -0.62678430861E+00 -0.98911730608E+00  0.90007751575E+02  0.90000013096E+02 0.  0.
        -12    1    1    2    0    0  0.14756262952E+00  0.62678430861E+00  0.98911730608E+00  0.11802484248E+01  0.00000000000E+00 0.  1.
         11    1    3    3    0    0 -0.62849254881E+01 -0.76316103266E+01 -0.11270062447E+01  0.99504727478E+01  0.51100000000E-03 0. -1.
        -11    1    3    3    0    0  0.41128618435E+02 -0.71671397952E-01  0.11300952025E+02  0.42653017573E+02  0.51100000000E-03 0.  1.
         12    1    3    3    0    0 -0.34991255576E+02  0.70764974159E+01 -0.11163063087E+02  0.37404261254E+02  0.00000000000E+00 0. -1.
</event>
<event>
 7    1  0.4195243E-015  0.9000772E+02  0.7816164E-02  0.1186339E+00
        -11   -1    0    0    0    0  0.00000000000E+00  0.00000000000E+00  0.45593999997E+02  0.45594000000E+02  0.51100000000E-03 0.  1.
         11   -1    0    0    0    0 -0.00000000000E+00 -0.00000000000E+00 -0.45593999997E+02  0.45594000000E+02  0.51100000000E-03 0. -1.
    9900012    2    1    2    0    0  0.44230596559E+00 -0.37030383873E+00 -0.10297057747E+01  0.90007723133E+02  0.89999984278E+02 0.  0.
        -12    1    1    2    0    0 -0.44230596559E+00  0.37030383873E+00  0.10297057747E+01  0.11802768670E+01  0.00000000000E+00 0.  1.
         11    1    3    3    0    0 -0.67664404491E+01  0.35260662686E+01  0.83300691123E+01  0.11296367175E+02  0.51100000000E-03 0. -1.
        -11    1    3    3    0    0 -0.14844135213E+02  0.34166166871E+01  0.29634553735E+02  0.33320089963E+02  0.51100000000E-03 0.  1.
         12    1    3    3    0    0  0.22052881628E+02 -0.73129867944E+01 -0.38994328622E+02  0.45391265995E+02  0.00000000000E+00 0. -1.
</event>
<event>
 7    1  0.4195243E-015  0.9000776E+02  0.7816164E-02  0.1186339E+00
        -11   -1    0    0    0    0  0.00000000000E+00  0.00000000000E+00  0.45593999997E+02  0.45594000000E+02  0.51100000000E-03 0.  1.
         11   -1    0    0    0    0 -0.00000000000E+00 -0.00000000000E+00 -0.45593999997E+02  0.45594000000E+02  0.51100000000E-03 0. -1.
    9900012    2    1    2    0    0 -0.33333384540E+00  0.74454449547E+00 -0.85293810990E+00  0.90007762152E+02  0.90000023813E+02 0.  0.
        -12    1    1    2    0    0  0.33333384540E+00 -0.74454449547E+00  0.85293810990E+00  0.11802378479E+01  0.00000000000E+00 0.  1.
         11    1    3    3    0    0 -0.39137013811E+02  0.80753660893E+00  0.29261197810E+01  0.39254555693E+02  0.51100000000E-03 0. -1.
        -11    1    3    3    0    0 -0.22663551435E+01 -0.26078372236E+01 -0.86525062723E+01  0.93168152109E+01  0.51100000000E-03 0.  1.
        -12    1    3    3    0    0  0.41070035109E+02  0.25448451101E+01  0.48734483814E+01  0.41436391248E+02  0.00000000000E+00 0.  1.
</event>
<event>
 7    1  0.4195243E-015  0.9000782E+02  0.7816164E-02  0.1186339E+00
        -11   -1    0    0    0    0  0.00000000000E+00  0.00000000000E+00  0.45593999997E+02  0.45594000000E+02  0.51100000000E-03 0. -1.
         11   -1    0    0    0    0 -0.00000000000E+00 -0.00000000000E+00 -0.45593999997E+02  0.45594000000E+02  0.51100000000E-03 0.  1.
    9900012    2    1    2    0    0 -0.98305790165E+00  0.46679658509E+00  0.45665534215E+00  0.90007815272E+02  0.90000077634E+02 0.  0.
        -12    1    1    2    0    0  0.98305790165E+00 -0.46679658509E+00 -0.45665534215E+00  0.11801847276E+01  0.00000000000E+00 0.  1.
         11    1    3    3    0    0  0.18739518917E+01  0.38395902181E+01 -0.82633568014E+01  0.93025380742E+01  0.51100000000E-03 0. -1.
        -11    1    3    3    0    0 -0.87999295109E+00 -0.34522318639E+02 -0.18601159146E+02  0.39224584047E+02  0.51100000000E-03 0.  1.
         12    1    3    3    0    0 -0.19770168423E+01  0.31149525006E+02  0.27321171289E+02  0.41480693151E+02  0.00000000000E+00 0. -1.
</event>
<event>
 7    1  0.4195243E-015  0.9000784E+02  0.7816164E-02  0.1186339E+00
        -11   -1    0    0    0    0  0.00000000000E+00  0.00000000000E+00  0.45593999997E+02  0.45594000000E+02  0.51100000000E-03 0. -1.
         11   -1    0    0    0    0 -0.00000000000E+00 -0.00000000000E+00 -0.45593999997E+02  0.45594000000E+02  0.51100000000E-03 0.  1.
    9900012    2    1    2    0    0 -0.57096549301E+00  0.99641601309E+00 -0.27189848174E+00  0.90007841007E+02  0.90000103708E+02 0.  0.
        -12    1    1    2    0    0  0.57096549301E+00 -0.99641601309E+00  0.27189848174E+00  0.11801589934E+01  0.00000000000E+00 0.  1.
         11    1    3    3    0    0  0.11379270181E+02 -0.25611108197E+02  0.23527075292E+02  0.36591528050E+02  0.51100000000E-03 0. -1.
        -11    1    3    3    0    0  0.68185158371E+01 -0.61957225959E+01 -0.97127543012E+00  0.92640440914E+01  0.51100000000E-03 0.  1.
        -12    1    3    3    0    0 -0.18768751511E+02  0.32803246806E+02 -0.22827698344E+02  0.44152268866E+02  0.00000000000E+00 0.  1.
</event>
<event>
 7    1  0.4195243E-015  0.9000784E+02  0.7816164E-02  0.1186339E+00
        -11   -1    0    0    0    0  0.00000000000E+00  0.00000000000E+00  0.45593999997E+02  0.45594000000E+02  0.51100000000E-03 0.  1.
         11   -1    0    0    0    0 -0.00000000000E+00 -0.00000000000E+00 -0.45593999997E+02  0.45594000000E+02  0.51100000000E-03 0. -1.
    9900012    2    1    2    0    0  0.44225986841E+00 -0.10669699320E+01  0.24242289730E+00  0.90007835822E+02  0.90000098454E+02 0.  0.
        -12    1    1    2    0    0 -0.44225986841E+00  0.10669699320E+01 -0.24242289730E+00  0.11801641785E+01  0.00000000000E+00 0.  1.
         11    1    3    3    0    0 -0.28436941921E+02 -0.10380045559E+02 -0.12571594927E+02  0.32778804294E+02  0.51100000000E-03 0. -1.
        -11    1    3    3    0    0 -0.57225625134E+01  0.15113612875E+02 -0.62169530582E+01  0.17315297325E+02  0.51100000000E-03 0.  1.
        -12    1    3    3    0    0  0.34601764303E+02 -0.58005372482E+01  0.19030970883E+02  0.39913734203E+02  0.00000000000E+00 0.  1.
</event>
<event>
 7    1  0.4195243E-015  0.9000783E+02  0.7816164E-02  0.1186339E+00
        -11   -1    0    0    0    0  0.00000000000E+00  0.00000000000E+00  0.45593999997E+02  0.45594000000E+02  0.51100000000E-03 0.  1.
         11   -1    0    0    0    0 -0.00000000000E+00 -0.00000000000E+00 -0.45593999997E+02  0.45594000000E+02  0.51100000000E-03 0. -1.
    9900012    2    1    2    0    0 -0.72505797508E+00  0.90735920847E+00  0.20927694644E+00  0.90007827707E+02  0.90000090233E+02 0.  0.
        -12    1    1    2    0    0  0.72505797508E+00 -0.90735920847E+00 -0.20927694644E+00  0.11801722928E+01  0.00000000000E+00 0.  1.
         11    1    3    3    0    0 -0.13615380893E+02 -0.50403949469E+01 -0.30327377785E+02  0.33623414783E+02  0.51100000000E-03 0. -1.
        -11    1    3    3    0    0  0.54080768033E+01 -0.48746280637E+01 -0.10788458647E+02  0.13015380659E+02  0.51100000000E-03 0.  1.
        -12    1    3    3    0    0  0.74822461145E+01  0.10822382219E+02  0.41325113379E+02  0.43369032265E+02  0.00000000000E+00 0.  1.
</event>
<event>
 7    1  0.4195243E-015  0.9000776E+02  0.7816164E-02  0.1186339E+00
        -11   -1    0    0    0    0  0.00000000000E+00  0.00000000000E+00  0.45593999997E+02  0.45594000000E+02  0.51100000000E-03 0.  1.
         11   -1    0    0    0    0 -0.00000000000E+00 -0.00000000000E+00 -0.45593999997E+02  0.45594000000E+02  0.51100000000E-03 0. -1.
    9900012    2    1    2    0    0  0.52830364219E+00 -0.87540679290E+00 -0.58951220495E+00  0.90007760011E+02  0.90000021643E+02 0.  0.
        -12    1    1    2    0    0 -0.52830364219E+00  0.87540679290E+00  0.58951220495E+00  0.11802399888E+01  0.00000000000E+00 0.  1.
         11    1    3    3    0    0 -0.15087780815E+02  0.19819006623E+02 -0.30175872808E+01  0.25090635438E+02  0.51100000000E-03 0. -1.
        -11    1    3    3    0    0 -0.43821355419E+01 -0.42029972128E+01  0.27913353581E+02  0.28566126897E+02  0.51100000000E-03 0.  1.
         12    1    3    3    0    0  0.19998219999E+02 -0.16491416203E+02 -0.25485278505E+02  0.36350997676E+02  0.00000000000E+00 0. -1.
</event>
<event>
 7    1  0.4195243E-015  0.9000764E+02  0.7816164E-02  0.1186339E+00
        -11   -1    0    0    0    0  0.00000000000E+00  0.00000000000E+00  0.45593999997E+02  0.45594000000E+02  0.51100000000E-03 0. -1.
         11   -1    0    0    0    0 -0.00000000000E+00 -0.00000000000E+00 -0.45593999997E+02  0.45594000000E+02  0.51100000000E-03 0.  1.
    9900012    2    1    2    0    0  0.41245794895E+00  0.11050503778E+01  0.44682490746E-01  0.90007638012E+02  0.89999898034E+02 0.  0.
        -12    1    1    2    0    0 -0.41245794895E+00 -0.11050503778E+01 -0.44682490746E-01  0.11803619877E+01  0.00000000000E+00 0.  1.
         11    1    3    3    0    0 -0.14924005092E+02  0.32684808398E+02  0.83928969190E+01  0.36898012778E+02  0.51100000000E-03 0. -1.
        -11    1    3    3    0    0 -0.97148116435E+01  0.25565165587E+01 -0.26219353596E+01  0.10382094561E+02  0.51100000000E-03 0.  1.
        -12    1    3    3    0    0  0.25051274685E+02 -0.34136274579E+02 -0.57262790687E+01  0.42727530673E+02  0.00000000000E+00 0.  1.
</event>
<event>
 7    1  0.4195243E-015  0.9000770E+02  0.7816164E-02  0.1186339E+00
        -11   -1    0    0    0    0  0.00000000000E+00  0.00000000000E+00  0.45593999997E+02  0.45594000000E+02  0.51100000000E-03 0. -1.
         11   -1    0    0    0    0 -0.00000000000E+00 -0.00000000000E+00 -0.45593999997E+02  0.45594000000E+02  0.51100000000E-03 0.  1.
    9900012    2    1    2    0    0  0.11783021331E+00 -0.56869550368E-02  0.11743937715E+01  0.90007696212E+02  0.89999957002E+02 0.  0.
        -12    1    1    2    0    0 -0.11783021331E+00  0.56869550368E-02 -0.11743937715E+01  0.11803037876E+01  0.00000000000E+00 0.  1.
         11    1    3    3    0    0 -0.47879648733E+01 -0.82900265381E+01 -0.11404207752E+02  0.14889765020E+02  0.51100000000E-03 0. -1.
        -11    1    3    3    0    0 -0.23238469989E+02 -0.18529832240E+02 -0.84795825764E+01  0.30907676898E+02  0.51100000000E-03 0.  1.
         12    1    3    3    0    0  0.28144265076E+02  0.26814171823E+02  0.21058184100E+02  0.44210254295E+02  0.00000000000E+00 0. -1.
</event>
<event>
 7    1  0.4195243E-015  0.9000668E+02  0.7816164E-02  0.1186341E+00
        -11   -1    0    0    0    0  0.00000000000E+00  0.00000000000E+00  0.45593999997E+02  0.45594000000E+02  0.51100000000E-03 0. -1.
         11   -1    0    0    0    0 -0.00000000000E+00 -0.00000000000E+00 -0.45593999997E+02  0.45594000000E+02  0.51100000000E-03 0.  1.
    9900012    2    1    2    0    0 -0.90664835878E+00  0.57739080136E+00  0.49002931328E+00  0.90006678659E+02  0.89998926010E+02 0.  0.
        -12    1    1    2    0    0  0.90664835878E+00 -0.57739080136E+00 -0.49002931328E+00  0.11813213415E+01  0.00000000000E+00 0.  1.
         11    1    3    3    0    0  0.52587380030E+01  0.37942768578E+02 -0.13912487240E+01  0.38330713351E+02  0.51100000000E-03 0. -1.
        -11    1    3    3    0    0 -0.28101949173E+01  0.51863053755E+01  0.64592708921E+01  0.87474075954E+01  0.51100000000E-03 0.  1.
        -12    1    3    3    0    0 -0.33551914445E+01 -0.42551683152E+02 -0.45779928549E+01  0.42928557712E+02  0.00000000000E+00 0.  1.
</event>
<event>
 7    1  0.4195243E-015  0.9000784E+02  0.7816164E-02  0.1186339E+00
        -11   -1    0    0    0    0  0.00000000000E+00  0.00000000000E+00  0.45593999997E+02  0.45594000000E+02  0.51100000000E-03 0.  1.
         11   -1    0    0    0    0 -0.00000000000E+00 -0.00000000000E+00 -0.45593999997E+02  0.45594000000E+02  0.51100000000E-03 0. -1.
    9900012    2    1    2    0    0  0.56198338464E+00 -0.84041646927E+00 -0.60881583078E+00  0.90007838197E+02  0.90000100861E+02 0.  0.
        -12    1    1    2    0    0 -0.56198338464E+00  0.84041646927E+00  0.60881583078E+00  0.11801618034E+01  0.00000000000E+00 0.  1.
         11    1    3    3    0    0  0.84725548955E+01 -0.27842694466E+00 -0.18710095109E+00  0.84791930658E+01  0.51100000000E-03 0. -1.
        -11    1    3    3    0    0  0.26410861407E+02 -0.78282447405E+01  0.25790532713E+02  0.37735481895E+02  0.51100000000E-03 0.  1.
         12    1    3    3    0    0 -0.34321432918E+02  0.72662552159E+01 -0.26212247592E+02  0.43793163236E+02  0.00000000000E+00 0. -1.
</event>
<event>
 7    1  0.4195243E-015  0.9000767E+02  0.7816164E-02  0.1186339E+00
        -11   -1    0    0    0    0  0.00000000000E+00  0.00000000000E+00  0.45593999997E+02  0.45594000000E+02  0.51100000000E-03 0.  1.
         11   -1    0    0    0    0 -0.00000000000E+00 -0.00000000000E+00 -0.45593999997E+02  0.45594000000E+02  0.51100000000E-03 0. -1.
    9900012    2    1    2    0    0 -0.64574746056E+00 -0.82602455488E+00  0.54210639483E+00  0.90007667127E+02  0.89999927533E+02 0.  0.
        -12    1    1    2    0    0  0.64574746056E+00  0.82602455488E+00 -0.54210639483E+00  0.11803328731E+01  0.00000000000E+00 0.  1.
         11    1    3    3    0    0  0.34154102545E+00  0.16142597962E+02 -0.34055047186E+02  0.37688809457E+02  0.51100000000E-03 0. -1.
        -11    1    3    3    0    0 -0.49394452431E+01  0.78820781768E+01 -0.28696013238E+00  0.93063216188E+01  0.51100000000E-03 0.  1.
        -12    1    3    3    0    0  0.39521567571E+01 -0.24850700694E+02  0.34884113713E+02  0.43012536051E+02  0.00000000000E+00 0.  1.
</event>
<event>
 7    1  0.4195243E-015  0.9000777E+02  0.7816164E-02  0.1186339E+00
        -11   -1    0    0    0    0  0.00000000000E+00  0.00000000000E+00  0.45593999997E+02  0.45594000000E+02  0.51100000000E-03 0.  1.
         11   -1    0    0    0    0 -0.00000000000E+00 -0.00000000000E+00 -0.45593999997E+02  0.45594000000E+02  0.51100000000E-03 0. -1.
    9900012    2    1    2    0    0  0.94214287655E-01  0.52446490389E+00 -0.10530902409E+01  0.90007771707E+02  0.90000033494E+02 0.  0.
        -12    1    1    2    0    0 -0.94214287655E-01 -0.52446490389E+00  0.10530902409E+01  0.11802282927E+01  0.00000000000E+00 0.  1.
         11    1    3    3    0    0 -0.22232553633E+01 -0.10135391262E+02 -0.37469203806E+02  0.38879432282E+02  0.51100000000E-03 0. -1.
        -11    1    3    3    0    0  0.86927508401E+01  0.66964914171E+01 -0.26984519433E+01  0.11299936178E+02  0.51100000000E-03 0.  1.
        -12    1    3    3    0    0 -0.63752811891E+01  0.39633647484E+01  0.39114565508E+02  0.39828403248E+02  0.00000000000E+00 0.  1.
</event>
<event>
 7    1  0.4195243E-015  0.9000783E+02  0.7816164E-02  0.1186339E+00
        -11   -1    0    0    0    0  0.00000000000E+00  0.00000000000E+00  0.45593999997E+02  0.45594000000E+02  0.51100000000E-03 0.  1.
         11   -1    0    0    0    0 -0.00000000000E+00 -0.00000000000E+00 -0.45593999997E+02  0.45594000000E+02  0.51100000000E-03 0. -1.
    9900012    2    1    2    0    0 -0.34566672734E+00  0.10843674435E+01  0.31219486001E+00  0.90007828881E+02  0.90000091422E+02 0.  0.
        -12    1    1    2    0    0  0.34566672734E+00 -0.10843674435E+01 -0.31219486001E+00  0.11801711187E+01  0.00000000000E+00 0.  1.
         11    1    3    3    0    0  0.20824361002E+02 -0.22848313095E+02  0.17465253992E+02  0.35506823566E+02  0.51100000000E-03 0. -1.
        -11    1    3    3    0    0  0.46894392484E+01 -0.41807381942E+01  0.69230157584E+01  0.93486662025E+01  0.51100000000E-03 0.  1.
        -12    1    3    3    0    0 -0.25859466978E+02  0.28113418733E+02 -0.24076074891E+02  0.45152339113E+02  0.00000000000E+00 0.  1.
</event>
<event>
 7    1  0.4195243E-015  0.9000774E+02  0.7816164E-02  0.1186339E+00
        -11   -1    0    0    0    0  0.00000000000E+00  0.00000000000E+00  0.45593999997E+02  0.45594000000E+02  0.51100000000E-03 0.  1.
         11   -1    0    0    0    0 -0.00000000000E+00 -0.00000000000E+00 -0.45593999997E+02  0.45594000000E+02  0.51100000000E-03 0. -1.
    9900012    2    1    2    0    0 -0.97840872573E+00 -0.15944653208E+00 -0.64055917984E+00  0.90007736091E+02  0.89999997408E+02 0.  0.
        -12    1    1    2    0    0  0.97840872573E+00  0.15944653208E+00  0.64055917984E+00  0.11802639086E+01  0.00000000000E+00 0.  1.
         11    1    3    3    0    0 -0.35708235634E+02  0.13998648243E+02 -0.92126483203E+01  0.39445064761E+02  0.51100000000E-03 0. -1.
        -11    1    3    3    0    0  0.29420720019E+01  0.96007578260E+01  0.43100412229E+00  0.10050676759E+02  0.51100000000E-03 0.  1.
        -12    1    3    3    0    0  0.31787754906E+02 -0.23758852601E+02  0.81410850182E+01  0.40511994571E+02  0.00000000000E+00 0.  1.
</event>
<event>
 7    1  0.4195243E-015  0.9000773E+02  0.7816164E-02  0.1186339E+00
        -11   -1    0    0    0    0  0.00000000000E+00  0.00000000000E+00  0.45593999997E+02  0.45594000000E+02  0.51100000000E-03 0. -1.
         11   -1    0    0    0    0 -0.00000000000E+00 -0.00000000000E+00 -0.45593999997E+02  0.45594000000E+02  0.51100000000E-03 0.  1.
    9900012    2    1    2    0    0 -0.10152092725E+01 -0.34027882993E+00  0.49659326781E+00  0.90007726971E+02  0.89999988167E+02 0.  0.
        -12    1    1    2    0    0  0.10152092725E+01  0.34027882993E+00 -0.49659326781E+00  0.11802730289E+01  0.00000000000E+00 0.  1.
         11    1    3    3    0    0  0.56499127614E+01  0.52062376005E+01 -0.58507094487E+01  0.96569780718E+01  0.51100000000E-03 0. -1.
        -11    1    3    3    0    0 -0.49025371026E+01 -0.23408662265E+02 -0.30858572923E+02  0.39041668281E+02  0.51100000000E-03 0.  1.
         12    1    3    3    0    0 -0.17625849313E+01  0.17862145835E+02  0.37205875639E+02  0.41309080618E+02  0.00000000000E+00 0. -1.
</event>
<event>
 7    1  0.4475549E-015  0.9000772E+02  0.7816164E-02  0.1186339E+00
        -11   -1    0    0    0    0  0.00000000000E+00  0.00000000000E+00  0.45593999997E+02  0.45594000000E+02  0.51100000000E-03 0. -1.
         11   -1    0    0    0    0 -0.00000000000E+00 -0.00000000000E+00 -0.45593999997E+02  0.45594000000E+02  0.51100000000E-03 0.  1.
    9900012    2    1    2    0    0 -0.31717983542E-02  0.11179120309E+01  0.37859291917E+00  0.90007716150E+02  0.89999977203E+02 0.  0.
        -12    1    1    2    0    0  0.31717983542E-02 -0.11179120309E+01 -0.37859291917E+00  0.11802838504E+01  0.00000000000E+00 0.  1.
         11    1    3    3    0    0  0.34135375095E+02  0.11231992777E+02  0.12566488130E+02  0.38069648263E+02  0.51100000000E-03 0. -1.
        -11    1    3    3    0    0  0.61665589310E+01  0.13157365279E+01 -0.74752615898E+01  0.97794247150E+01  0.51100000000E-03 0.  1.
        -12    1    3    3    0    0 -0.40305105825E+02 -0.11429817274E+02 -0.47126336215E+01  0.42158643172E+02  0.00000000000E+00 0.  1.
</event>
<event>
 7    1  0.4195243E-015  0.9000772E+02  0.7816164E-02  0.1186339E+00
        -11   -1    0    0    0    0  0.00000000000E+00  0.00000000000E+00  0.45593999997E+02  0.45594000000E+02  0.51100000000E-03 0.  1.
         11   -1    0    0    0    0 -0.00000000000E+00 -0.00000000000E+00 -0.45593999997E+02  0.45594000000E+02  0.51100000000E-03 0. -1.
    9900012    2    1    2    0    0  0.98487559597E+00 -0.14105498061E+00 -0.63497103513E+00  0.90007718397E+02  0.89999979480E+02 0.  0.
        -12    1    1    2    0    0 -0.98487559597E+00  0.14105498061E+00  0.63497103513E+00  0.11802816031E+01  0.00000000000E+00 0.  1.
         11    1    3    3    0    0  0.15621927313E+02  0.13734620737E+01 -0.94109451466E+01  0.18289256405E+02  0.51100000000E-03 0. -1.
        -11    1    3    3    0    0  0.20014128341E+02  0.19454897701E+02  0.13384776267E+02  0.30954977205E+02  0.51100000000E-03 0.  1.
         12    1    3    3    0    0 -0.34651180058E+02 -0.20969414755E+02 -0.46088021559E+01  0.40763484786E+02  0.00000000000E+00 0. -1.
</event>
<event>
 7    1  0.4195243E-015  0.9000774E+02  0.7816164E-02  0.1186339E+00
        -11   -1    0    0    0    0  0.00000000000E+00  0.00000000000E+00  0.45593999997E+02  0.45594000000E+02  0.51100000000E-03 0.  1.
         11   -1    0    0    0    0 -0.00000000000E+00 -0.00000000000E+00 -0.45593999997E+02  0.45594000000E+02  0.51100000000E-03 0. -1.
    9900012    2    1    2    0    0 -0.10477437222E+01 -0.54224354400E+00  0.34934219809E-01  0.90007739280E+02  0.90000000638E+02 0.  0.
        -12    1    1    2    0    0  0.10477437222E+01  0.54224354400E+00 -0.34934219809E-01  0.11802607204E+01  0.00000000000E+00 0.  1.
         11    1    3    3    0    0 -0.61854263067E+01 -0.15418579360E+02 -0.31733657871E+02  0.35819228499E+02  0.51100000000E-03 0. -1.
        -11    1    3    3    0    0 -0.33431307863E+01  0.72577415495E+01 -0.88949773477E+01  0.11957088196E+02  0.51100000000E-03 0.  1.
        -12    1    3    3    0    0  0.84808133708E+01  0.76185942663E+01  0.40663569439E+02  0.42231422585E+02  0.00000000000E+00 0.  1.
</event>
<event>
 7    1  0.4195243E-015  0.9000905E+02  0.7816164E-02  0.1186336E+00
        -11   -1    0    0    0    0  0.00000000000E+00  0.00000000000E+00  0.45593999997E+02  0.45594000000E+02  0.51100000000E-03 0.  1.
         11   -1    0    0    0    0 -0.00000000000E+00 -0.00000000000E+00 -0.45593999997E+02  0.45594000000E+02  0.51100000000E-03 0. -1.
    9900012    2    1    2    0    0  0.38923518290E+00 -0.87339613961E+00 -0.68963985668E+00  0.90009047933E+02  0.90001326556E+02 0.  0.
        -12    1    1    2    0    0 -0.38923518290E+00  0.87339613961E+00  0.68963985668E+00  0.11789520670E+01  0.00000000000E+00 0.  1.
         11    1    3    3    0    0 -0.37281516394E+02 -0.10142560627E+02  0.12150922967E+02  0.40502196606E+02  0.51100000000E-03 0. -1.
        -11    1    3    3    0    0  0.22352573013E+01 -0.76553387780E+01 -0.51437530086E+01  0.94899305731E+01  0.51100000000E-03 0.  1.
        -12    1    3    3    0    0  0.35435494275E+02  0.16924503265E+02 -0.76968098153E+01  0.40016920754E+02  0.00000000000E+00 0.  1.
</event>
<event>
 7    1  0.4195243E-015  0.9000785E+02  0.7816164E-02  0.1186339E+00
        -11   -1    0    0    0    0  0.00000000000E+00  0.00000000000E+00  0.45593999997E+02  0.45594000000E+02  0.51100000000E-03 0. -1.
         11   -1    0    0    0    0 -0.00000000000E+00 -0.00000000000E+00 -0.45593999997E+02  0.45594000000E+02  0.51100000000E-03 0.  1.
    9900012    2    1    2    0    0 -0.45641568796E+00  0.92652845650E-01  0.10843643152E+01  0.90007853484E+02  0.90000116350E+02 0.  0.
        -12    1    1    2    0    0  0.45641568796E+00 -0.92652845650E-01 -0.10843643152E+01  0.11801465155E+01  0.00000000000E+00 0.  1.
         11    1    3    3    0    0  0.38692587196E+02 -0.10637053044E+02 -0.71575323164E+01  0.40761421350E+02  0.51100000000E-03 0. -1.
        -11    1    3    3    0    0 -0.62112691706E+01 -0.79186661314E+01  0.50544978138E+01  0.11262019642E+02  0.51100000000E-03 0.  1.
        -12    1    3    3    0    0 -0.32937733713E+02  0.18648372021E+02  0.31873988178E+01  0.37984412492E+02  0.00000000000E+00 0.  1.
</event>
<event>
 7    1  0.4195243E-015  0.9000774E+02  0.7816164E-02  0.1186339E+00
        -11   -1    0    0    0    0  0.00000000000E+00  0.00000000000E+00  0.45593999997E+02  0.45594000000E+02  0.51100000000E-03 0. -1.
         11   -1    0    0    0    0 -0.00000000000E+00 -0.00000000000E+00 -0.45593999997E+02  0.45594000000E+02  0.51100000000E-03 0.  1.
    9900012    2    1    2    0    0 -0.11277587693E+01 -0.15864914739E+00 -0.30984349583E+00  0.90007740543E+02  0.90000001918E+02 0.  0.
        -12    1    1    2    0    0  0.11277587693E+01  0.15864914739E+00  0.30984349583E+00  0.11802594569E+01  0.00000000000E+00 0.  1.
         11    1    3    3    0    0 -0.55331441468E+01  0.83021821617E+00  0.37347180690E+01  0.67270398953E+01  0.51100000000E-03 0. -1.
        -11    1    3    3    0    0 -0.26548695731E+02  0.27475318552E+01 -0.31814776746E+02  0.41527848439E+02  0.51100000000E-03 0.  1.
         12    1    3    3    0    0  0.30954081108E+02 -0.37363992187E+01  0.27770215181E+02  0.41752852209E+02  0.00000000000E+00 0. -1.
</event>
<event>
 7    1  0.4195243E-015  0.9000779E+02  0.7816164E-02  0.1186339E+00
        -11   -1    0    0    0    0  0.00000000000E+00  0.00000000000E+00  0.45593999997E+02  0.45594000000E+02  0.51100000000E-03 0. -1.
         11   -1    0    0    0    0 -0.00000000000E+00 -0.00000000000E+00 -0.45593999997E+02  0.45594000000E+02  0.51100000000E-03 0.  1.
    9900012    2    1    2    0    0  0.38968889126E-01  0.10408649156E+01 -0.55496155779E+00  0.90007787868E+02  0.90000049867E+02 0.  0.
        -12    1    1    2    0    0 -0.38968889126E-01 -0.10408649156E+01  0.55496155779E+00  0.11802121324E+01  0.00000000000E+00 0.  1.
         11    1    3    3    0    0 -0.15433021078E+01  0.34604070767E+01  0.89885733087E+01  0.97545194100E+01  0.51100000000E-03 0. -1.
        -11    1    3    3    0    0  0.85585114545E+01 -0.36339663205E+02 -0.22138045975E+02  0.43404058797E+02  0.51100000000E-03 0.  1.
         12    1    3    3    0    0 -0.69762404575E+01  0.33920121044E+02  0.12594511109E+02  0.36849209661E+02  0.00000000000E+00 0. -1.
</event>
<event>
 7    1  0.4195243E-015  0.9000771E+02  0.7816164E-02  0.1186339E+00
        -11   -1    0    0    0    0  0.00000000000E+00  0.00000000000E+00  0.45593999997E+02  0.45594000000E+02  0.51100000000E-03 0. -1.
         11   -1    0    0    0    0 -0.00000000000E+00 -0.00000000000E+00 -0.45593999997E+02  0.45594000000E+02  0.51100000000E-03 0.  1.
    9900012    2    1    2    0    0 -0.45285213545E+00 -0.87556854092E+00  0.64914812317E+00  0.90007708251E+02  0.89999969200E+02 0.  0.
        -12    1    1    2    0    0  0.45285213545E+00  0.87556854092E+00 -0.64914812317E+00  0.11802917488E+01  0.00000000000E+00 0.  1.
         11    1    3    3    0    0 -0.35864529973E+02 -0.18891603251E+02 -0.35908867073E+01  0.40694614523E+02  0.51100000000E-03 0. -1.
        -11    1    3    3    0    0  0.39919221910E+01 -0.53262293140E+01 -0.58833559264E+01  0.88835825376E+01  0.51100000000E-03 0.  1.
        -12    1    3    3    0    0  0.31419755647E+02  0.23342264024E+02  0.10123390757E+02  0.40429511190E+02  0.00000000000E+00 0.  1.
</event>
<event>
 7    1  0.6776834E-015  0.9000779E+02  0.7816164E-02  0.1186339E+00
        -11   -1    0    0    0    0  0.00000000000E+00  0.00000000000E+00  0.45593999997E+02  0.45594000000E+02  0.51100000000E-03 0. -1.
         11   -1    0    0    0    0 -0.00000000000E+00 -0.00000000000E+00 -0.45593999997E+02  0.45594000000E+02  0.51100000000E-03 0.  1.
    9900012    2    1    2    0    0  0.48188957128E+00  0.36981432576E+00  0.10118865288E+01  0.90007790467E+02  0.90000052501E+02 0.  0.
        -12    1    1    2    0    0 -0.48188957128E+00 -0.36981432576E+00 -0.10118865288E+01  0.11802095329E+01  0.00000000000E+00 0.  1.
         11    1    3    3    0    0 -0.19655533864E+02 -0.20362102360E+02  0.28291923176E+02  0.40017348004E+02  0.51100000000E-03 0. -1.
        -11    1    3    3    0    0 -0.75478775154E+01  0.43352342364E+00 -0.50721651354E+01  0.91041340592E+01  0.51100000000E-03 0.  1.
        -12    1    3    3    0    0  0.27685300951E+02  0.20298393262E+02 -0.22207871512E+02  0.40886308404E+02  0.00000000000E+00 0.  1.
</event>
<event>
 7    1  0.4195243E-015  0.9000772E+02  0.7816164E-02  0.1186339E+00
        -11   -1    0    0    0    0  0.00000000000E+00  0.00000000000E+00  0.45593999997E+02  0.45594000000E+02  0.51100000000E-03 0. -1.
         11   -1    0    0    0    0 -0.00000000000E+00 -0.00000000000E+00 -0.45593999997E+02  0.45594000000E+02  0.51100000000E-03 0.  1.
    9900012    2    1    2    0    0  0.10916873981E+00  0.80868498854E+00  0.85274289161E+00  0.90007720515E+02  0.89999981625E+02 0.  0.
        -12    1    1    2    0    0 -0.10916873981E+00 -0.80868498854E+00 -0.85274289161E+00  0.11802794854E+01  0.00000000000E+00 0.  1.
         11    1    3    3    0    0  0.55679616774E+00 -0.72787148170E+01  0.10809911036E+02  0.13043921505E+02  0.51100000000E-03 0. -1.
        -11    1    3    3    0    0 -0.11572003923E+02 -0.98963265764E+01 -0.38522765126E+02  0.41422843791E+02  0.51100000000E-03 0.  1.
         12    1    3    3    0    0  0.11124376495E+02  0.17983726382E+02  0.28565596981E+02  0.35540955219E+02  0.00000000000E+00 0. -1.
</event>
<event>
 7    1  0.4195243E-015  0.9000772E+02  0.7816164E-02  0.1186339E+00
        -11   -1    0    0    0    0  0.00000000000E+00  0.00000000000E+00  0.45593999997E+02  0.45594000000E+02  0.51100000000E-03 0.  1.
         11   -1    0    0    0    0 -0.00000000000E+00 -0.00000000000E+00 -0.45593999997E+02  0.45594000000E+02  0.51100000000E-03 0. -1.
    9900012    2    1    2    0    0 -0.90888380464E+00  0.58427369047E+00 -0.47498533096E+00  0.90007721821E+02  0.89999982949E+02 0.  0.
        -12    1    1    2    0    0  0.90888380464E+00 -0.58427369047E+00  0.47498533096E+00  0.11802781792E+01  0.00000000000E+00 0.  1.
         11    1    3    3    0    0  0.21221571333E+01  0.75619602519E+01  0.18494149356E+01  0.80688989097E+01  0.51100000000E-03 0. -1.
        -11    1    3    3    0    0  0.30524617698E+02 -0.21828151416E+02  0.16152117768E+02  0.40854759680E+02  0.51100000000E-03 0.  1.
         12    1    3    3    0    0 -0.33555658636E+02  0.14850464854E+02 -0.18476518034E+02  0.41084063231E+02  0.00000000000E+00 0. -1.
</event>
<event>
 7    1  0.4195243E-015  0.9000772E+02  0.7816164E-02  0.1186339E+00
        -11   -1    0    0    0    0  0.00000000000E+00  0.00000000000E+00  0.45593999997E+02  0.45594000000E+02  0.51100000000E-03 0.  1.
         11   -1    0    0    0    0 -0.00000000000E+00 -0.00000000000E+00 -0.45593999997E+02  0.45594000000E+02  0.51100000000E-03 0. -1.
    9900012    2    1    2    0    0 -0.44340439516E-01  0.46810721888E+00 -0.10825780093E+01  0.90007718004E+02  0.89999979082E+02 0.  0.
        -12    1    1    2    0    0  0.44340439516E-01 -0.46810721888E+00  0.10825780093E+01  0.11802819956E+01  0.00000000000E+00 0.  1.
         11    1    3    3    0    0 -0.42457172009E+01  0.49185090730E+01 -0.69874158369E+01  0.95415840608E+01  0.51100000000E-03 0. -1.
        -11    1    3    3    0    0 -0.22266481605E+02  0.18119164738E+02 -0.21759892982E+02  0.36022122047E+02  0.51100000000E-03 0.  1.
         12    1    3    3    0    0  0.26467858366E+02 -0.22569566593E+02  0.27664730810E+02  0.44444011897E+02  0.00000000000E+00 0. -1.
</event>
<event>
 7    1  0.4195243E-015  0.9000779E+02  0.7816164E-02  0.1186339E+00
        -11   -1    0    0    0    0  0.00000000000E+00  0.00000000000E+00  0.45593999997E+02  0.45594000000E+02  0.51100000000E-03 0. -1.
         11   -1    0    0    0    0 -0.00000000000E+00 -0.00000000000E+00 -0.45593999997E+02  0.45594000000E+02  0.51100000000E-03 0.  1.
    9900012    2    1    2    0    0  0.22255577126E+00  0.64787145385E-01  0.11572239335E+01  0.90007789986E+02  0.90000052014E+02 0.  0.
        -12    1    1    2    0    0 -0.22255577126E+00 -0.64787145385E-01 -0.11572239335E+01  0.11802100143E+01  0.00000000000E+00 0.  1.
         11    1    3    3    0    0  0.10895027800E+02  0.49866660784E+01 -0.10100914446E+01  0.12024506407E+02  0.51100000000E-03 0. -1.
        -11    1    3    3    0    0  0.27914161097E+02  0.15311464095E+02  0.10696641422E+02  0.33586596440E+02  0.51100000000E-03 0.  1.
         12    1    3    3    0    0 -0.38586633126E+02 -0.20233343029E+02 -0.85293260440E+01  0.44396687138E+02  0.00000000000E+00 0. -1.
</event>
<event>
 7    1  0.4195243E-015  0.9000773E+02  0.7816164E-02  0.1186339E+00
        -11   -1    0    0    0    0  0.00000000000E+00  0.00000000000E+00  0.45593999997E+02  0.45594000000E+02  0.51100000000E-03 0.  1.
         11   -1    0    0    0    0 -0.00000000000E+00 -0.00000000000E+00 -0.45593999997E+02  0.45594000000E+02  0.51100000000E-03 0. -1.
    9900012    2    1    2    0    0 -0.59372123651E-01  0.11787635498E+01  0.53693960214E-02  0.90007729952E+02  0.89999991187E+02 0.  0.
        -12    1    1    2    0    0  0.59372123651E-01 -0.11787635498E+01 -0.53693960214E-02  0.11802700479E+01  0.00000000000E+00 0.  1.
         11    1    3    3    0    0 -0.24269398727E+01  0.57771398774E+01 -0.90294581371E+01  0.10990745963E+02  0.51100000000E-03 0. -1.
        -11    1    3    3    0    0  0.39790828023E+02 -0.36305107917E+01  0.11268314662E+02  0.41514642223E+02  0.51100000000E-03 0.  1.
         12    1    3    3    0    0 -0.37423260274E+02 -0.96786553590E+00 -0.22334871286E+01  0.37502341766E+02  0.00000000000E+00 0. -1.
</event>
<event>
 7    1  0.4195243E-015  0.9000776E+02  0.7816164E-02  0.1186339E+00
        -11   -1    0    0    0    0  0.00000000000E+00  0.00000000000E+00  0.45593999997E+02  0.45594000000E+02  0.51100000000E-03 0.  1.
         11   -1    0    0    0    0 -0.00000000000E+00 -0.00000000000E+00 -0.45593999997E+02  0.45594000000E+02  0.51100000000E-03 0. -1.
    9900012    2    1    2    0    0  0.77703520059E+00 -0.83042018980E+00 -0.31558393734E+00  0.90007756544E+02  0.90000018130E+02 0.  0.
        -12    1    1    2    0    0 -0.77703520059E+00  0.83042018980E+00  0.31558393734E+00  0.11802434563E+01  0.00000000000E+00 0.  1.
         11    1    3    3    0    0 -0.20243890027E+02 -0.15510524848E+02 -0.29924667354E+02  0.39317644652E+02  0.51100000000E-03 0. -1.
        -11    1    3    3    0    0 -0.88792535411E+00 -0.75643770582E+01 -0.64374097198E-01  0.76165842737E+01  0.51100000000E-03 0.  1.
        -12    1    3    3    0    0  0.21908850581E+02  0.22244481717E+02  0.29673457514E+02  0.43073527618E+02  0.00000000000E+00 0.  1.
</event>
<event>
 7    1  0.4195243E-015  0.9000771E+02  0.7816164E-02  0.1186339E+00
        -11   -1    0    0    0    0  0.00000000000E+00  0.00000000000E+00  0.45593999997E+02  0.45594000000E+02  0.51100000000E-03 0. -1.
         11   -1    0    0    0    0 -0.00000000000E+00 -0.00000000000E+00 -0.45593999997E+02  0.45594000000E+02  0.51100000000E-03 0.  1.
    9900012    2    1    2    0    0  0.72113590624E+00 -0.92820245601E+00  0.10721867582E+00  0.90007706545E+02  0.89999967472E+02 0.  0.
        -12    1    1    2    0    0 -0.72113590624E+00  0.92820245601E+00 -0.10721867582E+00  0.11802934546E+01  0.00000000000E+00 0.  1.
         11    1    3    3    0    0  0.11747634388E+01 -0.56908776982E+01 -0.74342066662E+01  0.94357610785E+01  0.51100000000E-03 0. -1.
        -11    1    3    3    0    0 -0.28191644198E+02 -0.26088196817E+02  0.72230250259E+01  0.39083691056E+02  0.51100000000E-03 0.  1.
         12    1    3    3    0    0  0.27738016665E+02  0.30850872059E+02  0.31840031615E+00  0.41488254411E+02  0.00000000000E+00 0. -1.
</event>
<event>
 7    1  0.4195243E-015  0.9000771E+02  0.7816164E-02  0.1186339E+00
        -11   -1    0    0    0    0  0.00000000000E+00  0.00000000000E+00  0.45593999997E+02  0.45594000000E+02  0.51100000000E-03 0.  1.
         11   -1    0    0    0    0 -0.00000000000E+00 -0.00000000000E+00 -0.45593999997E+02  0.45594000000E+02  0.51100000000E-03 0. -1.
    9900012    2    1    2    0    0 -0.67215188889E+00 -0.68135442041E+00 -0.69069412800E+00  0.90007707500E+02  0.89999968439E+02 0.  0.
        -12    1    1    2    0    0  0.67215188889E+00  0.68135442041E+00  0.69069412800E+00  0.11802925004E+01  0.00000000000E+00 0.  1.
         11    1    3    3    0    0 -0.67311514280E+01 -0.76390143216E+00 -0.40594212463E+01  0.78975215138E+01  0.51100000000E-03 0. -1.
        -11    1    3    3    0    0 -0.44735054154E+01 -0.39963822167E+02 -0.24853340520E+01  0.40290150391E+02  0.51100000000E-03 0.  1.
         12    1    3    3    0    0  0.10532504955E+02  0.40046369179E+02  0.58540611704E+01  0.41820035595E+02  0.00000000000E+00 0. -1.
</event>
<event>
 7    1  0.4195243E-015  0.9000767E+02  0.7816164E-02  0.1186339E+00
        -11   -1    0    0    0    0  0.00000000000E+00  0.00000000000E+00  0.45593999997E+02  0.45594000000E+02  0.51100000000E-03 0.  1.
         11   -1    0    0    0    0 -0.00000000000E+00 -0.00000000000E+00 -0.45593999997E+02  0.45594000000E+02  0.51100000000E-03 0. -1.
    9900012    2    1    2    0    0  0.94789482697E+00 -0.54442773079E+00 -0.44528725244E+00  0.90007666617E+02  0.89999927017E+02 0.  0.
        -12    1    1    2    0    0 -0.94789482697E+00  0.54442773079E+00  0.44528725244E+00  0.11803333827E+01  0.00000000000E+00 0.  1.
         11    1    3    3    0    0  0.49031671741E+01  0.59042996765E+01 -0.72594718898E+00  0.77090078861E+01  0.51100000000E-03 0. -1.
        -11    1    3    3    0    0 -0.54881575016E+01  0.19315651998E+02  0.34210231183E+02  0.39668050150E+02  0.51100000000E-03 0.  1.
         12    1    3    3    0    0  0.15328851545E+01 -0.25764379405E+02 -0.33929571246E+02  0.42630608581E+02  0.00000000000E+00 0. -1.
</event>
<event>
 7    1  0.4195243E-015  0.9000761E+02  0.7816164E-02  0.1186339E+00
        -11   -1    0    0    0    0  0.00000000000E+00  0.00000000000E+00  0.45593999997E+02  0.45594000000E+02  0.51100000000E-03 0.  1.
         11   -1    0    0    0    0 -0.00000000000E+00 -0.00000000000E+00 -0.45593999997E+02  0.45594000000E+02  0.51100000000E-03 0. -1.
    9900012    2    1    2    0    0  0.68360490583E+00 -0.96226607457E+00  0.73298689483E-02  0.90007607950E+02  0.89999867574E+02 0.  0.
        -12    1    1    2    0    0 -0.68360490583E+00  0.96226607457E+00 -0.73298689483E-02  0.11803920503E+01  0.00000000000E+00 0.  1.
         11    1    3    3    0    0 -0.92858365380E+01 -0.25468477422E+01 -0.38244537827E+01  0.10360484575E+02  0.51100000000E-03 0. -1.
        -11    1    3    3    0    0 -0.32819237020E+02  0.10189404293E+02  0.94536116824E+01  0.35641226866E+02  0.51100000000E-03 0.  1.
         12    1    3    3    0    0  0.42788678464E+02 -0.86048226250E+01 -0.56218280307E+01  0.44005896508E+02  0.00000000000E+00 0. -1.
</event>
<event>
 7    1  0.4195243E-015  0.9000768E+02  0.7816164E-02  0.1186339E+00
        -11   -1    0    0    0    0  0.00000000000E+00  0.00000000000E+00  0.45593999997E+02  0.45594000000E+02  0.51100000000E-03 0. -1.
         11   -1    0    0    0    0 -0.00000000000E+00 -0.00000000000E+00 -0.45593999997E+02  0.45594000000E+02  0.51100000000E-03 0.  1.
    9900012    2    1    2    0    0 -0.30281388444E-01  0.21241757274E+00  0.11606564809E+01  0.90007677309E+02  0.89999937850E+02 0.  0.
        -12    1    1    2    0    0  0.30281388444E-01 -0.21241757274E+00 -0.11606564809E+01  0.11803226908E+01  0.00000000000E+00 0.  1.
         11    1    3    3    0    0  0.62791086894E+01 -0.76429626438E+00 -0.86480560912E+01  0.10714486881E+02  0.51100000000E-03 0. -1.
        -11    1    3    3    0    0  0.34163060024E+02 -0.11898177302E+02  0.57324218670E+01  0.36627065867E+02  0.51100000000E-03 0.  1.
         12    1    3    3    0    0 -0.40472450102E+02  0.12874891139E+02  0.40762907052E+01  0.42666124561E+02  0.00000000000E+00 0. -1.
</event>
<event>
 7    1  0.4398863E-015  0.9000779E+02  0.7816164E-02  0.1186339E+00
        -11   -1    0    0    0    0  0.00000000000E+00  0.00000000000E+00  0.45593999997E+02  0.45594000000E+02  0.51100000000E-03 0. -1.
         11   -1    0    0    0    0 -0.00000000000E+00 -0.00000000000E+00 -0.45593999997E+02  0.45594000000E+02  0.51100000000E-03 0.  1.
    9900012    2    1    2    0    0  0.52068129380E+00 -0.76817468347E-01  0.10563548896E+01  0.90007790025E+02  0.90000052053E+02 0.  0.
        -12    1    1    2    0    0 -0.52068129380E+00  0.76817468347E-01 -0.10563548896E+01  0.11802099754E+01  0.00000000000E+00 0.  1.
         11    1    3    3    0    0  0.90092578519E+01 -0.19364798253E+02  0.35056692847E+02  0.41050381874E+02  0.51100000000E-03 0. -1.
        -11    1    3    3    0    0 -0.57606703055E+01 -0.58582090176E+01 -0.25601110420E+01  0.86057018349E+01  0.51100000000E-03 0.  1.
        -12    1    3    3    0    0 -0.27279062526E+01  0.25146189802E+02 -0.31440226915E+02  0.40351706315E+02  0.00000000000E+00 0.  1.
</event>
<event>
 7    1  0.4195243E-015  0.9000777E+02  0.7816164E-02  0.1186339E+00
        -11   -1    0    0    0    0  0.00000000000E+00  0.00000000000E+00  0.45593999997E+02  0.45594000000E+02  0.51100000000E-03 0. -1.
         11   -1    0    0    0    0 -0.00000000000E+00 -0.00000000000E+00 -0.45593999997E+02  0.45594000000E+02  0.51100000000E-03 0.  1.
    9900012    2    1    2    0    0 -0.41421094439E+00  0.84811905651E-01  0.11018932450E+01  0.90007774391E+02  0.90000036213E+02 0.  0.
        -12    1    1    2    0    0  0.41421094439E+00 -0.84811905651E-01 -0.11018932450E+01  0.11802256094E+01  0.00000000000E+00 0.  1.
         11    1    3    3    0    0 -0.19038089722E+01 -0.28872576700E+02  0.19422143825E+02  0.34849244539E+02  0.51100000000E-03 0. -1.
        -11    1    3    3    0    0  0.13715120964E+01 -0.58053046062E+01  0.91014366103E+01  0.10882038211E+02  0.51100000000E-03 0.  1.
        -12    1    3    3    0    0  0.11808593148E+00  0.34762693212E+02 -0.27421687190E+02  0.44276491640E+02  0.00000000000E+00 0.  1.
</event>
<event>
 7    1  0.4195243E-015  0.9000769E+02  0.7816164E-02  0.1186339E+00
        -11   -1    0    0    0    0  0.00000000000E+00  0.00000000000E+00  0.45593999997E+02  0.45594000000E+02  0.51100000000E-03 0. -1.
         11   -1    0    0    0    0 -0.00000000000E+00 -0.00000000000E+00 -0.45593999997E+02  0.45594000000E+02  0.51100000000E-03 0.  1.
    9900012    2    1    2    0    0 -0.19112190663E+00 -0.11431640987E+01  0.22310558856E+00  0.90007691632E+02  0.89999952362E+02 0.  0.
        -12    1    1    2    0    0  0.19112190663E+00  0.11431640987E+01 -0.22310558856E+00  0.11803083680E+01  0.00000000000E+00 0.  1.
         11    1    3    3    0    0  0.12025564346E+02  0.25339446368E+02  0.23368921076E+02  0.36507645947E+02  0.51100000000E-03 0. -1.
        -11    1    3    3    0    0  0.19477419464E+01 -0.28819540177E+01  0.98995394558E+01  0.10492866117E+02  0.51100000000E-03 0.  1.
        -12    1    3    3    0    0 -0.14164428199E+02 -0.23600656449E+02 -0.33045354943E+02  0.43007179568E+02  0.00000000000E+00 0.  1.
</event>
<event>
 7    1  0.4195243E-015  0.9000784E+02  0.7816164E-02  0.1186339E+00
        -11   -1    0    0    0    0  0.00000000000E+00  0.00000000000E+00  0.45593999997E+02  0.45594000000E+02  0.51100000000E-03 0. -1.
         11   -1    0    0    0    0 -0.00000000000E+00 -0.00000000000E+00 -0.45593999997E+02  0.45594000000E+02  0.51100000000E-03 0.  1.
    9900012    2    1    2    0    0 -0.41138154438E+00  0.11058323750E+01 -0.26067084072E-01  0.90007839202E+02  0.90000101879E+02 0.  0.
        -12    1    1    2    0    0  0.41138154438E+00 -0.11058323750E+01  0.26067084072E-01  0.11801607981E+01  0.00000000000E+00 0.  1.
         11    1    3    3    0    0 -0.73369471064E+01  0.81659957527E+01 -0.19072487197E+01  0.11142346136E+02  0.51100000000E-03 0. -1.
        -11    1    3    3    0    0  0.91372337789E+01  0.33484456838E+02 -0.10760018654E+02  0.36338352914E+02  0.51100000000E-03 0.  1.
         12    1    3    3    0    0 -0.22116682168E+01 -0.40544620215E+02  0.12641200290E+02  0.42527140151E+02  0.00000000000E+00 0. -1.
</event>
<event>
 7    1  0.4195243E-015  0.9000777E+02  0.7816164E-02  0.1186339E+00
        -11   -1    0    0    0    0  0.00000000000E+00  0.00000000000E+00  0.45593999997E+02  0.45594000000E+02  0.51100000000E-03 0. -1.
         11   -1    0    0    0    0 -0.00000000000E+00 -0.00000000000E+00 -0.45593999997E+02  0.45594000000E+02  0.51100000000E-03 0.  1.
    9900012    2    1    2    0    0  0.10896433809E+01  0.43284397852E+00  0.13512753368E+00  0.90007772879E+02  0.90000034681E+02 0.  0.
        -12    1    1    2    0    0 -0.10896433809E+01 -0.43284397852E+00 -0.13512753368E+00  0.11802271212E+01  0.00000000000E+00 0.  1.
         11    1    3    3    0    0  0.22548268810E+02 -0.15940662586E+02  0.23578672676E+02  0.36310920608E+02  0.51100000000E-03 0. -1.
        -11    1    3    3    0    0  0.59887847815E+01 -0.25852939945E+01  0.62522613921E+01  0.90354889726E+01  0.51100000000E-03 0.  1.
        -12    1    3    3    0    0 -0.27447410210E+02  0.18958800559E+02 -0.29695806535E+02  0.44661363298E+02  0.00000000000E+00 0.  1.
</event>
<event>
 7    1  0.4195243E-015  0.9000775E+02  0.7816164E-02  0.1186339E+00
        -11   -1    0    0    0    0  0.00000000000E+00  0.00000000000E+00  0.45593999997E+02  0.45594000000E+02  0.51100000000E-03 0. -1.
         11   -1    0    0    0    0 -0.00000000000E+00 -0.00000000000E+00 -0.45593999997E+02  0.45594000000E+02  0.51100000000E-03 0.  1.
    9900012    2    1    2    0    0  0.49276693797E-01 -0.90641912191E+00  0.75430059964E+00  0.90007748666E+02  0.90000010148E+02 0.  0.
        -12    1    1    2    0    0 -0.49276693797E-01  0.90641912191E+00 -0.75430059964E+00  0.11802513341E+01  0.00000000000E+00 0.  1.
         11    1    3    3    0    0  0.41194231082E+01 -0.29513274954E+01 -0.76398408751E+01  0.91677232499E+01  0.51100000000E-03 0. -1.
        -11    1    3    3    0    0 -0.12727892538E+02  0.14618191381E+00 -0.34638942078E+02  0.36903616708E+02  0.51100000000E-03 0.  1.
         12    1    3    3    0    0  0.86577461236E+01  0.18987264597E+01  0.43033083552E+02  0.43936408708E+02  0.00000000000E+00 0. -1.
</event>
<event>
 7    1  0.4195243E-015  0.9000828E+02  0.7816164E-02  0.1186338E+00
        -11   -1    0    0    0    0  0.00000000000E+00  0.00000000000E+00  0.45593999997E+02  0.45594000000E+02  0.51100000000E-03 0.  1.
         11   -1    0    0    0    0 -0.00000000000E+00 -0.00000000000E+00 -0.45593999997E+02  0.45594000000E+02  0.51100000000E-03 0. -1.
    9900012    2    1    2    0    0  0.21051518461E+00  0.87871472290E-01 -0.11574578316E+01  0.90008276867E+02  0.90000545320E+02 0.  0.
        -12    1    1    2    0    0 -0.21051518461E+00 -0.87871472290E-01  0.11574578316E+01  0.11797231330E+01  0.00000000000E+00 0.  1.
         11    1    3    3    0    0  0.14703880345E+02 -0.93206904206E+01  0.54409171335E+01  0.18239598313E+02  0.51100000000E-03 0. -1.
        -11    1    3    3    0    0 -0.53909697527E+01  0.20593478457E+02  0.27482375875E+02  0.34762550162E+02  0.51100000000E-03 0.  1.
         12    1    3    3    0    0 -0.91023954079E+01 -0.11184916564E+02 -0.34080750840E+02  0.37006128391E+02  0.00000000000E+00 0. -1.
</event>
<event>
 7    1  0.4195243E-015  0.9000794E+02  0.7816164E-02  0.1186339E+00
        -11   -1    0    0    0    0  0.00000000000E+00  0.00000000000E+00  0.45593999997E+02  0.45594000000E+02  0.51100000000E-03 0. -1.
         11   -1    0    0    0    0 -0.00000000000E+00 -0.00000000000E+00 -0.45593999997E+02  0.45594000000E+02  0.51100000000E-03 0.  1.
    9900012    2    1    2    0    0 -0.11829046299E+00  0.10038412943E+01  0.60897918216E+00  0.90007938297E+02  0.90000202283E+02 0.  0.
        -12    1    1    2    0    0  0.11829046299E+00 -0.10038412943E+01 -0.60897918216E+00  0.11800617026E+01  0.00000000000E+00 0.  1.
         11    1    3    3    0    0 -0.16870663044E+00  0.33395261298E+02  0.18848657913E+02  0.38347670652E+02  0.51100000000E-03 0. -1.
        -11    1    3    3    0    0 -0.11250138909E+02  0.24939536987E+01 -0.60658134587E+01  0.13022270297E+02  0.51100000000E-03 0.  1.
        -12    1    3    3    0    0  0.11300555076E+02 -0.34885373702E+02 -0.12173865272E+02  0.38637997348E+02  0.00000000000E+00 0.  1.
</event>
<event>
 7    1  0.4195243E-015  0.9000774E+02  0.7816164E-02  0.1186339E+00
        -11   -1    0    0    0    0  0.00000000000E+00  0.00000000000E+00  0.45593999997E+02  0.45594000000E+02  0.51100000000E-03 0.  1.
         11   -1    0    0    0    0 -0.00000000000E+00 -0.00000000000E+00 -0.45593999997E+02  0.45594000000E+02  0.51100000000E-03 0. -1.
    9900012    2    1    2    0    0 -0.96492158070E-01  0.95999022169E+00 -0.67978805130E+00  0.90007744198E+02  0.90000005622E+02 0.  0.
        -12    1    1    2    0    0  0.96492158070E-01 -0.95999022169E+00  0.67978805130E+00  0.11802558015E+01  0.00000000000E+00 0.  1.
         11    1    3    3    0    0  0.76037146352E+01  0.71217362562E+01 -0.46688868525E+01  0.11416396466E+02  0.51100000000E-03 0. -1.
        -11    1    3    3    0    0  0.77543919838E+01  0.34121498164E+02  0.54877780105E+01  0.35419245330E+02  0.51100000000E-03 0.  1.
         12    1    3    3    0    0 -0.15454598777E+02 -0.40283244199E+02 -0.14986792093E+01  0.43172102403E+02  0.00000000000E+00 0. -1.
</event>
<event>
 7    1  0.4195243E-015  0.9000779E+02  0.7816164E-02  0.1186339E+00
        -11   -1    0    0    0    0  0.00000000000E+00  0.00000000000E+00  0.45593999997E+02  0.45594000000E+02  0.51100000000E-03 0.  1.
         11   -1    0    0    0    0 -0.00000000000E+00 -0.00000000000E+00 -0.45593999997E+02  0.45594000000E+02  0.51100000000E-03 0. -1.
    9900012    2    1    2    0    0 -0.20991030360E+00  0.96595993611E+00 -0.64479597904E+00  0.90007786973E+02  0.90000048961E+02 0.  0.
        -12    1    1    2    0    0  0.20991030360E+00 -0.96595993611E+00  0.64479597904E+00  0.11802130267E+01  0.00000000000E+00 0.  1.
         11    1    3    3    0    0 -0.10621785106E+02 -0.16048472322E+02 -0.28448920285E+02  0.34347006395E+02  0.51100000000E-03 0. -1.
        -11    1    3    3    0    0 -0.31122104186E+01 -0.18990034651E+01 -0.10353796042E+02  0.10976937669E+02  0.51100000000E-03 0.  1.
        -12    1    3    3    0    0  0.13524085221E+02  0.18913435723E+02  0.38157920347E+02  0.44683842909E+02  0.00000000000E+00 0.  1.
</event>
<event>
 8    1  0.4195243E-015  0.9000779E+02  0.7816164E-02  0.1186339E+00
        -11   -1    0    0    0    0  0.00000000000E+00  0.00000000000E+00  0.45593999997E+02  0.45594000000E+02  0.51100000000E-03 0. -1.
         11   -1    0    0    0    0 -0.00000000000E+00 -0.00000000000E+00 -0.45593999997E+02  0.45594000000E+02  0.51100000000E-03 0.  1.
    9900012    2    1    2    0    0 -0.37343662271E+00  0.10974404318E+01 -0.22149404008E+00  0.90007792382E+02  0.90000054441E+02 0.  0.
         23    2    3    3    0    0 -0.23366514392E+02 -0.93428981402E+01 -0.10277881336E+02  0.62826673563E+02  0.56641613022E+02 0.  0.
        -12    1    1    2    0    0  0.37343662271E+00 -0.10974404318E+01  0.22149404008E+00  0.11802076183E+01  0.00000000000E+00 0.  1.
         11    1    4    4    0    0 -0.22537159536E+02  0.21424140794E+02 -0.33220806191E+01  0.31272249497E+02  0.51100000000E-03 0. -1.
        -11    1    4    4    0    0 -0.82935485612E+00 -0.30767038934E+02 -0.69558007164E+01  0.31554424065E+02  0.51100000000E-03 0.  1.
         12    1    3    3    0    0  0.22993077770E+02  0.10440338572E+02  0.10056387295E+02  0.27181118819E+02  0.00000000000E+00 0. -1.
</event>
<event>
 7    1  0.4195243E-015  0.9000768E+02  0.7816164E-02  0.1186339E+00
        -11   -1    0    0    0    0  0.00000000000E+00  0.00000000000E+00  0.45593999997E+02  0.45594000000E+02  0.51100000000E-03 0. -1.
         11   -1    0    0    0    0 -0.00000000000E+00 -0.00000000000E+00 -0.45593999997E+02  0.45594000000E+02  0.51100000000E-03 0.  1.
    9900012    2    1    2    0    0 -0.10412383143E+01 -0.51369152560E+00 -0.21238470427E+00  0.90007676539E+02  0.89999937069E+02 0.  0.
        -12    1    1    2    0    0  0.10412383143E+01  0.51369152560E+00  0.21238470427E+00  0.11803234613E+01  0.00000000000E+00 0.  1.
         11    1    3    3    0    0 -0.38561803428E+01  0.29213476878E+01 -0.11454937874E+02  0.12434629110E+02  0.51100000000E-03 0. -1.
        -11    1    3    3    0    0 -0.52030378397E+01 -0.38005714391E+02 -0.47397577316E+01  0.38651924049E+02  0.51100000000E-03 0.  1.
         12    1    3    3    0    0  0.80179798681E+01  0.34570675177E+02  0.15982310901E+02  0.38921123379E+02  0.00000000000E+00 0. -1.
</event>
<event>
 7    1  0.4195243E-015  0.9000774E+02  0.7816164E-02  0.1186339E+00
        -11   -1    0    0    0    0  0.00000000000E+00  0.00000000000E+00  0.45593999997E+02  0.45594000000E+02  0.51100000000E-03 0. -1.
         11   -1    0    0    0    0 -0.00000000000E+00 -0.00000000000E+00 -0.45593999997E+02  0.45594000000E+02  0.51100000000E-03 0.  1.
    9900012    2    1    2    0    0 -0.11154563436E+01 -0.66258571069E-01  0.37996550408E+00  0.90007742894E+02  0.90000004300E+02 0.  0.
        -12    1    1    2    0    0  0.11154563436E+01  0.66258571069E-01 -0.37996550408E+00  0.11802571064E+01  0.00000000000E+00 0.  1.
         11    1    3    3    0    0  0.18775381653E+02 -0.88183143677E+01  0.54292559760E+01  0.21441885300E+02  0.51100000000E-03 0. -1.
        -11    1    3    3    0    0  0.15067495596E+02 -0.15393814032E+02  0.96567020574E+01  0.23606160824E+02  0.51100000000E-03 0.  1.
         12    1    3    3    0    0 -0.34958333592E+02  0.24145869829E+02 -0.14705992529E+02  0.44959696769E+02  0.00000000000E+00 0. -1.
</event>
<event>
 7    1  0.4195243E-015  0.9000768E+02  0.7816164E-02  0.1186339E+00
        -11   -1    0    0    0    0  0.00000000000E+00  0.00000000000E+00  0.45593999997E+02  0.45594000000E+02  0.51100000000E-03 0.  1.
         11   -1    0    0    0    0 -0.00000000000E+00 -0.00000000000E+00 -0.45593999997E+02  0.45594000000E+02  0.51100000000E-03 0. -1.
    9900012    2    1    2    0    0 -0.98482198888E-01  0.62805068185E+00 -0.99448443501E+00  0.90007684070E+02  0.89999944700E+02 0.  0.
        -12    1    1    2    0    0  0.98482198888E-01 -0.62805068185E+00  0.99448443501E+00  0.11803159297E+01  0.00000000000E+00 0.  1.
         11    1    3    3    0    0 -0.49628774351E+01 -0.87705741759E+01 -0.19839420504E+01  0.10270791115E+02  0.51100000000E-03 0. -1.
        -11    1    3    3    0    0 -0.31054964556E+02  0.17621422340E+02  0.17016752152E+02  0.39553700243E+02  0.51100000000E-03 0.  1.
         12    1    3    3    0    0  0.35919359792E+02 -0.82227974822E+01 -0.16027294537E+02  0.40183192712E+02  0.00000000000E+00 0. -1.
</event>
<event>
 7    1  0.4195243E-015  0.9000777E+02  0.7816164E-02  0.1186339E+00
        -11   -1    0    0    0    0  0.00000000000E+00  0.00000000000E+00  0.45593999997E+02  0.45594000000E+02  0.51100000000E-03 0.  1.
         11   -1    0    0    0    0 -0.00000000000E+00 -0.00000000000E+00 -0.45593999997E+02  0.45594000000E+02  0.51100000000E-03 0. -1.
    9900012    2    1    2    0    0  0.24375263435E+00  0.11404628077E+01  0.18132433198E+00  0.90007767279E+02  0.90000029007E+02 0.  0.
        -12    1    1    2    0    0 -0.24375263435E+00 -0.11404628077E+01 -0.18132433198E+00  0.11802327211E+01  0.00000000000E+00 0.  1.
         11    1    3    3    0    0 -0.51293608298E+01 -0.41379312758E+02 -0.73153233698E+01  0.42332869299E+02  0.51100000000E-03 0. -1.
        -11    1    3    3    0    0  0.58346627967E+00  0.42348966403E+01 -0.54959124351E+01  0.69627463123E+01  0.51100000000E-03 0.  1.
        -12    1    3    3    0    0  0.47896471845E+01  0.38284878925E+02  0.12992560137E+02  0.40712151667E+02  0.00000000000E+00 0.  1.
</event>
<event>
 7    1  0.4195243E-015  0.9000773E+02  0.7816164E-02  0.1186339E+00
        -11   -1    0    0    0    0  0.00000000000E+00  0.00000000000E+00  0.45593999997E+02  0.45594000000E+02  0.51100000000E-03 0.  1.
         11   -1    0    0    0    0 -0.00000000000E+00 -0.00000000000E+00 -0.45593999997E+02  0.45594000000E+02  0.51100000000E-03 0. -1.
    9900012    2    1    2    0    0  0.11062736299E+01  0.40732904828E+00  0.57346505018E-01  0.90007725913E+02  0.89999987095E+02 0.  0.
        -12    1    1    2    0    0 -0.11062736299E+01 -0.40732904828E+00 -0.57346505018E-01  0.11802740866E+01  0.00000000000E+00 0.  1.
         11    1    3    3    0    0 -0.18043134651E+02 -0.27267776035E+02 -0.15094339718E+02  0.36012850619E+02  0.51100000000E-03 0. -1.
        -11    1    3    3    0    0 -0.47178189346E+01 -0.39182261163E+01 -0.64418700865E+01  0.88942679221E+01  0.51100000000E-03 0.  1.
        -12    1    3    3    0    0  0.23867227215E+02  0.31593331200E+02  0.21593556310E+02  0.45100607372E+02  0.00000000000E+00 0.  1.
</event>
<event>
 7    1  0.4195243E-015  0.9000780E+02  0.7816164E-02  0.1186339E+00
        -11   -1    0    0    0    0  0.00000000000E+00  0.00000000000E+00  0.45593999997E+02  0.45594000000E+02  0.51100000000E-03 0. -1.
         11   -1    0    0    0    0 -0.00000000000E+00 -0.00000000000E+00 -0.45593999997E+02  0.45594000000E+02  0.51100000000E-03 0.  1.
    9900012    2    1    2    0    0 -0.74942449197E+00 -0.50896736881E+00  0.75643076302E+00  0.90007799868E+02  0.90000062027E+02 0.  0.
        -12    1    1    2    0    0  0.74942449197E+00  0.50896736881E+00 -0.75643076302E+00  0.11802001317E+01  0.00000000000E+00 0.  1.
         11    1    3    3    0    0 -0.16612251653E+01  0.82153855892E+01 -0.22426357458E+01  0.86764995695E+01  0.51100000000E-03 0. -1.
        -11    1    3    3    0    0  0.32601840590E+02  0.18936743246E+02  0.92098073552E+01  0.38811091280E+02  0.51100000000E-03 0.  1.
         12    1    3    3    0    0 -0.31690039916E+02 -0.27661096204E+02 -0.62107408463E+01  0.42520209018E+02  0.00000000000E+00 0. -1.
</event>
<event>
 7    1  0.4195243E-015  0.9000750E+02  0.7816164E-02  0.1186340E+00
        -11   -1    0    0    0    0  0.00000000000E+00  0.00000000000E+00  0.45593999997E+02  0.45594000000E+02  0.51100000000E-03 0. -1.
         11   -1    0    0    0    0 -0.00000000000E+00 -0.00000000000E+00 -0.45593999997E+02  0.45594000000E+02  0.51100000000E-03 0.  1.
    9900012    2    1    2    0    0 -0.80186807712E+00 -0.75057820088E+00  0.43269553213E+00  0.90007497788E+02  0.89999755959E+02 0.  0.
        -12    1    1    2    0    0  0.80186807712E+00  0.75057820088E+00 -0.43269553213E+00  0.11805022119E+01  0.00000000000E+00 0.  1.
         11    1    3    3    0    0 -0.63082781425E+01 -0.70168715968E+01  0.26989214963E+01  0.98140225001E+01  0.51100000000E-03 0. -1.
        -11    1    3    3    0    0  0.39165120630E+01 -0.64029380009E+01 -0.39823690113E+02  0.40524843939E+02  0.51100000000E-03 0.  1.
         12    1    3    3    0    0  0.15898980024E+01  0.12669231397E+02  0.37557464149E+02  0.39668631349E+02  0.00000000000E+00 0. -1.
</event>
<event>
 7    1  0.4195243E-015  0.9000767E+02  0.7816164E-02  0.1186339E+00
        -11   -1    0    0    0    0  0.00000000000E+00  0.00000000000E+00  0.45593999997E+02  0.45594000000E+02  0.51100000000E-03 0.  1.
         11   -1    0    0    0    0 -0.00000000000E+00 -0.00000000000E+00 -0.45593999997E+02  0.45594000000E+02  0.51100000000E-03 0. -1.
    9900012    2    1    2    0    0 -0.29407863833E+00  0.10802297668E+01  0.37390026172E+00  0.90007669538E+02  0.89999929976E+02 0.  0.
        -12    1    1    2    0    0  0.29407863833E+00 -0.10802297668E+01 -0.37390026172E+00  0.11803304623E+01  0.00000000000E+00 0.  1.
         11    1    3    3    0    0 -0.60202736746E+01 -0.50921233022E+01 -0.39127742680E+01  0.88024552016E+01  0.51100000000E-03 0. -1.
        -11    1    3    3    0    0 -0.17000376807E+02  0.37438071941E+02  0.95055761691E+01  0.42201635286E+02  0.51100000000E-03 0.  1.
         12    1    3    3    0    0  0.22726571843E+02 -0.31265718872E+02 -0.52189016393E+01  0.39003579050E+02  0.00000000000E+00 0. -1.
</event>
<event>
 7    1  0.4195243E-015  0.9000773E+02  0.7816164E-02  0.1186339E+00
        -11   -1    0    0    0    0  0.00000000000E+00  0.00000000000E+00  0.45593999997E+02  0.45594000000E+02  0.51100000000E-03 0.  1.
         11   -1    0    0    0    0 -0.00000000000E+00 -0.00000000000E+00 -0.45593999997E+02  0.45594000000E+02  0.51100000000E-03 0. -1.
    9900012    2    1    2    0    0 -0.56998789814E+00  0.19859071935E+00 -0.10142541834E+01  0.90007730528E+02  0.89999991771E+02 0.  0.
        -12    1    1    2    0    0  0.56998789814E+00 -0.19859071935E+00  0.10142541834E+01  0.11802694719E+01  0.00000000000E+00 0.  1.
         11    1    3    3    0    0  0.31569110360E+02  0.12377603801E+02  0.20838836848E+02  0.39800388518E+02  0.51100000000E-03 0. -1.
        -11    1    3    3    0    0  0.45007912435E+01 -0.35708216588E+01 -0.85237943758E+01  0.10279248998E+02  0.51100000000E-03 0.  1.
        -12    1    3    3    0    0 -0.36639889501E+02 -0.86081914227E+01 -0.13329296656E+02  0.39928093012E+02  0.00000000000E+00 0.  1.
</event>
<event>
 7    1  0.4195243E-015  0.9000778E+02  0.7816164E-02  0.1186339E+00
        -11   -1    0    0    0    0  0.00000000000E+00  0.00000000000E+00  0.45593999997E+02  0.45594000000E+02  0.51100000000E-03 0. -1.
         11   -1    0    0    0    0 -0.00000000000E+00 -0.00000000000E+00 -0.45593999997E+02  0.45594000000E+02  0.51100000000E-03 0.  1.
    9900012    2    1    2    0    0  0.75905084596E+00 -0.33050878398E+00  0.84114861009E+00  0.90007777467E+02  0.90000039330E+02 0.  0.
        -12    1    1    2    0    0 -0.75905084596E+00  0.33050878398E+00 -0.84114861009E+00  0.11802225330E+01  0.00000000000E+00 0.  1.
         11    1    3    3    0    0  0.35330731900E+02 -0.18211337324E+02  0.14551367950E+02  0.42327954512E+02  0.51100000000E-03 0. -1.
        -11    1    3    3    0    0  0.14620734513E+01  0.65576518994E+01 -0.62560460743E+01  0.91803360481E+01  0.51100000000E-03 0.  1.
        -12    1    3    3    0    0 -0.36033754506E+02  0.11323176640E+02 -0.74541732652E+01  0.38499486907E+02  0.00000000000E+00 0.  1.
</event>
<event>
 7    1  0.4195243E-015  0.9000771E+02  0.7816164E-02  0.1186339E+00
        -11   -1    0    0    0    0  0.00000000000E+00  0.00000000000E+00  0.45593999997E+02  0.45594000000E+02  0.51100000000E-03 0. -1.
         11   -1    0    0    0    0 -0.00000000000E+00 -0.00000000000E+00 -0.45593999997E+02  0.45594000000E+02  0.51100000000E-03 0.  1.
    9900012    2    1    2    0    0 -0.11192773491E+01 -0.22888728589E+00  0.29650666616E+00  0.90007708774E+02  0.89999969730E+02 0.  0.
        -12    1    1    2    0    0  0.11192773491E+01  0.22888728589E+00 -0.29650666616E+00  0.11802912255E+01  0.00000000000E+00 0.  1.
         11    1    3    3    0    0 -0.41641814609E+02  0.57411100911E+01  0.19754699041E+01  0.42082104874E+02  0.51100000000E-03 0. -1.
        -11    1    3    3    0    0  0.50133393565E+01  0.77413930001E+01 -0.33808706429E+01  0.98230862590E+01  0.51100000000E-03 0.  1.
        -12    1    3    3    0    0  0.35509197903E+02 -0.13711390377E+02  0.17019074050E+01  0.38102517642E+02  0.00000000000E+00 0.  1.
</event>
<event>
 7    1  0.4195243E-015  0.9000826E+02  0.7816164E-02  0.1186338E+00
        -11   -1    0    0    0    0  0.00000000000E+00  0.00000000000E+00  0.45593999997E+02  0.45594000000E+02  0.51100000000E-03 0.  1.
         11   -1    0    0    0    0 -0.00000000000E+00 -0.00000000000E+00 -0.45593999997E+02  0.45594000000E+02  0.51100000000E-03 0. -1.
    9900012    2    1    2    0    0 -0.43730413124E+00  0.82489128468E+00 -0.72117751376E+00  0.90008263783E+02  0.90000532064E+02 0.  0.
        -12    1    1    2    0    0  0.43730413124E+00 -0.82489128468E+00  0.72117751376E+00  0.11797362167E+01  0.00000000000E+00 0.  1.
         11    1    3    3    0    0 -0.14282454129E+02 -0.23476696954E+02 -0.21890663949E+02  0.35133245854E+02  0.51100000000E-03 0. -1.
        -11    1    3    3    0    0 -0.29253787094E+01  0.84865536639E+00 -0.11153202895E+02  0.11561660417E+02  0.51100000000E-03 0.  1.
        -12    1    3    3    0    0  0.16770528707E+02  0.23452932872E+02  0.32322689330E+02  0.43313357512E+02  0.00000000000E+00 0.  1.
</event>
<event>
 7    1  0.4195243E-015  0.9000773E+02  0.7816164E-02  0.1186339E+00
        -11   -1    0    0    0    0  0.00000000000E+00  0.00000000000E+00  0.45593999997E+02  0.45594000000E+02  0.51100000000E-03 0. -1.
         11   -1    0    0    0    0 -0.00000000000E+00 -0.00000000000E+00 -0.45593999997E+02  0.45594000000E+02  0.51100000000E-03 0.  1.
    9900012    2    1    2    0    0 -0.92070276142E+00  0.15553886433E+00  0.72190563662E+00  0.90007731530E+02  0.89999992786E+02 0.  0.
        -12    1    1    2    0    0  0.92070276142E+00 -0.15553886433E+00 -0.72190563662E+00  0.11802684700E+01  0.00000000000E+00 0.  1.
         11    1    3    3    0    0  0.27694449055E+02  0.25856484993E+02  0.71581552008E+01  0.38558779944E+02  0.51100000000E-03 0. -1.
        -11    1    3    3    0    0  0.73932797382E+01 -0.56284493133E+01 -0.41039876005E+01  0.10157890600E+02  0.51100000000E-03 0.  1.
        -12    1    3    3    0    0 -0.36008431555E+02 -0.20072496815E+02 -0.23322619637E+01  0.41291060985E+02  0.00000000000E+00 0.  1.
</event>
<event>
 7    1  0.4195243E-015  0.9000774E+02  0.7816164E-02  0.1186339E+00
        -11   -1    0    0    0    0  0.00000000000E+00  0.00000000000E+00  0.45593999997E+02  0.45594000000E+02  0.51100000000E-03 0.  1.
         11   -1    0    0    0    0 -0.00000000000E+00 -0.00000000000E+00 -0.45593999997E+02  0.45594000000E+02  0.51100000000E-03 0. -1.
    9900012    2    1    2    0    0  0.31447137949E+00 -0.11116864594E+01  0.24140209800E+00  0.90007739857E+02  0.90000001223E+02 0.  0.
        -12    1    1    2    0    0 -0.31447137949E+00  0.11116864594E+01 -0.24140209800E+00  0.11802601431E+01  0.00000000000E+00 0.  1.
         11    1    3    3    0    0 -0.87137720853E+01 -0.56016649351E+01  0.28854190979E+01  0.10753330537E+02  0.51100000000E-03 0. -1.
        -11    1    3    3    0    0  0.24042535354E+01  0.40261278550E+02 -0.11246637310E+02  0.41871682992E+02  0.51100000000E-03 0.  1.
         12    1    3    3    0    0  0.66239899294E+01 -0.35771300074E+02  0.86026203099E+01  0.37382726329E+02  0.00000000000E+00 0. -1.
</event>
<event>
 7    1  0.4195243E-015  0.9000776E+02  0.7816164E-02  0.1186339E+00
        -11   -1    0    0    0    0  0.00000000000E+00  0.00000000000E+00  0.45593999997E+02  0.45594000000E+02  0.51100000000E-03 0.  1.
         11   -1    0    0    0    0 -0.00000000000E+00 -0.00000000000E+00 -0.45593999997E+02  0.45594000000E+02  0.51100000000E-03 0. -1.
    9900012    2    1    2    0    0 -0.82417659549E+00  0.82970267731E+00  0.15902954991E+00  0.90007761045E+02  0.90000022691E+02 0.  0.
        -12    1    1    2    0    0  0.82417659549E+00 -0.82970267731E+00 -0.15902954991E+00  0.11802389551E+01  0.00000000000E+00 0.  1.
         11    1    3    3    0    0 -0.44750544938E+01  0.61075997646E+01 -0.60425081169E+01  0.96871457205E+01  0.51100000000E-03 0. -1.
        -11    1    3    3    0    0 -0.31297389218E+02 -0.20123656918E+01  0.25359575031E+02  0.40332173677E+02  0.51100000000E-03 0.  1.
         12    1    3    3    0    0  0.34948267116E+02 -0.32655313955E+01 -0.19158037364E+02  0.39988441647E+02  0.00000000000E+00 0. -1.
</event>
<event>
 7    1  0.4195243E-015  0.9000786E+02  0.7816164E-02  0.1186339E+00
        -11   -1    0    0    0    0  0.00000000000E+00  0.00000000000E+00  0.45593999997E+02  0.45594000000E+02  0.51100000000E-03 0.  1.
         11   -1    0    0    0    0 -0.00000000000E+00 -0.00000000000E+00 -0.45593999997E+02  0.45594000000E+02  0.51100000000E-03 0. -1.
    9900012    2    1    2    0    0  0.47404814912E+00  0.10550630717E+01 -0.23420999863E+00  0.90007858459E+02  0.90000121391E+02 0.  0.
        -12    1    1    2    0    0 -0.47404814912E+00 -0.10550630717E+01  0.23420999863E+00  0.11801415408E+01  0.00000000000E+00 0.  1.
         11    1    3    3    0    0 -0.38205243803E+01 -0.82651036661E+01 -0.24734828024E+00  0.91087609796E+01  0.51100000000E-03 0. -1.
        -11    1    3    3    0    0  0.14023863274E+02 -0.77586485590E+01  0.36272141869E+02  0.39655184335E+02  0.51100000000E-03 0.  1.
         12    1    3    3    0    0 -0.97292907449E+01  0.17078815297E+02 -0.36259003587E+02  0.41243913145E+02  0.00000000000E+00 0. -1.
</event>
<event>
 7    1  0.4195243E-015  0.9000777E+02  0.7816164E-02  0.1186339E+00
        -11   -1    0    0    0    0  0.00000000000E+00  0.00000000000E+00  0.45593999997E+02  0.45594000000E+02  0.51100000000E-03 0. -1.
         11   -1    0    0    0    0 -0.00000000000E+00 -0.00000000000E+00 -0.45593999997E+02  0.45594000000E+02  0.51100000000E-03 0.  1.
    9900012    2    1    2    0    0 -0.66842558105E+00  0.44884481732E-02 -0.97268620840E+00  0.90007774867E+02  0.90000036696E+02 0.  0.
        -12    1    1    2    0    0  0.66842558105E+00 -0.44884481732E-02  0.97268620840E+00  0.11802251326E+01  0.00000000000E+00 0.  1.
         11    1    3    3    0    0 -0.50878840681E-01 -0.39877666882E+02 -0.41381563010E+01  0.40091835110E+02  0.51100000000E-03 0. -1.
        -11    1    3    3    0    0 -0.59074421653E+01  0.20675608557E+01 -0.79781857952E+01  0.10140223354E+02  0.51100000000E-03 0.  1.
        -12    1    3    3    0    0  0.52898954250E+01  0.37814594475E+02  0.11143655888E+02  0.39775716404E+02  0.00000000000E+00 0.  1.
</event>
<event>
 7    1  0.4195243E-015  0.9000794E+02  0.7816164E-02  0.1186339E+00
        -11   -1    0    0    0    0  0.00000000000E+00  0.00000000000E+00  0.45593999997E+02  0.45594000000E+02  0.51100000000E-03 0.  1.
         11   -1    0    0    0    0 -0.00000000000E+00 -0.00000000000E+00 -0.45593999997E+02  0.45594000000E+02  0.51100000000E-03 0. -1.
    9900012    2    1    2    0    0  0.87777682214E+00 -0.87999497817E-01 -0.78377100660E+00  0.90007943623E+02  0.90000207679E+02 0.  0.
        -12    1    1    2    0    0 -0.87777682214E+00  0.87999497817E-01  0.78377100660E+00  0.11800563766E+01  0.00000000000E+00 0.  1.
         11    1    3    3    0    0 -0.91508656904E+01 -0.34162571345E+01  0.51951028075E+00  0.97815666887E+01  0.51100000000E-03 0. -1.
        -11    1    3    3    0    0 -0.18172650480E+02  0.10957564307E+02  0.30426228446E+02  0.37095401585E+02  0.51100000000E-03 0.  1.
         12    1    3    3    0    0  0.28201292993E+02 -0.76293066707E+01 -0.31729509733E+02  0.43130975350E+02  0.00000000000E+00 0. -1.
</event>
<event>
 7    1  0.4195243E-015  0.9000770E+02  0.7816164E-02  0.1186339E+00
        -11   -1    0    0    0    0  0.00000000000E+00  0.00000000000E+00  0.45593999997E+02  0.45594000000E+02  0.51100000000E-03 0. -1.
         11   -1    0    0    0    0 -0.00000000000E+00 -0.00000000000E+00 -0.45593999997E+02  0.45594000000E+02  0.51100000000E-03 0.  1.
    9900012    2    1    2    0    0  0.34757071593E+00 -0.96885605685E+00 -0.57759931005E+00  0.90007699858E+02  0.89999960696E+02 0.  0.
        -12    1    1    2    0    0 -0.34757071593E+00  0.96885605685E+00  0.57759931005E+00  0.11803001417E+01  0.00000000000E+00 0.  1.
         11    1    3    3    0    0  0.26501453454E+01  0.69124164093E+01  0.74256425533E+01  0.10485463202E+02  0.51100000000E-03 0. -1.
        -11    1    3    3    0    0  0.11364466039E+02  0.25528472504E+02 -0.26891925754E+02  0.38781821357E+02  0.51100000000E-03 0.  1.
         12    1    3    3    0    0 -0.13667040669E+02 -0.33409744970E+02  0.18888683891E+02  0.40740415299E+02  0.00000000000E+00 0. -1.
</event>
<event>
 7    1  0.4195243E-015  0.9000771E+02  0.7816164E-02  0.1186339E+00
        -11   -1    0    0    0    0  0.00000000000E+00  0.00000000000E+00  0.45593999997E+02  0.45594000000E+02  0.51100000000E-03 0. -1.
         11   -1    0    0    0    0 -0.00000000000E+00 -0.00000000000E+00 -0.45593999997E+02  0.45594000000E+02  0.51100000000E-03 0.  1.
    9900012    2    1    2    0    0 -0.77804487236E+00  0.55202327113E+00  0.69498470269E+00  0.90007708827E+02  0.89999969784E+02 0.  0.
        -12    1    1    2    0    0  0.77804487236E+00 -0.55202327113E+00 -0.69498470269E+00  0.11802911727E+01  0.00000000000E+00 0.  1.
         11    1    3    3    0    0 -0.11865170281E+02  0.29262710483E+02 -0.24953435571E+02  0.40246272345E+02  0.51100000000E-03 0. -1.
        -11    1    3    3    0    0 -0.40243660591E+01  0.36178720051E+01  0.87225911540E+01  0.10264897307E+02  0.51100000000E-03 0.  1.
        -12    1    3    3    0    0  0.15111491468E+02 -0.32328559217E+02  0.16925829120E+02  0.39496539175E+02  0.00000000000E+00 0.  1.
</event>
<event>
 7    1  0.4195243E-015  0.9000801E+02  0.7816164E-02  0.1186339E+00
        -11   -1    0    0    0    0  0.00000000000E+00  0.00000000000E+00  0.45593999997E+02  0.45594000000E+02  0.51100000000E-03 0.  1.
         11   -1    0    0    0    0 -0.00000000000E+00 -0.00000000000E+00 -0.45593999997E+02  0.45594000000E+02  0.51100000000E-03 0. -1.
    9900012    2    1    2    0    0  0.81752722220E-01 -0.19976100928E+00 -0.11600843646E+01  0.90008006906E+02  0.90000271797E+02 0.  0.
        -12    1    1    2    0    0 -0.81752722220E-01  0.19976100928E+00  0.11600843646E+01  0.11799930938E+01  0.00000000000E+00 0.  1.
         11    1    3    3    0    0  0.22811857418E+02 -0.40460216591E+01 -0.34631933544E+02  0.41666796750E+02  0.51100000000E-03 0. -1.
        -11    1    3    3    0    0  0.35177932448E+01 -0.59072020084E+01  0.67889288939E+01  0.96622699542E+01  0.51100000000E-03 0.  1.
        -12    1    3    3    0    0 -0.26247897941E+02  0.97534626583E+01  0.26682920286E+02  0.38678940202E+02  0.00000000000E+00 0.  1.
</event>
<event>
 7    1  0.4195243E-015  0.9000775E+02  0.7816164E-02  0.1186339E+00
        -11   -1    0    0    0    0  0.00000000000E+00  0.00000000000E+00  0.45593999997E+02  0.45594000000E+02  0.51100000000E-03 0.  1.
         11   -1    0    0    0    0 -0.00000000000E+00 -0.00000000000E+00 -0.45593999997E+02  0.45594000000E+02  0.51100000000E-03 0. -1.
    9900012    2    1    2    0    0  0.64591707825E+00 -0.98768106276E+00  0.16124677301E-01  0.90007753094E+02  0.90000014635E+02 0.  0.
        -12    1    1    2    0    0 -0.64591707825E+00  0.98768106276E+00 -0.16124677301E-01  0.11802469059E+01  0.00000000000E+00 0.  1.
         11    1    3    3    0    0 -0.54952381548E+00  0.81845401665E+01 -0.39226028083E+01  0.90926061839E+01  0.51100000000E-03 0. -1.
        -11    1    3    3    0    0 -0.29357921931E+02  0.22186720453E+02 -0.12932162173E+01  0.36821332852E+02  0.51100000000E-03 0.  1.
         12    1    3    3    0    0  0.30553362825E+02 -0.31358941682E+02  0.52319437029E+01  0.44093814058E+02  0.00000000000E+00 0. -1.
</event>
<event>
 7    1  0.4195243E-015  0.9000657E+02  0.7816164E-02  0.1186341E+00
        -11   -1    0    0    0    0  0.00000000000E+00  0.00000000000E+00  0.45593999997E+02  0.45594000000E+02  0.51100000000E-03 0.  1.
         11   -1    0    0    0    0 -0.00000000000E+00 -0.00000000000E+00 -0.45593999997E+02  0.45594000000E+02  0.51100000000E-03 0. -1.
    9900012    2    1    2    0    0  0.17780261185E+00  0.99224462006E+00  0.61612034740E+00  0.90006573981E+02  0.89998819950E+02 0.  0.
        -12    1    1    2    0    0 -0.17780261185E+00 -0.99224462006E+00 -0.61612034740E+00  0.11814260185E+01  0.00000000000E+00 0.  1.
         11    1    3    3    0    0 -0.49413088257E+01  0.10083707432E+02  0.85445033496E+00  0.11261783790E+02  0.51100000000E-03 0. -1.
        -11    1    3    3    0    0 -0.90670006598E+01 -0.87376665339E+01  0.36899134999E+02  0.38988504477E+02  0.51100000000E-03 0.  1.
         12    1    3    3    0    0  0.14186112097E+02 -0.35379627844E+00 -0.37137464986E+02  0.39756285715E+02  0.00000000000E+00 0. -1.
</event>
<event>
 7    1  0.4195243E-015  0.9000780E+02  0.7816164E-02  0.1186339E+00
        -11   -1    0    0    0    0  0.00000000000E+00  0.00000000000E+00  0.45593999997E+02  0.45594000000E+02  0.51100000000E-03 0.  1.
         11   -1    0    0    0    0 -0.00000000000E+00 -0.00000000000E+00 -0.45593999997E+02  0.45594000000E+02  0.51100000000E-03 0. -1.
    9900012    2    1    2    0    0 -0.78631628767E+00 -0.57000514577E+00 -0.67057549797E+00  0.90007800581E+02  0.90000062749E+02 0.  0.
        -12    1    1    2    0    0  0.78631628767E+00  0.57000514577E+00  0.67057549797E+00  0.11801994191E+01  0.00000000000E+00 0.  1.
         11    1    3    3    0    0  0.33062779583E+01 -0.91069374643E+01  0.58464681322E+01  0.11315872649E+02  0.51100000000E-03 0. -1.
        -11    1    3    3    0    0  0.46558998468E+01  0.18536649806E+02  0.32373591064E+02  0.37594337180E+02  0.51100000000E-03 0.  1.
         12    1    3    3    0    0 -0.87484940928E+01 -0.99997174877E+01 -0.38890634694E+02  0.41097590752E+02  0.00000000000E+00 0. -1.
</event>
<event>
 7    1  0.4195243E-015  0.9000771E+02  0.7816164E-02  0.1186339E+00
        -11   -1    0    0    0    0  0.00000000000E+00  0.00000000000E+00  0.45593999997E+02  0.45594000000E+02  0.51100000000E-03 0. -1.
         11   -1    0    0    0    0 -0.00000000000E+00 -0.00000000000E+00 -0.45593999997E+02  0.45594000000E+02  0.51100000000E-03 0.  1.
    9900012    2    1    2    0    0 -0.66953559173E+00 -0.97145177929E+00  0.32918235140E-01  0.90007711866E+02  0.89999972863E+02 0.  0.
        -12    1    1    2    0    0  0.66953559173E+00  0.97145177929E+00 -0.32918235140E-01  0.11802881336E+01  0.00000000000E+00 0.  1.
         11    1    3    3    0    0 -0.93712515631E+01 -0.81854786844E+00  0.36004363244E+01  0.10072413736E+02  0.51100000000E-03 0. -1.
        -11    1    3    3    0    0 -0.57590891827E+01 -0.37578376656E+02  0.65015329475E+01  0.38569047580E+02  0.51100000000E-03 0.  1.
         12    1    3    3    0    0  0.14460805154E+02  0.37425472745E+02 -0.10069051037E+02  0.41366250551E+02  0.00000000000E+00 0. -1.
</event>
<event>
 7    1  0.4195243E-015  0.9000763E+02  0.7816164E-02  0.1186339E+00
        -11   -1    0    0    0    0  0.00000000000E+00  0.00000000000E+00  0.45593999997E+02  0.45594000000E+02  0.51100000000E-03 0.  1.
         11   -1    0    0    0    0 -0.00000000000E+00 -0.00000000000E+00 -0.45593999997E+02  0.45594000000E+02  0.51100000000E-03 0. -1.
    9900012    2    1    2    0    0  0.24960268524E+00 -0.79781256419E+00 -0.83334630272E+00  0.90007630376E+02  0.89999890297E+02 0.  0.
        -12    1    1    2    0    0 -0.24960268524E+00  0.79781256419E+00  0.83334630272E+00  0.11803696236E+01  0.00000000000E+00 0.  1.
         11    1    3    3    0    0 -0.43997530228E+01  0.65617864389E+01 -0.58240286034E+01  0.98149975733E+01  0.51100000000E-03 0. -1.
        -11    1    3    3    0    0  0.40926529683E+02 -0.13622543579E+02  0.45789230008E+01  0.43376503565E+02  0.51100000000E-03 0.  1.
         12    1    3    3    0    0 -0.36277173975E+02  0.62629445759E+01  0.41175929986E+00  0.36816129238E+02  0.00000000000E+00 0. -1.
</event>
<event>
 7    1  0.4195243E-015  0.9000789E+02  0.7816164E-02  0.1186339E+00
        -11   -1    0    0    0    0  0.00000000000E+00  0.00000000000E+00  0.45593999997E+02  0.45594000000E+02  0.51100000000E-03 0.  1.
         11   -1    0    0    0    0 -0.00000000000E+00 -0.00000000000E+00 -0.45593999997E+02  0.45594000000E+02  0.51100000000E-03 0. -1.
    9900012    2    1    2    0    0 -0.10066709378E+01  0.62984774461E-01 -0.61262606727E+00  0.90007888074E+02  0.90000151397E+02 0.  0.
        -12    1    1    2    0    0  0.10066709378E+01 -0.62984774461E-01  0.61262606727E+00  0.11801119257E+01  0.00000000000E+00 0.  1.
         11    1    3    3    0    0  0.48780243578E+01 -0.37428307151E+01 -0.74809655017E+01  0.96834264853E+01  0.51100000000E-03 0. -1.
        -11    1    3    3    0    0 -0.40995140268E+02  0.13011990083E+02 -0.16451551227E+01  0.43042071827E+02  0.51100000000E-03 0.  1.
         12    1    3    3    0    0  0.35110444972E+02 -0.92061745936E+01  0.85134945571E+01  0.37282389762E+02  0.00000000000E+00 0. -1.
</event>
<event>
 7    1  0.4195243E-015  0.9000775E+02  0.7816164E-02  0.1186339E+00
        -11   -1    0    0    0    0  0.00000000000E+00  0.00000000000E+00  0.45593999997E+02  0.45594000000E+02  0.51100000000E-03 0. -1.
         11   -1    0    0    0    0 -0.00000000000E+00 -0.00000000000E+00 -0.45593999997E+02  0.45594000000E+02  0.51100000000E-03 0.  1.
    9900012    2    1    2    0    0  0.93382165228E+00 -0.68435707142E+00  0.22937351524E+00  0.90007754395E+02  0.90000015953E+02 0.  0.
        -12    1    1    2    0    0 -0.93382165228E+00  0.68435707142E+00 -0.22937351524E+00  0.11802456054E+01  0.00000000000E+00 0.  1.
         11    1    3    3    0    0  0.30609794022E+01 -0.10666082466E+02 -0.40017978325E+01  0.11796155994E+02  0.51100000000E-03 0. -1.
        -11    1    3    3    0    0  0.61367830592E+01  0.28688377320E+02 -0.27663817549E+02  0.40323317091E+02  0.51100000000E-03 0.  1.
         12    1    3    3    0    0 -0.82639408092E+01 -0.18706651926E+02  0.31894988896E+02  0.37888281310E+02  0.00000000000E+00 0. -1.
</event>
<event>
 7    1  0.4195243E-015  0.9000772E+02  0.7816164E-02  0.1186339E+00
        -11   -1    0    0    0    0  0.00000000000E+00  0.00000000000E+00  0.45593999997E+02  0.45594000000E+02  0.51100000000E-03 0.  1.
         11   -1    0    0    0    0 -0.00000000000E+00 -0.00000000000E+00 -0.45593999997E+02  0.45594000000E+02  0.51100000000E-03 0. -1.
    9900012    2    1    2    0    0  0.11593659556E+01 -0.17805816149E+00 -0.13125962036E+00  0.90007719010E+02  0.89999980101E+02 0.  0.
        -12    1    1    2    0    0 -0.11593659556E+01  0.17805816149E+00  0.13125962036E+00  0.11802809902E+01  0.00000000000E+00 0.  1.
         11    1    3    3    0    0 -0.38980982011E+02 -0.14937950898E+02  0.82046128552E+01  0.42543801052E+02  0.51100000000E-03 0. -1.
        -11    1    3    3    0    0  0.69925285906E+01 -0.18306659633E+01 -0.74575792773E+01  0.10385676815E+02  0.51100000000E-03 0.  1.
        -12    1    3    3    0    0  0.33147819376E+02  0.16590558700E+02 -0.87829319821E+00  0.37078241143E+02  0.00000000000E+00 0.  1.
</event>
<event>
 7    1  0.4195243E-015  0.9000806E+02  0.7816164E-02  0.1186338E+00
        -11   -1    0    0    0    0  0.00000000000E+00  0.00000000000E+00  0.45593999997E+02  0.45594000000E+02  0.51100000000E-03 0. -1.
         11   -1    0    0    0    0 -0.00000000000E+00 -0.00000000000E+00 -0.45593999997E+02  0.45594000000E+02  0.51100000000E-03 0.  1.
    9900012    2    1    2    0    0 -0.16586638806E+00  0.11501246728E+01 -0.20484991724E+00  0.90008058514E+02  0.90000324086E+02 0.  0.
        -12    1    1    2    0    0  0.16586638806E+00 -0.11501246728E+01  0.20484991724E+00  0.11799414860E+01  0.00000000000E+00 0.  1.
         11    1    3    3    0    0  0.69772829033E+01  0.72963878697E+01  0.34865019900E+01  0.10680610893E+02  0.51100000000E-03 0. -1.
        -11    1    3    3    0    0  0.24387889164E+01  0.29203834042E+02 -0.23612499767E+02  0.37634581964E+02  0.51100000000E-03 0.  1.
         12    1    3    3    0    0 -0.95819382078E+01 -0.35350097239E+02  0.19921147860E+02  0.41692865657E+02  0.00000000000E+00 0. -1.
</event>
<event>
 7    1  0.4195243E-015  0.9000694E+02  0.7816164E-02  0.1186341E+00
        -11   -1    0    0    0    0  0.00000000000E+00  0.00000000000E+00  0.45593999997E+02  0.45594000000E+02  0.51100000000E-03 0.  1.
         11   -1    0    0    0    0 -0.00000000000E+00 -0.00000000000E+00 -0.45593999997E+02  0.45594000000E+02  0.51100000000E-03 0. -1.
    9900012    2    1    2    0    0  0.11102955098E+01 -0.32247754887E+00 -0.24116899058E+00  0.90006936763E+02  0.89999187524E+02 0.  0.
        -12    1    1    2    0    0 -0.11102955098E+01  0.32247754887E+00  0.24116899058E+00  0.11810632374E+01  0.00000000000E+00 0.  1.
         11    1    3    3    0    0 -0.69443562582E+00  0.21130625848E+02 -0.26019443148E+02  0.33526064660E+02  0.51100000000E-03 0. -1.
        -11    1    3    3    0    0 -0.84843490129E+01  0.12272595585E+02  0.62703138969E+01  0.16183869043E+02  0.51100000000E-03 0.  1.
        -12    1    3    3    0    0  0.10289080149E+02 -0.33725698981E+02  0.19507960261E+02  0.40297003060E+02  0.00000000000E+00 0.  1.
</event>
<event>
 7    1  0.4195243E-015  0.9000779E+02  0.7816164E-02  0.1186339E+00
        -11   -1    0    0    0    0  0.00000000000E+00  0.00000000000E+00  0.45593999997E+02  0.45594000000E+02  0.51100000000E-03 0.  1.
         11   -1    0    0    0    0 -0.00000000000E+00 -0.00000000000E+00 -0.45593999997E+02  0.45594000000E+02  0.51100000000E-03 0. -1.
    9900012    2    1    2    0    0  0.29209317694E+00 -0.11414407659E+01 -0.68525262096E-01  0.90007787664E+02  0.90000049661E+02 0.  0.
        -12    1    1    2    0    0 -0.29209317694E+00  0.11414407659E+01  0.68525262096E-01  0.11802123358E+01  0.00000000000E+00 0.  1.
         11    1    3    3    0    0 -0.31782376931E+01  0.88444420736E+01 -0.57518860308E+01  0.11018599893E+02  0.51100000000E-03 0. -1.
        -11    1    3    3    0    0 -0.28892088183E+02 -0.29119837764E+02  0.55391990076E+01  0.41393241439E+02  0.51100000000E-03 0.  1.
         12    1    3    3    0    0  0.32362419053E+02  0.19133954924E+02  0.14416176118E+00  0.37595946332E+02  0.00000000000E+00 0. -1.
</event>
<event>
 7    1  0.4195243E-015  0.9000782E+02  0.7816164E-02  0.1186339E+00
        -11   -1    0    0    0    0  0.00000000000E+00  0.00000000000E+00  0.45593999997E+02  0.45594000000E+02  0.51100000000E-03 0.  1.
         11   -1    0    0    0    0 -0.00000000000E+00 -0.00000000000E+00 -0.45593999997E+02  0.45594000000E+02  0.51100000000E-03 0. -1.
    9900012    2    1    2    0    0  0.98519837362E+00 -0.29526593699E+00 -0.57880770351E+00  0.90007823671E+02  0.90000086144E+02 0.  0.
        -12    1    1    2    0    0 -0.98519837362E+00  0.29526593699E+00  0.57880770351E+00  0.11801763286E+01  0.00000000000E+00 0.  1.
         11    1    3    3    0    0 -0.33985495278E+02 -0.76666243600E+01 -0.26209753144E+01  0.34937952577E+02  0.51100000000E-03 0. -1.
        -11    1    3    3    0    0 -0.89341785603E+01  0.42873606772E+01  0.47182063561E+01  0.10975540060E+02  0.51100000000E-03 0.  1.
        -12    1    3    3    0    0  0.43904872212E+02  0.30839977458E+01 -0.26760387452E+01  0.44094331035E+02  0.00000000000E+00 0.  1.
</event>
<event>
 7    1  0.4195243E-015  0.9000776E+02  0.7816164E-02  0.1186339E+00
        -11   -1    0    0    0    0  0.00000000000E+00  0.00000000000E+00  0.45593999997E+02  0.45594000000E+02  0.51100000000E-03 0.  1.
         11   -1    0    0    0    0 -0.00000000000E+00 -0.00000000000E+00 -0.45593999997E+02  0.45594000000E+02  0.51100000000E-03 0. -1.
    9900012    2    1    2    0    0  0.19550957057E+00  0.85493903080E+00  0.78982350878E+00  0.90007760230E+02  0.90000021866E+02 0.  0.
        -12    1    1    2    0    0 -0.19550957057E+00 -0.85493903080E+00 -0.78982350878E+00  0.11802397695E+01  0.00000000000E+00 0.  1.
         11    1    3    3    0    0 -0.58442813477E+01 -0.53851532203E+01 -0.52771949870E+01  0.95396167045E+01  0.51100000000E-03 0. -1.
        -11    1    3    3    0    0  0.94617070442E+00 -0.35414850397E+02  0.13381101177E+02  0.37870314715E+02  0.51100000000E-03 0.  1.
         12    1    3    3    0    0  0.50936202139E+01  0.41654942648E+02 -0.73140826812E+01  0.42597828811E+02  0.00000000000E+00 0. -1.
</event>
<event>
 7    1  0.4195243E-015  0.9000777E+02  0.7816164E-02  0.1186339E+00
        -11   -1    0    0    0    0  0.00000000000E+00  0.00000000000E+00  0.45593999997E+02  0.45594000000E+02  0.51100000000E-03 0. -1.
         11   -1    0    0    0    0 -0.00000000000E+00 -0.00000000000E+00 -0.45593999997E+02  0.45594000000E+02  0.51100000000E-03 0.  1.
    9900012    2    1    2    0    0 -0.50734117082E+00 -0.11390006515E+00  0.10595117492E+01  0.90007773990E+02  0.90000035807E+02 0.  0.
        -12    1    1    2    0    0  0.50734117082E+00  0.11390006515E+00 -0.10595117492E+01  0.11802260102E+01  0.00000000000E+00 0.  1.
         11    1    3    3    0    0  0.36100073991E+01  0.14206593706E+02 -0.38662306698E+01  0.15159393061E+02  0.51100000000E-03 0. -1.
        -11    1    3    3    0    0  0.28581450330E+01 -0.88589337950E+01 -0.33832917676E+02  0.35090112849E+02  0.51100000000E-03 0.  1.
         12    1    3    3    0    0 -0.69754936030E+01 -0.54615599758E+01  0.38758660095E+02  0.39758268080E+02  0.00000000000E+00 0. -1.
</event>
<event>
 7    1  0.4195243E-015  0.9000775E+02  0.7816164E-02  0.1186339E+00
        -11   -1    0    0    0    0  0.00000000000E+00  0.00000000000E+00  0.45593999997E+02  0.45594000000E+02  0.51100000000E-03 0.  1.
         11   -1    0    0    0    0 -0.00000000000E+00 -0.00000000000E+00 -0.45593999997E+02  0.45594000000E+02  0.51100000000E-03 0. -1.
    9900012    2    1    2    0    0 -0.20151527336E+00  0.11558514927E+01 -0.12803480154E+00  0.90007748337E+02  0.90000009815E+02 0.  0.
        -12    1    1    2    0    0  0.20151527336E+00 -0.11558514927E+01  0.12803480154E+00  0.11802516634E+01  0.00000000000E+00 0.  1.
         11    1    3    3    0    0  0.54576187575E+01  0.52660702747E+01 -0.32900731636E+01  0.82669027044E+01  0.51100000000E-03 0. -1.
        -11    1    3    3    0    0  0.30866382527E+02  0.20958302713E+02  0.31282883297E+01  0.37440221835E+02  0.51100000000E-03 0.  1.
         12    1    3    3    0    0 -0.36525516558E+02 -0.25068521495E+02  0.33750032367E-01  0.44300623797E+02  0.00000000000E+00 0. -1.
</event>
<event>
 7    1  0.4195243E-015  0.9000765E+02  0.7816164E-02  0.1186339E+00
        -11   -1    0    0    0    0  0.00000000000E+00  0.00000000000E+00  0.45593999997E+02  0.45594000000E+02  0.51100000000E-03 0. -1.
         11   -1    0    0    0    0 -0.00000000000E+00 -0.00000000000E+00 -0.45593999997E+02  0.45594000000E+02  0.51100000000E-03 0.  1.
    9900012    2    1    2    0    0  0.10756460188E+01  0.17833026884E+00 -0.45211634754E+00  0.90007650376E+02  0.89999910561E+02 0.  0.
        -12    1    1    2    0    0 -0.10756460188E+01 -0.17833026884E+00  0.45211634754E+00  0.11803496238E+01  0.00000000000E+00 0.  1.
         11    1    3    3    0    0  0.82402015430E+01 -0.43528988368E+01  0.48963160617E+01  0.10527229502E+02  0.51100000000E-03 0. -1.
        -11    1    3    3    0    0  0.94176263623E+01 -0.33498629069E+02 -0.13272635976E+02  0.37242619427E+02  0.51100000000E-03 0.  1.
         12    1    3    3    0    0 -0.16582181886E+02  0.38029858174E+02  0.79242035671E+01  0.42237801447E+02  0.00000000000E+00 0. -1.
</event>
<event>
 7    1  0.4195243E-015  0.9000765E+02  0.7816164E-02  0.1186339E+00
        -11   -1    0    0    0    0  0.00000000000E+00  0.00000000000E+00  0.45593999997E+02  0.45594000000E+02  0.51100000000E-03 0.  1.
         11   -1    0    0    0    0 -0.00000000000E+00 -0.00000000000E+00 -0.45593999997E+02  0.45594000000E+02  0.51100000000E-03 0. -1.
    9900012    2    1    2    0    0 -0.70112897370E+00 -0.39849554146E+00 -0.86189072655E+00  0.90007645749E+02  0.89999905872E+02 0.  0.
        -12    1    1    2    0    0  0.70112897370E+00  0.39849554146E+00  0.86189072655E+00  0.11803542514E+01  0.00000000000E+00 0.  1.
         11    1    3    3    0    0  0.88565914876E+01 -0.11210454361E+01  0.35785319161E+01  0.96177880297E+01  0.51100000000E-03 0. -1.
        -11    1    3    3    0    0  0.20952458823E+02  0.27239687481E+02 -0.16617270707E+02  0.38172500453E+02  0.51100000000E-03 0.  1.
         12    1    3    3    0    0 -0.30510179284E+02 -0.26517137587E+02  0.12176848064E+02  0.42217357266E+02  0.00000000000E+00 0. -1.
</event>
<event>
 7    1  0.4195243E-015  0.9000770E+02  0.7816164E-02  0.1186339E+00
        -11   -1    0    0    0    0  0.00000000000E+00  0.00000000000E+00  0.45593999997E+02  0.45594000000E+02  0.51100000000E-03 0. -1.
         11   -1    0    0    0    0 -0.00000000000E+00 -0.00000000000E+00 -0.45593999997E+02  0.45594000000E+02  0.51100000000E-03 0.  1.
    9900012    2    1    2    0    0 -0.91532180954E-01  0.32752725200E+00  0.11302438565E+01  0.90007701980E+02  0.89999962846E+02 0.  0.
        -12    1    1    2    0    0  0.91532180954E-01 -0.32752725200E+00 -0.11302438565E+01  0.11802980200E+01  0.00000000000E+00 0.  1.
         11    1    3    3    0    0 -0.28045352746E+02  0.90339030326E+01 -0.21772255931E+02  0.36635834142E+02  0.51100000000E-03 0. -1.
        -11    1    3    3    0    0  0.22119897694E+01  0.59321943943E+01 -0.82440991377E+01  0.10394662088E+02  0.51100000000E-03 0.  1.
        -12    1    3    3    0    0  0.25741830796E+02 -0.14638570175E+02  0.31146598926E+02  0.42977205750E+02  0.00000000000E+00 0.  1.
</event>
<event>
 7    1  0.4195243E-015  0.9000772E+02  0.7816164E-02  0.1186339E+00
        -11   -1    0    0    0    0  0.00000000000E+00  0.00000000000E+00  0.45593999997E+02  0.45594000000E+02  0.51100000000E-03 0.  1.
         11   -1    0    0    0    0 -0.00000000000E+00 -0.00000000000E+00 -0.45593999997E+02  0.45594000000E+02  0.51100000000E-03 0. -1.
    9900012    2    1    2    0    0  0.88807307510E+00  0.31028258419E-01 -0.77681048104E+00  0.90007715686E+02  0.89999976733E+02 0.  0.
        -12    1    1    2    0    0 -0.88807307510E+00 -0.31028258419E-01  0.77681048104E+00  0.11802843145E+01  0.00000000000E+00 0.  1.
         11    1    3    3    0    0 -0.11489868245E+02  0.32974287123E+02  0.14547176525E+02  0.37827781175E+02  0.51100000000E-03 0. -1.
        -11    1    3    3    0    0 -0.87206203303E+01  0.17670601717E+01 -0.40462139762E+00  0.89070443657E+01  0.51100000000E-03 0.  1.
        -12    1    3    3    0    0  0.21098561650E+02 -0.34710319036E+02 -0.14919365609E+02  0.43272890144E+02  0.00000000000E+00 0.  1.
</event>
<event>
 7    1  0.4195243E-015  0.9000765E+02  0.7816164E-02  0.1186339E+00
        -11   -1    0    0    0    0  0.00000000000E+00  0.00000000000E+00  0.45593999997E+02  0.45594000000E+02  0.51100000000E-03 0. -1.
         11   -1    0    0    0    0 -0.00000000000E+00 -0.00000000000E+00 -0.45593999997E+02  0.45594000000E+02  0.51100000000E-03 0.  1.
    9900012    2    1    2    0    0  0.67390078229E+00  0.18882513020E+00  0.95048360646E+00  0.90007654169E+02  0.89999914404E+02 0.  0.
        -12    1    1    2    0    0 -0.67390078229E+00 -0.18882513020E+00 -0.95048360646E+00  0.11803458308E+01  0.00000000000E+00 0.  1.
         11    1    3    3    0    0 -0.18922843329E+02 -0.21410778858E+02  0.14610560128E+02  0.32093050938E+02  0.51100000000E-03 0. -1.
        -11    1    3    3    0    0  0.35379665115E+01 -0.11907857732E+02  0.81238408084E+01  0.14842879524E+02  0.51100000000E-03 0.  1.
        -12    1    3    3    0    0  0.16058777600E+02  0.33507461720E+02 -0.21783917330E+02  0.43071723708E+02  0.00000000000E+00 0.  1.
</event>
<event>
 7    1  0.4195243E-015  0.9000759E+02  0.7816164E-02  0.1186339E+00
        -11   -1    0    0    0    0  0.00000000000E+00  0.00000000000E+00  0.45593999997E+02  0.45594000000E+02  0.51100000000E-03 0.  1.
         11   -1    0    0    0    0 -0.00000000000E+00 -0.00000000000E+00 -0.45593999997E+02  0.45594000000E+02  0.51100000000E-03 0. -1.
    9900012    2    1    2    0    0  0.10379139677E+00 -0.25852275806E+00 -0.11470639507E+01  0.90007592283E+02  0.89999851701E+02 0.  0.
        -12    1    1    2    0    0 -0.10379139677E+00  0.25852275806E+00  0.11470639507E+01  0.11804077166E+01  0.00000000000E+00 0.  1.
         11    1    3    3    0    0  0.18460820220E+02  0.30980714713E+02  0.25273102902E+02  0.44037896156E+02  0.51100000000E-03 0. -1.
        -11    1    3    3    0    0 -0.29699146177E+01 -0.36014801677E+01 -0.82793581980E+01  0.95046738327E+01  0.51100000000E-03 0.  1.
        -12    1    3    3    0    0 -0.15387114205E+02 -0.27637757303E+02 -0.18140808654E+02  0.36465022295E+02  0.00000000000E+00 0.  1.
</event>
<event>
 7    1  0.4195243E-015  0.9000777E+02  0.7816164E-02  0.1186339E+00
        -11   -1    0    0    0    0  0.00000000000E+00  0.00000000000E+00  0.45593999997E+02  0.45594000000E+02  0.51100000000E-03 0.  1.
         11   -1    0    0    0    0 -0.00000000000E+00 -0.00000000000E+00 -0.45593999997E+02  0.45594000000E+02  0.51100000000E-03 0. -1.
    9900012    2    1    2    0    0 -0.56436087852E+00  0.42437166366E+00 -0.94570232823E+00  0.90007768072E+02  0.90000029811E+02 0.  0.
        -12    1    1    2    0    0  0.56436087852E+00 -0.42437166366E+00  0.94570232823E+00  0.11802319279E+01  0.00000000000E+00 0.  1.
         11    1    3    3    0    0 -0.16813827005E+00  0.48749968466E+01  0.48598662419E+01  0.68856491984E+01  0.51100000000E-03 0. -1.
        -11    1    3    3    0    0  0.12897038987E+02  0.35067149606E+02 -0.15277006182E+02  0.40366143168E+02  0.51100000000E-03 0.  1.
         12    1    3    3    0    0 -0.13293261596E+02 -0.39517774789E+02  0.94714376118E+01  0.42755975706E+02  0.00000000000E+00 0. -1.
</event>
<event>
 7    1  0.4195243E-015  0.9000907E+02  0.7816164E-02  0.1186336E+00
        -11   -1    0    0    0    0  0.00000000000E+00  0.00000000000E+00  0.45593999997E+02  0.45594000000E+02  0.51100000000E-03 0.  1.
         11   -1    0    0    0    0 -0.00000000000E+00 -0.00000000000E+00 -0.45593999997E+02  0.45594000000E+02  0.51100000000E-03 0. -1.
    9900012    2    1    2    0    0 -0.76523210034E+00  0.81895046857E+00  0.36554572565E+00  0.90009066705E+02  0.90001345575E+02 0.  0.
        -12    1    1    2    0    0  0.76523210034E+00 -0.81895046857E+00 -0.36554572565E+00  0.11789332954E+01  0.00000000000E+00 0.  1.
         11    1    3    3    0    0 -0.10960049498E+01  0.90669419745E+01 -0.23030538532E+00  0.91358472212E+01  0.51100000000E-03 0. -1.
        -11    1    3    3    0    0  0.15387354476E+02 -0.52612233820E+01  0.37516188149E+02  0.40889063608E+02  0.51100000000E-03 0.  1.
         12    1    3    3    0    0 -0.15056581626E+02 -0.29867681239E+01 -0.36920337038E+02  0.39984155876E+02  0.00000000000E+00 0. -1.
</event>
<event>
 7    1  0.4195243E-015  0.9000777E+02  0.7816164E-02  0.1186339E+00
        -11   -1    0    0    0    0  0.00000000000E+00  0.00000000000E+00  0.45593999997E+02  0.45594000000E+02  0.51100000000E-03 0. -1.
         11   -1    0    0    0    0 -0.00000000000E+00 -0.00000000000E+00 -0.45593999997E+02  0.45594000000E+02  0.51100000000E-03 0.  1.
    9900012    2    1    2    0    0 -0.17582071654E+00 -0.11434454106E+01 -0.23359594035E+00  0.90007768076E+02  0.90000029814E+02 0.  0.
        -12    1    1    2    0    0  0.17582071654E+00  0.11434454106E+01  0.23359594035E+00  0.11802319241E+01  0.00000000000E+00 0.  1.
         11    1    3    3    0    0  0.23564946034E+01 -0.78516424397E+01 -0.55221187806E+01  0.98840857901E+01  0.51100000000E-03 0. -1.
        -11    1    3    3    0    0 -0.34695376872E+01  0.13320578864E+02 -0.35873321379E+02  0.38423569590E+02  0.51100000000E-03 0.  1.
         12    1    3    3    0    0  0.93722236728E+00 -0.66123818344E+01  0.41161844219E+02  0.41700112696E+02  0.00000000000E+00 0. -1.
</event>
<event>
 7    1  0.4195243E-015  0.9000783E+02  0.7816164E-02  0.1186339E+00
        -11   -1    0    0    0    0  0.00000000000E+00  0.00000000000E+00  0.45593999997E+02  0.45594000000E+02  0.51100000000E-03 0.  1.
         11   -1    0    0    0    0 -0.00000000000E+00 -0.00000000000E+00 -0.45593999997E+02  0.45594000000E+02  0.51100000000E-03 0. -1.
    9900012    2    1    2    0    0 -0.79114359755E+00 -0.10000272393E+00 -0.86999922082E+00  0.90007827394E+02  0.90000089915E+02 0.  0.
        -12    1    1    2    0    0  0.79114359755E+00  0.10000272393E+00  0.86999922082E+00  0.11801726064E+01  0.00000000000E+00 0.  1.
         11    1    3    3    0    0  0.79299181238E+01 -0.85731201826E+00 -0.57676450719E+01  0.98429830480E+01  0.51100000000E-03 0. -1.
        -11    1    3    3    0    0 -0.33856751635E+02 -0.25046538458E+02  0.11239089729E+02  0.43588138962E+02  0.51100000000E-03 0.  1.
         12    1    3    3    0    0  0.25135689914E+02  0.25803847752E+02 -0.63414438776E+01  0.36576705383E+02  0.00000000000E+00 0. -1.
</event>
<event>
 7    1  0.4195243E-015  0.9000787E+02  0.7816164E-02  0.1186339E+00
        -11   -1    0    0    0    0  0.00000000000E+00  0.00000000000E+00  0.45593999997E+02  0.45594000000E+02  0.51100000000E-03 0.  1.
         11   -1    0    0    0    0 -0.00000000000E+00 -0.00000000000E+00 -0.45593999997E+02  0.45594000000E+02  0.51100000000E-03 0. -1.
    9900012    2    1    2    0    0 -0.34649002130E+00 -0.10969125176E+01 -0.26348683300E+00  0.90007873855E+02  0.90000136990E+02 0.  0.
        -12    1    1    2    0    0  0.34649002130E+00  0.10969125176E+01  0.26348683300E+00  0.11801261447E+01  0.00000000000E+00 0.  1.
         11    1    3    3    0    0 -0.80446857298E+01  0.20607762208E+02 -0.37603610825E+02  0.43628297916E+02  0.51100000000E-03 0. -1.
        -11    1    3    3    0    0 -0.25093204640E+01  0.10266367623E-01  0.85023770403E+01  0.88649427627E+01  0.51100000000E-03 0.  1.
        -12    1    3    3    0    0  0.10207516173E+02 -0.21714941093E+02  0.28837746952E+02  0.37514633176E+02  0.00000000000E+00 0.  1.
</event>
<event>
 7    1  0.4195243E-015  0.9000774E+02  0.7816164E-02  0.1186339E+00
        -11   -1    0    0    0    0  0.00000000000E+00  0.00000000000E+00  0.45593999997E+02  0.45594000000E+02  0.51100000000E-03 0.  1.
         11   -1    0    0    0    0 -0.00000000000E+00 -0.00000000000E+00 -0.45593999997E+02  0.45594000000E+02  0.51100000000E-03 0. -1.
    9900012    2    1    2    0    0 -0.44415467348E+00  0.18862760023E+00 -0.10771090212E+01  0.90007738339E+02  0.89999999685E+02 0.  0.
        -12    1    1    2    0    0  0.44415467348E+00 -0.18862760023E+00  0.10771090212E+01  0.11802616612E+01  0.00000000000E+00 0.  1.
         11    1    3    3    0    0 -0.11291659890E+02 -0.11801245133E+02  0.94258449448E+01  0.18857823919E+02  0.51100000000E-03 0. -1.
        -11    1    3    3    0    0  0.21952276565E+02 -0.28276140938E+01  0.23593155676E+02  0.32350190770E+02  0.51100000000E-03 0.  1.
         12    1    3    3    0    0 -0.11104771349E+02  0.14817486828E+02 -0.34096109642E+02  0.38799723650E+02  0.00000000000E+00 0. -1.
</event>
<event>
 7    1  0.4195243E-015  0.9000771E+02  0.7816164E-02  0.1186339E+00
        -11   -1    0    0    0    0  0.00000000000E+00  0.00000000000E+00  0.45593999997E+02  0.45594000000E+02  0.51100000000E-03 0. -1.
         11   -1    0    0    0    0 -0.00000000000E+00 -0.00000000000E+00 -0.45593999997E+02  0.45594000000E+02  0.51100000000E-03 0.  1.
    9900012    2    1    2    0    0 -0.10030744002E+01 -0.91373614518E-01 -0.61528344955E+00  0.90007711428E+02  0.89999972419E+02 0.  0.
        -12    1    1    2    0    0  0.10030744002E+01  0.91373614518E-01  0.61528344955E+00  0.11802885720E+01  0.00000000000E+00 0.  1.
         11    1    3    3    0    0 -0.10137926576E+02 -0.52798916007E+01 -0.83333497805E+01  0.14145654082E+02  0.51100000000E-03 0. -1.
        -11    1    3    3    0    0  0.24113352806E+02 -0.13366046678E+02 -0.23743419591E+02  0.36384817734E+02  0.51100000000E-03 0.  1.
         12    1    3    3    0    0 -0.14978500631E+02  0.18554564664E+02  0.31461485922E+02  0.39477239613E+02  0.00000000000E+00 0. -1.
</event>
<event>
 7    1  0.4957117E-015  0.9000783E+02  0.7816164E-02  0.1186339E+00
        -11   -1    0    0    0    0  0.00000000000E+00  0.00000000000E+00  0.45593999997E+02  0.45594000000E+02  0.51100000000E-03 0. -1.
         11   -1    0    0    0    0 -0.00000000000E+00 -0.00000000000E+00 -0.45593999997E+02  0.45594000000E+02  0.51100000000E-03 0.  1.
    9900012    2    1    2    0    0 -0.59026588404E+00  0.89748302144E+00  0.48879775261E+00  0.90007825085E+02  0.90000087576E+02 0.  0.
        -12    1    1    2    0    0  0.59026588404E+00 -0.89748302144E+00 -0.48879775261E+00  0.11801749153E+01  0.00000000000E+00 0.  1.
         11    1    3    3    0    0 -0.37652569481E+02  0.78129817565E+01  0.21152569560E+02  0.43888379689E+02  0.51100000000E-03 0. -1.
        -11    1    3    3    0    0  0.74782874664E+01  0.52128369855E+01 -0.30336341047E+01  0.96073611887E+01  0.51100000000E-03 0.  1.
        -12    1    3    3    0    0  0.29584016130E+02 -0.12128335721E+02 -0.17630137703E+02  0.36512084207E+02  0.00000000000E+00 0.  1.
</event>
<event>
 7    1  0.4195243E-015  0.9000764E+02  0.7816164E-02  0.1186339E+00
        -11   -1    0    0    0    0  0.00000000000E+00  0.00000000000E+00  0.45593999997E+02  0.45594000000E+02  0.51100000000E-03 0.  1.
         11   -1    0    0    0    0 -0.00000000000E+00 -0.00000000000E+00 -0.45593999997E+02  0.45594000000E+02  0.51100000000E-03 0. -1.
    9900012    2    1    2    0    0 -0.56653542746E+00 -0.43689823094E+00 -0.93882759666E+00  0.90007644244E+02  0.89999904348E+02 0.  0.
        -12    1    1    2    0    0  0.56653542746E+00  0.43689823094E+00  0.93882759666E+00  0.11803557561E+01  0.00000000000E+00 0.  1.
         11    1    3    3    0    0 -0.25428578405E+01 -0.40613262011E+02 -0.14851597037E+01  0.40719883064E+02  0.51100000000E-03 0. -1.
        -11    1    3    3    0    0  0.53691857810E+00  0.11210702448E+01  0.91799131882E+01  0.92636864399E+01  0.51100000000E-03 0.  1.
        -12    1    3    3    0    0  0.14394038350E+01  0.39055293535E+02 -0.86335810812E+01  0.40024074740E+02  0.00000000000E+00 0.  1.
</event>
<event>
 7    1  0.4195243E-015  0.9000769E+02  0.7816164E-02  0.1186339E+00
        -11   -1    0    0    0    0  0.00000000000E+00  0.00000000000E+00  0.45593999997E+02  0.45594000000E+02  0.51100000000E-03 0. -1.
         11   -1    0    0    0    0 -0.00000000000E+00 -0.00000000000E+00 -0.45593999997E+02  0.45594000000E+02  0.51100000000E-03 0.  1.
    9900012    2    1    2    0    0 -0.88743101601E+00  0.20899679382E+00  0.74960912701E+00  0.90007691857E+02  0.89999952590E+02 0.  0.
        -12    1    1    2    0    0  0.88743101601E+00 -0.20899679382E+00 -0.74960912701E+00  0.11803081425E+01  0.00000000000E+00 0.  1.
         11    1    3    3    0    0 -0.15819664337E+01  0.85036097003E+01 -0.44211633251E+01  0.97139426157E+01  0.51100000000E-03 0. -1.
        -11    1    3    3    0    0  0.61505505246E+01 -0.54698248558E+01 -0.36884670361E+02  0.37791892829E+02  0.51100000000E-03 0.  1.
         12    1    3    3    0    0 -0.54560151068E+01 -0.28247880506E+01  0.42055442813E+02  0.42501856413E+02  0.00000000000E+00 0. -1.
</event>
<event>
 7    1  0.4195243E-015  0.9000768E+02  0.7816164E-02  0.1186339E+00
        -11   -1    0    0    0    0  0.00000000000E+00  0.00000000000E+00  0.45593999997E+02  0.45594000000E+02  0.51100000000E-03 0.  1.
         11   -1    0    0    0    0 -0.00000000000E+00 -0.00000000000E+00 -0.45593999997E+02  0.45594000000E+02  0.51100000000E-03 0. -1.
    9900012    2    1    2    0    0  0.10037413965E+01  0.44773901804E+00 -0.43032316538E+00  0.90007684345E+02  0.89999944978E+02 0.  0.
        -12    1    1    2    0    0 -0.10037413965E+01 -0.44773901804E+00  0.43032316538E+00  0.11803156553E+01  0.00000000000E+00 0.  1.
         11    1    3    3    0    0  0.11906066551E+02 -0.11613053875E+02  0.64842719486E+00  0.16644455506E+02  0.51100000000E-03 0. -1.
        -11    1    3    3    0    0  0.15510420151E+02  0.26181254070E+02  0.20286949944E+02  0.36573098533E+02  0.51100000000E-03 0.  1.
         12    1    3    3    0    0 -0.26412745305E+02 -0.14120461178E+02 -0.21365700305E+02  0.36790130306E+02  0.00000000000E+00 0. -1.
</event>
<event>
 7    1  0.5356663E-015  0.9000777E+02  0.7816164E-02  0.1186339E+00
        -11   -1    0    0    0    0  0.00000000000E+00  0.00000000000E+00  0.45593999997E+02  0.45594000000E+02  0.51100000000E-03 0. -1.
         11   -1    0    0    0    0 -0.00000000000E+00 -0.00000000000E+00 -0.45593999997E+02  0.45594000000E+02  0.51100000000E-03 0.  1.
    9900012    2    1    2    0    0  0.90469163088E-01  0.11583174968E+01  0.20750488555E+00  0.90007770204E+02  0.90000031971E+02 0.  0.
        -12    1    1    2    0    0 -0.90469163088E-01 -0.11583174968E+01 -0.20750488555E+00  0.11802297956E+01  0.00000000000E+00 0.  1.
         11    1    3    3    0    0  0.21004793360E+02  0.23477427623E+02  0.26667637505E+02  0.41274130424E+02  0.51100000000E-03 0. -1.
        -11    1    3    3    0    0 -0.22173881444E+01  0.60708417245E+01 -0.71504802762E+01  0.96385319354E+01  0.51100000000E-03 0.  1.
        -12    1    3    3    0    0 -0.18696936053E+02 -0.28389951851E+02 -0.19309652343E+02  0.39095107845E+02  0.00000000000E+00 0.  1.
</event>
<event>
 7    1  0.4195243E-015  0.9000777E+02  0.7816164E-02  0.1186339E+00
        -11   -1    0    0    0    0  0.00000000000E+00  0.00000000000E+00  0.45593999997E+02  0.45594000000E+02  0.51100000000E-03 0. -1.
         11   -1    0    0    0    0 -0.00000000000E+00 -0.00000000000E+00 -0.45593999997E+02  0.45594000000E+02  0.51100000000E-03 0.  1.
    9900012    2    1    2    0    0 -0.80818552116E+00  0.31666920791E+00 -0.79968027850E+00  0.90007774695E+02  0.90000036520E+02 0.  0.
        -12    1    1    2    0    0  0.80818552116E+00 -0.31666920791E+00  0.79968027850E+00  0.11802253055E+01  0.00000000000E+00 0.  1.
         11    1    3    3    0    0 -0.26705438933E+02 -0.28785528802E+02  0.24885626560E+01  0.39344378015E+02  0.51100000000E-03 0. -1.
        -11    1    3    3    0    0  0.42469465615E+01 -0.55914442385E+01  0.53976131760E+01  0.88563554597E+01  0.51100000000E-03 0.  1.
        -12    1    3    3    0    0  0.21650306851E+02  0.34693642248E+02 -0.86858561105E+01  0.41807041220E+02  0.00000000000E+00 0.  1.
</event>
<event>
 7    1  0.4195243E-015  0.9000775E+02  0.7816164E-02  0.1186339E+00
        -11   -1    0    0    0    0  0.00000000000E+00  0.00000000000E+00  0.45593999997E+02  0.45594000000E+02  0.51100000000E-03 0.  1.
         11   -1    0    0    0    0 -0.00000000000E+00 -0.00000000000E+00 -0.45593999997E+02  0.45594000000E+02  0.51100000000E-03 0. -1.
    9900012    2    1    2    0    0 -0.31671044493E+00  0.24702355841E+00 -0.11098025085E+01  0.90007750979E+02  0.90000012492E+02 0.  0.
        -12    1    1    2    0    0  0.31671044493E+00 -0.24702355841E+00  0.11098025085E+01  0.11802490213E+01  0.00000000000E+00 0.  1.
         11    1    3    3    0    0 -0.68234621464E+01  0.95121618591E+00  0.71190151592E+01  0.99068070030E+01  0.51100000000E-03 0. -1.
        -11    1    3    3    0    0 -0.32118255206E+02 -0.39497703810E+01  0.14177504054E+02  0.35329656451E+02  0.51100000000E-03 0.  1.
         12    1    3    3    0    0  0.38625006907E+02  0.32455777535E+01 -0.22406321721E+02  0.44771287525E+02  0.00000000000E+00 0. -1.
</event>
<event>
 7    1  0.4195243E-015  0.9000759E+02  0.7816164E-02  0.1186339E+00
        -11   -1    0    0    0    0  0.00000000000E+00  0.00000000000E+00  0.45593999997E+02  0.45594000000E+02  0.51100000000E-03 0. -1.
         11   -1    0    0    0    0 -0.00000000000E+00 -0.00000000000E+00 -0.45593999997E+02  0.45594000000E+02  0.51100000000E-03 0.  1.
    9900012    2    1    2    0    0  0.83368382889E+00 -0.61237558481E-01  0.83341615807E+00  0.90007592758E+02  0.89999852182E+02 0.  0.
        -12    1    1    2    0    0 -0.83368382889E+00  0.61237558481E-01 -0.83341615807E+00  0.11804072423E+01  0.00000000000E+00 0.  1.
         11    1    3    3    0    0 -0.13173623387E+01  0.24009471602E+02  0.31636131775E+02  0.39737073422E+02  0.51100000000E-03 0. -1.
        -11    1    3    3    0    0 -0.21816873757E-01 -0.72294674680E+01  0.62214987995E+01  0.95379622258E+01  0.51100000000E-03 0.  1.
        -12    1    3    3    0    0  0.21728630414E+01 -0.16841241693E+02 -0.37024214417E+02  0.40732557110E+02  0.00000000000E+00 0.  1.
</event>
<event>
 7    1  0.4195243E-015  0.9000770E+02  0.7816164E-02  0.1186339E+00
        -11   -1    0    0    0    0  0.00000000000E+00  0.00000000000E+00  0.45593999997E+02  0.45594000000E+02  0.51100000000E-03 0.  1.
         11   -1    0    0    0    0 -0.00000000000E+00 -0.00000000000E+00 -0.45593999997E+02  0.45594000000E+02  0.51100000000E-03 0. -1.
    9900012    2    1    2    0    0  0.11727084566E+01 -0.31026282850E-01 -0.12999066190E+00  0.90007701171E+02  0.89999962026E+02 0.  0.
        -12    1    1    2    0    0 -0.11727084566E+01  0.31026282850E-01  0.12999066190E+00  0.11802988293E+01  0.00000000000E+00 0.  1.
         11    1    3    3    0    0  0.41797938373E+01 -0.81474027943E+01 -0.35011820522E+01  0.98035261431E+01  0.51100000000E-03 0. -1.
        -11    1    3    3    0    0 -0.20711133846E+02  0.11439695100E+02  0.35914713907E+02  0.43007956990E+02  0.51100000000E-03 0.  1.
         12    1    3    3    0    0  0.17704048466E+02 -0.33233185885E+01 -0.32543522517E+02  0.37196218038E+02  0.00000000000E+00 0. -1.
</event>
<event>
 7    1  0.4195243E-015  0.9000775E+02  0.7816164E-02  0.1186339E+00
        -11   -1    0    0    0    0  0.00000000000E+00  0.00000000000E+00  0.45593999997E+02  0.45594000000E+02  0.51100000000E-03 0.  1.
         11   -1    0    0    0    0 -0.00000000000E+00 -0.00000000000E+00 -0.45593999997E+02  0.45594000000E+02  0.51100000000E-03 0. -1.
    9900012    2    1    2    0    0  0.10884763682E+01  0.31316805732E-01 -0.45523432444E+00  0.90007745859E+02  0.90000007305E+02 0.  0.
        -12    1    1    2    0    0 -0.10884763682E+01 -0.31316805732E-01  0.45523432444E+00  0.11802541407E+01  0.00000000000E+00 0.  1.
         11    1    3    3    0    0 -0.38724196191E+02  0.15353554675E+01 -0.57504976822E+01  0.39178934530E+02  0.51100000000E-03 0. -1.
        -11    1    3    3    0    0  0.92856944592E+00  0.99427085712E+01  0.17725128914E+01  0.10142065724E+02  0.51100000000E-03 0.  1.
        -12    1    3    3    0    0  0.38884103113E+02 -0.11446747233E+02  0.35227504663E+01  0.40686745605E+02  0.00000000000E+00 0.  1.
</event>
<event>
 7    1  0.4195243E-015  0.9000768E+02  0.7816164E-02  0.1186339E+00
        -11   -1    0    0    0    0  0.00000000000E+00  0.00000000000E+00  0.45593999997E+02  0.45594000000E+02  0.51100000000E-03 0. -1.
         11   -1    0    0    0    0 -0.00000000000E+00 -0.00000000000E+00 -0.45593999997E+02  0.45594000000E+02  0.51100000000E-03 0.  1.
    9900012    2    1    2    0    0  0.26715085019E+00  0.11492194238E+01  0.32925797706E-01  0.90007678447E+02  0.89999939002E+02 0.  0.
        -12    1    1    2    0    0 -0.26715085019E+00 -0.11492194238E+01 -0.32925797706E-01  0.11803215532E+01  0.00000000000E+00 0.  1.
         11    1    3    3    0    0  0.10895549219E+02 -0.22898494476E+02  0.34338548372E+02  0.42687116869E+02  0.51100000000E-03 0. -1.
        -11    1    3    3    0    0  0.47382248394E+01  0.64782601643E+01 -0.37210532821E+01  0.88467433090E+01  0.51100000000E-03 0.  1.
        -12    1    3    3    0    0 -0.15366623208E+02  0.17569453735E+02 -0.30584569292E+02  0.38473818269E+02  0.00000000000E+00 0.  1.
</event>
<event>
 7    1  0.4195243E-015  0.9000773E+02  0.7816164E-02  0.1186339E+00
        -11   -1    0    0    0    0  0.00000000000E+00  0.00000000000E+00  0.45593999997E+02  0.45594000000E+02  0.51100000000E-03 0.  1.
         11   -1    0    0    0    0 -0.00000000000E+00 -0.00000000000E+00 -0.45593999997E+02  0.45594000000E+02  0.51100000000E-03 0. -1.
    9900012    2    1    2    0    0 -0.25872777530E+00  0.79146385138E+00 -0.83646810970E+00  0.90007731391E+02  0.89999992646E+02 0.  0.
        -12    1    1    2    0    0  0.25872777530E+00 -0.79146385138E+00  0.83646810970E+00  0.11802686085E+01  0.00000000000E+00 0.  1.
         11    1    3    3    0    0 -0.91218142736E+00  0.51963426056E+01  0.12084226383E+02  0.13185695999E+02  0.51100000000E-03 0. -1.
        -11    1    3    3    0    0  0.11406800251E+02 -0.38399266801E+02 -0.76079013220E+01  0.40773753145E+02  0.51100000000E-03 0.  1.
         12    1    3    3    0    0 -0.10753346599E+02  0.33994388046E+02 -0.53127931707E+01  0.36048282247E+02  0.00000000000E+00 0. -1.
</event>
<event>
 7    1  0.4195243E-015  0.9000713E+02  0.7816164E-02  0.1186340E+00
        -11   -1    0    0    0    0  0.00000000000E+00  0.00000000000E+00  0.45593999997E+02  0.45594000000E+02  0.51100000000E-03 0. -1.
         11   -1    0    0    0    0 -0.00000000000E+00 -0.00000000000E+00 -0.45593999997E+02  0.45594000000E+02  0.51100000000E-03 0.  1.
    9900012    2    1    2    0    0 -0.11644412964E+01  0.17558033664E+00 -0.87765769916E-01  0.90007129635E+02  0.89999382945E+02 0.  0.
        -12    1    1    2    0    0  0.11644412964E+01 -0.17558033664E+00  0.87765769916E-01  0.11808703645E+01  0.00000000000E+00 0.  1.
         11    1    3    3    0    0 -0.28395160241E+01  0.10073699766E+02  0.30515103000E+02  0.32260095933E+02  0.51100000000E-03 0. -1.
        -11    1    3    3    0    0  0.92097413746E+01 -0.21639825808E+02  0.64415937047E+00  0.23526927950E+02  0.51100000000E-03 0.  1.
        -12    1    3    3    0    0 -0.75346666469E+01  0.11741706379E+02 -0.31247028140E+02  0.34220105753E+02  0.00000000000E+00 0.  1.
</event>
<event>
 7    1  0.4195243E-015  0.9000771E+02  0.7816164E-02  0.1186339E+00
        -11   -1    0    0    0    0  0.00000000000E+00  0.00000000000E+00  0.45593999997E+02  0.45594000000E+02  0.51100000000E-03 0.  1.
         11   -1    0    0    0    0 -0.00000000000E+00 -0.00000000000E+00 -0.45593999997E+02  0.45594000000E+02  0.51100000000E-03 0. -1.
    9900012    2    1    2    0    0 -0.31578649543E+00  0.56793206018E+00 -0.98530544624E+00  0.90007705648E+02  0.89999966562E+02 0.  0.
        -12    1    1    2    0    0  0.31578649543E+00 -0.56793206018E+00  0.98530544624E+00  0.11802943523E+01  0.00000000000E+00 0.  1.
         11    1    3    3    0    0  0.73477969310E+00  0.25681807855E+01  0.84871613540E+01  0.88976042761E+01  0.51100000000E-03 0. -1.
        -11    1    3    3    0    0 -0.17053259100E+02  0.12857376257E+02  0.29510419840E+02  0.36427882858E+02  0.51100000000E-03 0.  1.
         12    1    3    3    0    0  0.16002692912E+02 -0.14857624982E+02 -0.38982886640E+02  0.44682218514E+02  0.00000000000E+00 0. -1.
</event>
<event>
 7    1  0.4195243E-015  0.9000785E+02  0.7816164E-02  0.1186339E+00
        -11   -1    0    0    0    0  0.00000000000E+00  0.00000000000E+00  0.45593999997E+02  0.45594000000E+02  0.51100000000E-03 0.  1.
         11   -1    0    0    0    0 -0.00000000000E+00 -0.00000000000E+00 -0.45593999997E+02  0.45594000000E+02  0.51100000000E-03 0. -1.
    9900012    2    1    2    0    0 -0.10739022557E+01 -0.53689269358E-01 -0.48641074150E+00  0.90007854246E+02  0.90000117121E+02 0.  0.
        -12    1    1    2    0    0  0.10739022557E+01  0.53689269358E-01  0.48641074150E+00  0.11801457545E+01  0.00000000000E+00 0.  1.
         11    1    3    3    0    0 -0.33316545882E+02  0.19281641352E+02 -0.19031443885E+02  0.42941469227E+02  0.51100000000E-03 0. -1.
        -11    1    3    3    0    0  0.64839843283E+01 -0.64340568283E+01 -0.44920530628E+01  0.10179277038E+02  0.51100000000E-03 0.  1.
        -12    1    3    3    0    0  0.25758659298E+02 -0.12901273793E+02  0.23037086206E+02  0.36887107981E+02  0.00000000000E+00 0.  1.
</event>
<event>
 7    1  0.4195243E-015  0.9000794E+02  0.7816164E-02  0.1186339E+00
        -11   -1    0    0    0    0  0.00000000000E+00  0.00000000000E+00  0.45593999997E+02  0.45594000000E+02  0.51100000000E-03 0.  1.
         11   -1    0    0    0    0 -0.00000000000E+00 -0.00000000000E+00 -0.45593999997E+02  0.45594000000E+02  0.51100000000E-03 0. -1.
    9900012    2    1    2    0    0 -0.11604641243E+01 -0.20685206974E+00 -0.55529407005E-01  0.90007937172E+02  0.90000201143E+02 0.  0.
        -12    1    1    2    0    0  0.11604641243E+01  0.20685206974E+00  0.55529407005E-01  0.11800628278E+01  0.00000000000E+00 0.  1.
         11    1    3    3    0    0  0.50930764296E+00 -0.52679716604E+01 -0.69072199885E+01  0.87017588981E+01  0.51100000000E-03 0. -1.
        -11    1    3    3    0    0  0.19709986353E+01  0.27903839313E+02 -0.27933627181E+02  0.39532222449E+02  0.51100000000E-03 0.  1.
         12    1    3    3    0    0 -0.36407704026E+01 -0.22842719722E+02  0.34785317762E+02  0.41773955825E+02  0.00000000000E+00 0. -1.
</event>
<event>
 7    1  0.4195243E-015  0.9000778E+02  0.7816164E-02  0.1186339E+00
        -11   -1    0    0    0    0  0.00000000000E+00  0.00000000000E+00  0.45593999997E+02  0.45594000000E+02  0.51100000000E-03 0. -1.
         11   -1    0    0    0    0 -0.00000000000E+00 -0.00000000000E+00 -0.45593999997E+02  0.45594000000E+02  0.51100000000E-03 0.  1.
    9900012    2    1    2    0    0 -0.17851314739E-01  0.11797589134E+01 -0.27621939486E-01  0.90007782760E+02  0.90000044692E+02 0.  0.
        -12    1    1    2    0    0  0.17851314739E-01 -0.11797589134E+01  0.27621939486E-01  0.11802172405E+01  0.00000000000E+00 0.  1.
         11    1    3    3    0    0 -0.25224687953E+02 -0.28019661694E+02 -0.76085118971E+01  0.38461354336E+02  0.51100000000E-03 0. -1.
        -11    1    3    3    0    0 -0.31747966303E+01  0.40615007723E+01 -0.88370795520E+01  0.10230791633E+02  0.51100000000E-03 0.  1.
        -12    1    3    3    0    0  0.28381633269E+02  0.25137919835E+02  0.16417969510E+02  0.41315636791E+02  0.00000000000E+00 0.  1.
</event>
