<event>
 7    1  0.2903212E-011  0.5052887E+02  0.7816164E-02  0.1300439E+00
        -11   -1    0    0    0    0  0.00000000000E+00  0.00000000000E+00  0.45593999997E+02  0.45594000000E+02  0.51100000000E-03 0.  1.
         11   -1    0    0    0    0 -0.00000000000E+00 -0.00000000000E+00 -0.45593999997E+02  0.45594000000E+02  0.51100000000E-03 0. -1.
    9900012    2    1    2    0    0  0.59876678905E+01 -0.40215703233E+02 -0.98694787699E-01  0.50528871948E+02  0.30000036773E+02 0.  0.
        -12    1    1    2    0    0 -0.59876678905E+01  0.40215703233E+02  0.98694787699E-01  0.40659128052E+02  0.00000000000E+00 0.  1.
         11    1    3    3    0    0  0.46920831372E+00 -0.17955133570E+02  0.96056832399E+01  0.20368508259E+02  0.51100000000E-03 0. -1.
        -11    1    3    3    0    0 -0.40225915661E+01 -0.16997682260E+02 -0.76644076790E+01  0.19074736970E+02  0.51100000000E-03 0.  1.
        -12    1    3    3    0    0  0.95410511429E+01 -0.52628874030E+01 -0.20399703486E+01  0.11085626719E+02  0.00000000000E+00 0.  1.
</event>
<event>
 7    1  0.2903212E-011  0.5052890E+02  0.7816164E-02  0.1300439E+00
        -11   -1    0    0    0    0  0.00000000000E+00  0.00000000000E+00  0.45593999997E+02  0.45594000000E+02  0.51100000000E-03 0. -1.
         11   -1    0    0    0    0 -0.00000000000E+00 -0.00000000000E+00 -0.45593999997E+02  0.45594000000E+02  0.51100000000E-03 0.  1.
    9900012    2    1    2    0    0  0.20070668472E+02 -0.35084232852E+02  0.44076175321E+01  0.50528902371E+02  0.30000129247E+02 0.  0.
        -12    1    1    2    0    0 -0.20070668472E+02  0.35084232852E+02 -0.44076175321E+01  0.40659097629E+02  0.00000000000E+00 0.  1.
         11    1    3    3    0    0  0.28887623749E+01 -0.11595189010E+02  0.35036805968E+01  0.12452675786E+02  0.51100000000E-03 0. -1.
        -11    1    3    3    0    0  0.14828615317E+02 -0.20610326708E+02 -0.94367555794E+01  0.27087372619E+02  0.51100000000E-03 0.  1.
         12    1    3    3    0    0  0.23532907792E+01 -0.28787171335E+01  0.10340692515E+02  0.10988853967E+02  0.00000000000E+00 0. -1.
</event>
<event>
 7    1  0.2903212E-011  0.5052887E+02  0.7816164E-02  0.1300439E+00
        -11   -1    0    0    0    0  0.00000000000E+00  0.00000000000E+00  0.45593999997E+02  0.45594000000E+02  0.51100000000E-03 0.  1.
         11   -1    0    0    0    0 -0.00000000000E+00 -0.00000000000E+00 -0.45593999997E+02  0.45594000000E+02  0.51100000000E-03 0. -1.
    9900012    2    1    2    0    0  0.19503070108E+02 -0.47269686166E+01 -0.35361719984E+02  0.50528865527E+02  0.30000017255E+02 0.  0.
        -12    1    1    2    0    0 -0.19503070108E+02  0.47269686166E+01  0.35361719984E+02  0.40659134473E+02  0.00000000000E+00 0.  1.
         11    1    3    3    0    0  0.17216303154E+02 -0.11480891952E+02 -0.11280151168E+02  0.23568067060E+02  0.51100000000E-03 0. -1.
        -11    1    3    3    0    0  0.12888043952E+01  0.16303304824E+01  0.23391474455E+00  0.20913418228E+01  0.51100000000E-03 0.  1.
         12    1    3    3    0    0  0.99796255821E+00  0.51235928530E+01 -0.24315483560E+02  0.24869456644E+02  0.00000000000E+00 0. -1.
</event>
<event>
 7    1  0.2903212E-011  0.5052886E+02  0.7816164E-02  0.1300439E+00
        -11   -1    0    0    0    0  0.00000000000E+00  0.00000000000E+00  0.45593999997E+02  0.45594000000E+02  0.51100000000E-03 0.  1.
         11   -1    0    0    0    0 -0.00000000000E+00 -0.00000000000E+00 -0.45593999997E+02  0.45594000000E+02  0.51100000000E-03 0. -1.
    9900012    2    1    2    0    0  0.39748369196E+02  0.81847290160E+01 -0.24985605221E+01  0.50528862681E+02  0.30000008607E+02 0.  0.
        -12    1    1    2    0    0 -0.39748369196E+02 -0.81847290160E+01  0.24985605221E+01  0.40659137319E+02  0.00000000000E+00 0.  1.
         11    1    3    3    0    0  0.32333700651E+02  0.99132938602E+01 -0.62150358206E+01  0.34385582203E+02  0.51100000000E-03 0. -1.
        -11    1    3    3    0    0  0.53919122114E+01 -0.72291624544E+01 -0.32469080741E+00  0.90243521357E+01  0.51100000000E-03 0.  1.
         12    1    3    3    0    0  0.20227563340E+01  0.55005976102E+01  0.40411661059E+01  0.71189283429E+01  0.00000000000E+00 0. -1.
</event>
<event>
 7    1  0.2903212E-011  0.5052887E+02  0.7816164E-02  0.1300439E+00
        -11   -1    0    0    0    0  0.00000000000E+00  0.00000000000E+00  0.45593999997E+02  0.45594000000E+02  0.51100000000E-03 0. -1.
         11   -1    0    0    0    0 -0.00000000000E+00 -0.00000000000E+00 -0.45593999997E+02  0.45594000000E+02  0.51100000000E-03 0.  1.
    9900012    2    1    2    0    0 -0.10937163931E+01  0.29947459670E+02  0.27479421276E+02  0.50528866341E+02  0.30000019731E+02 0.  0.
        -12    1    1    2    0    0  0.10937163931E+01 -0.29947459670E+02 -0.27479421276E+02  0.40659133659E+02  0.00000000000E+00 0.  1.
         11    1    3    3    0    0 -0.64658430131E+01  0.70674737519E+01  0.13600461904E+02  0.16635169833E+02  0.51100000000E-03 0. -1.
        -11    1    3    3    0    0 -0.73031524529E+01  0.46916444037E+01  0.49606672002E+01  0.99977888702E+01  0.51100000000E-03 0.  1.
         12    1    3    3    0    0  0.12675279073E+02  0.18188341514E+02  0.89182921721E+01  0.23895907639E+02  0.00000000000E+00 0. -1.
</event>
<event>
 7    1  0.2903212E-011  0.5052886E+02  0.7816164E-02  0.1300439E+00
        -11   -1    0    0    0    0  0.00000000000E+00  0.00000000000E+00  0.45593999997E+02  0.45594000000E+02  0.51100000000E-03 0. -1.
         11   -1    0    0    0    0 -0.00000000000E+00 -0.00000000000E+00 -0.45593999997E+02  0.45594000000E+02  0.51100000000E-03 0.  1.
    9900012    2    1    2    0    0  0.20581179814E+02  0.13426306010E+02 -0.32393130905E+02  0.50528860985E+02  0.30000003451E+02 0.  0.
        -12    1    1    2    0    0 -0.20581179814E+02 -0.13426306010E+02  0.32393130905E+02  0.40659139015E+02  0.00000000000E+00 0.  1.
         11    1    3    3    0    0 -0.38117346301E+01  0.51026170155E+01 -0.10804043008E+02  0.12541665235E+02  0.51100000000E-03 0. -1.
        -11    1    3    3    0    0  0.21509727516E+02  0.77243957948E+01 -0.24735573644E+02  0.33677637565E+02  0.51100000000E-03 0.  1.
         12    1    3    3    0    0  0.28831869279E+01  0.59929320007E+00  0.31464857465E+01  0.43095581855E+01  0.00000000000E+00 0. -1.
</event>
<event>
 7    1  0.2903212E-011  0.5052886E+02  0.7816164E-02  0.1300439E+00
        -11   -1    0    0    0    0  0.00000000000E+00  0.00000000000E+00  0.45593999997E+02  0.45594000000E+02  0.51100000000E-03 0.  1.
         11   -1    0    0    0    0 -0.00000000000E+00 -0.00000000000E+00 -0.45593999997E+02  0.45594000000E+02  0.51100000000E-03 0. -1.
    9900012    2    1    2    0    0 -0.23620604271E+02  0.14380761926E+02 -0.29806483208E+02  0.50528859565E+02  0.29999999133E+02 0.  0.
        -12    1    1    2    0    0  0.23620604271E+02 -0.14380761926E+02  0.29806483208E+02  0.40659140435E+02  0.00000000000E+00 0.  1.
         11    1    3    3    0    0 -0.10974326635E+02  0.14565272400E+02 -0.11240689294E+02  0.21422793965E+02  0.51100000000E-03 0. -1.
        -11    1    3    3    0    0  0.13032319705E+01  0.60628396201E+01 -0.18847769171E+01  0.64814213037E+01  0.51100000000E-03 0.  1.
        -12    1    3    3    0    0 -0.13949509607E+02 -0.62473500947E+01 -0.16681016997E+02  0.22624644296E+02  0.00000000000E+00 0.  1.
</event>
<event>
 7    1  0.2903212E-011  0.5052888E+02  0.7816164E-02  0.1300439E+00
        -11   -1    0    0    0    0  0.00000000000E+00  0.00000000000E+00  0.45593999997E+02  0.45594000000E+02  0.51100000000E-03 0.  1.
         11   -1    0    0    0    0 -0.00000000000E+00 -0.00000000000E+00 -0.45593999997E+02  0.45594000000E+02  0.51100000000E-03 0. -1.
    9900012    2    1    2    0    0 -0.23585116053E+02 -0.14422262626E+02 -0.29814503660E+02  0.50528880642E+02  0.30000063200E+02 0.  0.
        -12    1    1    2    0    0  0.23585116053E+02  0.14422262626E+02  0.29814503660E+02  0.40659119358E+02  0.00000000000E+00 0.  1.
         11    1    3    3    0    0  0.22160289718E+01  0.54199705974E+01  0.20315751840E+00  0.58590220104E+01  0.51100000000E-03 0. -1.
        -11    1    3    3    0    0 -0.16087761887E+01 -0.35631979325E+01 -0.39404346170E+01  0.55508166574E+01  0.51100000000E-03 0.  1.
         12    1    3    3    0    0 -0.24192368836E+02 -0.16279035291E+02 -0.26077226561E+02  0.39119041975E+02  0.00000000000E+00 0. -1.
</event>
<event>
 7    1  0.2903212E-011  0.5052885E+02  0.7816164E-02  0.1300439E+00
        -11   -1    0    0    0    0  0.00000000000E+00  0.00000000000E+00  0.45593999997E+02  0.45594000000E+02  0.51100000000E-03 0.  1.
         11   -1    0    0    0    0 -0.00000000000E+00 -0.00000000000E+00 -0.45593999997E+02  0.45594000000E+02  0.51100000000E-03 0. -1.
    9900012    2    1    2    0    0  0.68868860625E+01 -0.32625002274E+02 -0.23266852177E+02  0.50528851174E+02  0.29999973628E+02 0.  0.
        -12    1    1    2    0    0 -0.68868860625E+01  0.32625002274E+02  0.23266852177E+02  0.40659148826E+02  0.00000000000E+00 0.  1.
         11    1    3    3    0    0 -0.41316876721E+01 -0.35086283868E+01 -0.53640323262E+00  0.54469298568E+01  0.51100000000E-03 0.  1.
        -11    1    3    3    0    0 -0.19285378157E+01  0.17094502293E+01  0.21899980056E+01  0.33819476221E+01  0.51100000000E-03 0. -1.
         12    1    3    3    0    0  0.12947111550E+02 -0.30825824117E+02 -0.24920446950E+02  0.41699973695E+02  0.00000000000E+00 0. -1.
</event>
<event>
 7    1  0.2903212E-011  0.5052886E+02  0.7816164E-02  0.1300439E+00
        -11   -1    0    0    0    0  0.00000000000E+00  0.00000000000E+00  0.45593999997E+02  0.45594000000E+02  0.51100000000E-03 0. -1.
         11   -1    0    0    0    0 -0.00000000000E+00 -0.00000000000E+00 -0.45593999997E+02  0.45594000000E+02  0.51100000000E-03 0.  1.
    9900012    2    1    2    0    0 -0.29664819371E+02 -0.78445641723E+01  0.26676337652E+02  0.50528859749E+02  0.29999999694E+02 0.  0.
        -12    1    1    2    0    0  0.29664819371E+02  0.78445641723E+01 -0.26676337652E+02  0.40659140251E+02  0.00000000000E+00 0.  1.
         11    1    3    3    0    0 -0.31565577915E+02 -0.40808699113E+01  0.19323283042E+02  0.37234775092E+02  0.51100000000E-03 0. -1.
        -11    1    3    3    0    0 -0.30590826706E+01  0.41558966616E-01 -0.66121791843E+00  0.31300037269E+01  0.51100000000E-03 0.  1.
         12    1    3    3    0    0  0.49598412146E+01 -0.38052532277E+01  0.80142725290E+01  0.10164080931E+02  0.00000000000E+00 0. -1.
</event>
<event>
 7    1  0.2903212E-011  0.5052888E+02  0.7816164E-02  0.1300439E+00
        -11   -1    0    0    0    0  0.00000000000E+00  0.00000000000E+00  0.45593999997E+02  0.45594000000E+02  0.51100000000E-03 0.  1.
         11   -1    0    0    0    0 -0.00000000000E+00 -0.00000000000E+00 -0.45593999997E+02  0.45594000000E+02  0.51100000000E-03 0. -1.
    9900012    2    1    2    0    0  0.15974779291E+02 -0.33018508184E+02 -0.17542756124E+02  0.50528883575E+02  0.30000072114E+02 0.  0.
        -12    1    1    2    0    0 -0.15974779291E+02  0.33018508184E+02  0.17542756124E+02  0.40659116425E+02  0.00000000000E+00 0.  1.
         11    1    3    3    0    0 -0.31630921372E+01  0.56965602332E+00 -0.21687270654E+01  0.38772460843E+01  0.51100000000E-03 0. -1.
        -11    1    3    3    0    0 -0.31781324971E+01 -0.70988925964E+01  0.18115558625E+01  0.79860213604E+01  0.51100000000E-03 0.  1.
         12    1    3    3    0    0  0.22316003925E+02 -0.26489271611E+02 -0.17185584921E+02  0.38665616130E+02  0.00000000000E+00 0. -1.
</event>
<event>
 7    1  0.2903212E-011  0.5052886E+02  0.7816164E-02  0.1300439E+00
        -11   -1    0    0    0    0  0.00000000000E+00  0.00000000000E+00  0.45593999997E+02  0.45594000000E+02  0.51100000000E-03 0.  1.
         11   -1    0    0    0    0 -0.00000000000E+00 -0.00000000000E+00 -0.45593999997E+02  0.45594000000E+02  0.51100000000E-03 0. -1.
    9900012    2    1    2    0    0  0.24838457769E+02  0.19273223260E+02 -0.25782928875E+02  0.50528861537E+02  0.30000005127E+02 0.  0.
        -12    1    1    2    0    0 -0.24838457769E+02 -0.19273223260E+02  0.25782928875E+02  0.40659138463E+02  0.00000000000E+00 0.  1.
         11    1    3    3    0    0  0.26128101544E+01  0.10789421287E+02 -0.28902224072E+01  0.11471345799E+02  0.51100000000E-03 0. -1.
        -11    1    3    3    0    0  0.11222093116E+02  0.82195487618E+01 -0.28546683509E+00  0.13913225626E+02  0.51100000000E-03 0.  1.
         12    1    3    3    0    0  0.11003554499E+02  0.26425321088E+00 -0.22607239633E+02  0.25144290111E+02  0.00000000000E+00 0. -1.
</event>
<event>
 7    1  0.2903212E-011  0.5052886E+02  0.7816164E-02  0.1300439E+00
        -11   -1    0    0    0    0  0.00000000000E+00  0.00000000000E+00  0.45593999997E+02  0.45594000000E+02  0.51100000000E-03 0.  1.
         11   -1    0    0    0    0 -0.00000000000E+00 -0.00000000000E+00 -0.45593999997E+02  0.45594000000E+02  0.51100000000E-03 0. -1.
    9900012    2    1    2    0    0 -0.17180896552E+02 -0.19929866282E+01 -0.36796884009E+02  0.50528857426E+02  0.29999992633E+02 0.  0.
        -12    1    1    2    0    0  0.17180896552E+02  0.19929866282E+01  0.36796884009E+02  0.40659142574E+02  0.00000000000E+00 0.  1.
         11    1    3    3    0    0  0.25726806140E+01  0.22564716102E+01 -0.19700313673E+02  0.19995317171E+02  0.51100000000E-03 0. -1.
        -11    1    3    3    0    0  0.24608117998E+01 -0.17052933645E+00 -0.52897733287E+00  0.25227945316E+01  0.51100000000E-03 0.  1.
         12    1    3    3    0    0 -0.22214388966E+02 -0.40789289019E+01 -0.16567593003E+02  0.28010745724E+02  0.00000000000E+00 0. -1.
</event>
<event>
 7    1  0.2903212E-011  0.5052886E+02  0.7816164E-02  0.1300439E+00
        -11   -1    0    0    0    0  0.00000000000E+00  0.00000000000E+00  0.45593999997E+02  0.45594000000E+02  0.51100000000E-03 0. -1.
         11   -1    0    0    0    0 -0.00000000000E+00 -0.00000000000E+00 -0.45593999997E+02  0.45594000000E+02  0.51100000000E-03 0.  1.
    9900012    2    1    2    0    0 -0.35351611415E+02 -0.19889334790E+02  0.28007075794E+01  0.50528855506E+02  0.29999986796E+02 0.  0.
        -12    1    1    2    0    0  0.35351611415E+02  0.19889334790E+02 -0.28007075794E+01  0.40659144494E+02  0.00000000000E+00 0.  1.
         11    1    3    3    0    0  0.54454748268E+00 -0.70344916564E+01  0.55614291627E-01  0.70557563759E+01  0.51100000000E-03 0. -1.
        -11    1    3    3    0    0 -0.84120120892E-01 -0.47016907650E+01 -0.39477770650E+01  0.61398628861E+01  0.51100000000E-03 0.  1.
        -12    1    3    3    0    0 -0.35812038777E+02 -0.81531523688E+01  0.66928703528E+01  0.37333236244E+02  0.00000000000E+00 0.  1.
</event>
<event>
 7    1  0.2903212E-011  0.5052886E+02  0.7816164E-02  0.1300439E+00
        -11   -1    0    0    0    0  0.00000000000E+00  0.00000000000E+00  0.45593999997E+02  0.45594000000E+02  0.51100000000E-03 0.  1.
         11   -1    0    0    0    0 -0.00000000000E+00 -0.00000000000E+00 -0.45593999997E+02  0.45594000000E+02  0.51100000000E-03 0. -1.
    9900012    2    1    2    0    0 -0.18388039484E+02  0.65282874957E+01 -0.35671092524E+02  0.50528863566E+02  0.30000011296E+02 0.  0.
        -12    1    1    2    0    0  0.18388039484E+02 -0.65282874957E+01  0.35671092524E+02  0.40659136434E+02  0.00000000000E+00 0.  1.
         11    1    3    3    0    0  0.58831407426E+00  0.34641905527E+00  0.29249131146E+01  0.30035373480E+01  0.51100000000E-03 0. -1.
        -11    1    3    3    0    0  0.50938178054E+00  0.13156152333E+01  0.18740343413E+01  0.23457020727E+01  0.51100000000E-03 0.  1.
         12    1    3    3    0    0 -0.19485735338E+02  0.48662532072E+01 -0.40470039980E+02  0.45179624146E+02  0.00000000000E+00 0. -1.
</event>
<event>
 7    1  0.2903212E-011  0.5052886E+02  0.7816164E-02  0.1300439E+00
        -11   -1    0    0    0    0  0.00000000000E+00  0.00000000000E+00  0.45593999997E+02  0.45594000000E+02  0.51100000000E-03 0. -1.
         11   -1    0    0    0    0 -0.00000000000E+00 -0.00000000000E+00 -0.45593999997E+02  0.45594000000E+02  0.51100000000E-03 0.  1.
    9900012    2    1    2    0    0 -0.31172388116E+02 -0.24255675695E+02  0.96493566301E+01  0.50528859974E+02  0.30000000378E+02 0.  0.
        -12    1    1    2    0    0  0.31172388116E+02  0.24255675695E+02 -0.96493566301E+01  0.40659140026E+02  0.00000000000E+00 0.  1.
         11    1    3    3    0    0 -0.99127433367E+01 -0.44376029258E+01  0.58808394359E+01  0.12350670950E+02  0.51100000000E-03 0. -1.
        -11    1    3    3    0    0 -0.19072914029E+02 -0.10556994690E+01  0.19652640354E+01  0.19202937638E+02  0.51100000000E-03 0.  1.
         12    1    3    3    0    0 -0.21867307499E+01 -0.18762373300E+02  0.18032531588E+01  0.18975251386E+02  0.00000000000E+00 0. -1.
</event>
<event>
 7    1  0.2903212E-011  0.5052887E+02  0.7816164E-02  0.1300439E+00
        -11   -1    0    0    0    0  0.00000000000E+00  0.00000000000E+00  0.45593999997E+02  0.45594000000E+02  0.51100000000E-03 0. -1.
         11   -1    0    0    0    0 -0.00000000000E+00 -0.00000000000E+00 -0.45593999997E+02  0.45594000000E+02  0.51100000000E-03 0.  1.
    9900012    2    1    2    0    0 -0.40451623777E+02 -0.39798047109E+01  0.99619201453E+00  0.50528866828E+02  0.30000021211E+02 0.  0.
        -12    1    1    2    0    0  0.40451623777E+02  0.39798047109E+01 -0.99619201453E+00  0.40659133172E+02  0.00000000000E+00 0.  1.
         11    1    3    3    0    0 -0.32189965548E+02  0.27423538090E+01  0.35078681252E+01  0.32496454044E+02  0.51100000000E-03 0. -1.
        -11    1    3    3    0    0 -0.45547216742E+01 -0.53603889322E+01  0.56127583644E+01  0.89990174881E+01  0.51100000000E-03 0.  1.
         12    1    3    3    0    0 -0.37069365547E+01 -0.13617695878E+01 -0.81244344751E+01  0.90333952958E+01  0.00000000000E+00 0. -1.
</event>
<event>
 7    1  0.2903212E-011  0.5052886E+02  0.7816164E-02  0.1300439E+00
        -11   -1    0    0    0    0  0.00000000000E+00  0.00000000000E+00  0.45593999997E+02  0.45594000000E+02  0.51100000000E-03 0.  1.
         11   -1    0    0    0    0 -0.00000000000E+00 -0.00000000000E+00 -0.45593999997E+02  0.45594000000E+02  0.51100000000E-03 0. -1.
    9900012    2    1    2    0    0 -0.15261107785E+01  0.26698244190E+02 -0.30627448342E+02  0.50528857745E+02  0.29999993603E+02 0.  0.
        -12    1    1    2    0    0  0.15261107785E+01 -0.26698244190E+02  0.30627448342E+02  0.40659142255E+02  0.00000000000E+00 0.  1.
         11    1    3    3    0    0  0.68262551855E+01 -0.85079231136E-01 -0.20980650904E+01  0.71419098089E+01  0.51100000000E-03 0.  1.
        -11    1    3    3    0    0 -0.12737313039E+02  0.15039068662E+02 -0.13877051938E+02  0.24103636664E+02  0.51100000000E-03 0. -1.
         12    1    3    3    0    0  0.43849470752E+01  0.11744254760E+02 -0.14652331314E+02  0.19283311273E+02  0.00000000000E+00 0. -1.
</event>
<event>
 7    1  0.2903212E-011  0.5052886E+02  0.7816164E-02  0.1300439E+00
        -11   -1    0    0    0    0  0.00000000000E+00  0.00000000000E+00  0.45593999997E+02  0.45594000000E+02  0.51100000000E-03 0.  1.
         11   -1    0    0    0    0 -0.00000000000E+00 -0.00000000000E+00 -0.45593999997E+02  0.45594000000E+02  0.51100000000E-03 0. -1.
    9900012    2    1    2    0    0 -0.24033246866E+01 -0.33682428276E+02 -0.22646942528E+02  0.50528856503E+02  0.29999989825E+02 0.  0.
        -12    1    1    2    0    0  0.24033246866E+01  0.33682428276E+02  0.22646942528E+02  0.40659143497E+02  0.00000000000E+00 0.  1.
         11    1    3    3    0    0  0.20196910605E+01 -0.11303404993E+02 -0.11005752636E+01  0.11535050177E+02  0.51100000000E-03 0. -1.
        -11    1    3    3    0    0  0.26613587030E+01 -0.93830209881E+01  0.31090036807E+01  0.10236689756E+02  0.51100000000E-03 0.  1.
        -12    1    3    3    0    0 -0.70843744502E+01 -0.12996002295E+02 -0.24655370945E+02  0.28757116570E+02  0.00000000000E+00 0.  1.
</event>
<event>
 7    1  0.2903212E-011  0.5052886E+02  0.7816164E-02  0.1300439E+00
        -11   -1    0    0    0    0  0.00000000000E+00  0.00000000000E+00  0.45593999997E+02  0.45594000000E+02  0.51100000000E-03 0. -1.
         11   -1    0    0    0    0 -0.00000000000E+00 -0.00000000000E+00 -0.45593999997E+02  0.45594000000E+02  0.51100000000E-03 0.  1.
    9900012    2    1    2    0    0  0.27916634027E+02  0.19889336937E+02  0.21868739512E+02  0.50528856538E+02  0.29999989934E+02 0.  0.
        -12    1    1    2    0    0 -0.27916634027E+02 -0.19889336937E+02 -0.21868739512E+02  0.40659143462E+02  0.00000000000E+00 0.  1.
         11    1    3    3    0    0  0.16245255447E+02  0.99565800366E+01  0.12014335800E+02  0.22525231976E+02  0.51100000000E-03 0. -1.
        -11    1    3    3    0    0 -0.58572391579E+00  0.26887339876E+01  0.13112292236E+02  0.13397931591E+02  0.51100000000E-03 0.  1.
        -12    1    3    3    0    0  0.12257102495E+02  0.72440229133E+01 -0.32578885250E+01  0.14605692972E+02  0.00000000000E+00 0.  1.
</event>
<event>
 7    1  0.2903212E-011  0.5052886E+02  0.7816164E-02  0.1300439E+00
        -11   -1    0    0    0    0  0.00000000000E+00  0.00000000000E+00  0.45593999997E+02  0.45594000000E+02  0.51100000000E-03 0.  1.
         11   -1    0    0    0    0 -0.00000000000E+00 -0.00000000000E+00 -0.45593999997E+02  0.45594000000E+02  0.51100000000E-03 0. -1.
    9900012    2    1    2    0    0 -0.24811712586E+01  0.34800691948E+02 -0.20878725346E+02  0.50528861508E+02  0.30000005039E+02 0.  0.
        -12    1    1    2    0    0  0.24811712586E+01 -0.34800691948E+02  0.20878725346E+02  0.40659138492E+02  0.00000000000E+00 0.  1.
         11    1    3    3    0    0 -0.14090969541E+02  0.19014444663E+02 -0.72535922833E+01  0.24753164034E+02  0.51100000000E-03 0. -1.
        -11    1    3    3    0    0  0.22092354078E+00  0.64025907579E+01 -0.12730850085E+01  0.65316706380E+01  0.51100000000E-03 0.  1.
        -12    1    3    3    0    0  0.11388874742E+02  0.93836565270E+01 -0.12352048054E+02  0.19244026835E+02  0.00000000000E+00 0.  1.
</event>
<event>
 7    1  0.2903212E-011  0.5052885E+02  0.7816164E-02  0.1300439E+00
        -11   -1    0    0    0    0  0.00000000000E+00  0.00000000000E+00  0.45593999997E+02  0.45594000000E+02  0.51100000000E-03 0. -1.
         11   -1    0    0    0    0 -0.00000000000E+00 -0.00000000000E+00 -0.45593999997E+02  0.45594000000E+02  0.51100000000E-03 0.  1.
    9900012    2    1    2    0    0 -0.87392822964E+01  0.21188423676E+02  0.33583359699E+02  0.50528850948E+02  0.29999972942E+02 0.  0.
        -12    1    1    2    0    0  0.87392822964E+01 -0.21188423676E+02 -0.33583359699E+02  0.40659149052E+02  0.00000000000E+00 0.  1.
         11    1    3    3    0    0 -0.82647903725E+01  0.24354408388E+01  0.78335302766E+01  0.11644841297E+02  0.51100000000E-03 0. -1.
        -11    1    3    3    0    0  0.62379674816E+01  0.23029467303E+01 -0.10479146760E+01  0.67315620307E+01  0.51100000000E-03 0.  1.
         12    1    3    3    0    0 -0.67124594055E+01  0.16450036107E+02  0.26797744098E+02  0.32152447620E+02  0.00000000000E+00 0. -1.
</event>
<event>
 7    1  0.2903212E-011  0.5052884E+02  0.7816164E-02  0.1300439E+00
        -11   -1    0    0    0    0  0.00000000000E+00  0.00000000000E+00  0.45593999997E+02  0.45594000000E+02  0.51100000000E-03 0.  1.
         11   -1    0    0    0    0 -0.00000000000E+00 -0.00000000000E+00 -0.45593999997E+02  0.45594000000E+02  0.51100000000E-03 0. -1.
    9900012    2    1    2    0    0 -0.31411533400E+02 -0.20358808882E+02  0.15874569281E+02  0.50528837693E+02  0.29999932651E+02 0.  0.
        -12    1    1    2    0    0  0.31411533400E+02  0.20358808882E+02 -0.15874569281E+02  0.40659162307E+02  0.00000000000E+00 0.  1.
         11    1    3    3    0    0 -0.12261080668E+02  0.13834622275E+01  0.48675811375E+01  0.13264290908E+02  0.51100000000E-03 0. -1.
        -11    1    3    3    0    0 -0.88463218352E+01 -0.20062382437E+01 -0.45064771547E+01  0.10128708630E+02  0.51100000000E-03 0.  1.
        -12    1    3    3    0    0 -0.10304130897E+02 -0.19736032866E+02  0.15513465299E+02  0.27135838155E+02  0.00000000000E+00 0.  1.
</event>
<event>
 7    1  0.2903212E-011  0.5052886E+02  0.7816164E-02  0.1300439E+00
        -11   -1    0    0    0    0  0.00000000000E+00  0.00000000000E+00  0.45593999997E+02  0.45594000000E+02  0.51100000000E-03 0.  1.
         11   -1    0    0    0    0 -0.00000000000E+00 -0.00000000000E+00 -0.45593999997E+02  0.45594000000E+02  0.51100000000E-03 0. -1.
    9900012    2    1    2    0    0 -0.12367995687E+02 -0.29009758128E+02 -0.25663837983E+02  0.50528856330E+02  0.29999989301E+02 0.  0.
        -12    1    1    2    0    0  0.12367995687E+02  0.29009758128E+02  0.25663837983E+02  0.40659143670E+02  0.00000000000E+00 0.  1.
         11    1    3    3    0    0 -0.74393258694E+01 -0.13142266859E+02 -0.10788128265E+02  0.18559268825E+02  0.51100000000E-03 0. -1.
        -11    1    3    3    0    0 -0.13610585481E+02 -0.97313723175E+01 -0.12967019414E+02  0.21168165652E+02  0.51100000000E-03 0.  1.
         12    1    3    3    0    0  0.86819156633E+01 -0.61361189519E+01 -0.19086903030E+01  0.10801421853E+02  0.00000000000E+00 0. -1.
</event>
<event>
 7    1  0.2903212E-011  0.5052886E+02  0.7816164E-02  0.1300439E+00
        -11   -1    0    0    0    0  0.00000000000E+00  0.00000000000E+00  0.45593999997E+02  0.45594000000E+02  0.51100000000E-03 0.  1.
         11   -1    0    0    0    0 -0.00000000000E+00 -0.00000000000E+00 -0.45593999997E+02  0.45594000000E+02  0.51100000000E-03 0. -1.
    9900012    2    1    2    0    0  0.21381144016E+02  0.33439712582E+02 -0.88203159404E+01  0.50528859941E+02  0.30000000278E+02 0.  0.
        -12    1    1    2    0    0 -0.21381144016E+02 -0.33439712582E+02  0.88203159404E+01  0.40659140059E+02  0.00000000000E+00 0.  1.
         11    1    3    3    0    0  0.30561336325E+01  0.22744430277E+01 -0.62111646373E+01  0.72863989926E+01  0.51100000000E-03 0. -1.
        -11    1    3    3    0    0  0.15475126595E+02  0.47155912877E+01 -0.37820178701E+01  0.16613849757E+02  0.51100000000E-03 0.  1.
        -12    1    3    3    0    0  0.28498837892E+01  0.26449678267E+02  0.11728665670E+01  0.26628611192E+02  0.00000000000E+00 0.  1.
</event>
<event>
 7    1  0.2903212E-011  0.5052885E+02  0.7816164E-02  0.1300439E+00
        -11   -1    0    0    0    0  0.00000000000E+00  0.00000000000E+00  0.45593999997E+02  0.45594000000E+02  0.51100000000E-03 0. -1.
         11   -1    0    0    0    0 -0.00000000000E+00 -0.00000000000E+00 -0.45593999997E+02  0.45594000000E+02  0.51100000000E-03 0.  1.
    9900012    2    1    2    0    0 -0.19121609906E+02 -0.31030805016E+02 -0.18017211415E+02  0.50528846880E+02  0.29999960575E+02 0.  0.
        -12    1    1    2    0    0  0.19121609906E+02  0.31030805016E+02  0.18017211415E+02  0.40659153120E+02  0.00000000000E+00 0.  1.
         11    1    3    3    0    0 -0.73714685756E+01 -0.10379717136E+02 -0.30891535645E+01  0.13100379643E+02  0.51100000000E-03 0. -1.
        -11    1    3    3    0    0 -0.32766936057E+01 -0.20432637153E+01  0.66576212219E+01  0.76964646554E+01  0.51100000000E-03 0.  1.
         12    1    3    3    0    0 -0.84734477242E+01 -0.18607824164E+02 -0.21585679072E+02  0.29732002581E+02  0.00000000000E+00 0. -1.
</event>
<event>
 7    1  0.2903212E-011  0.5052886E+02  0.7816164E-02  0.1300439E+00
        -11   -1    0    0    0    0  0.00000000000E+00  0.00000000000E+00  0.45593999997E+02  0.45594000000E+02  0.51100000000E-03 0. -1.
         11   -1    0    0    0    0 -0.00000000000E+00 -0.00000000000E+00 -0.45593999997E+02  0.45594000000E+02  0.51100000000E-03 0.  1.
    9900012    2    1    2    0    0 -0.36239977667E+02 -0.17385675758E+02  0.61292714196E+01  0.50528859933E+02  0.30000000252E+02 0.  0.
        -12    1    1    2    0    0  0.36239977667E+02  0.17385675758E+02 -0.61292714196E+01  0.40659140067E+02  0.00000000000E+00 0.  1.
         11    1    3    3    0    0 -0.32957124419E+02 -0.19468899260E+02 -0.36751428071E+01  0.38454086431E+02  0.51100000000E-03 0. -1.
        -11    1    3    3    0    0 -0.31984049226E+01  0.93437786282E+00  0.14375259576E+01  0.36289581396E+01  0.51100000000E-03 0.  1.
         12    1    3    3    0    0 -0.84448325563E-01  0.11488456395E+01  0.83668882691E+01  0.84458153621E+01  0.00000000000E+00 0. -1.
</event>
<event>
 7    1  0.2903212E-011  0.5052886E+02  0.7816164E-02  0.1300439E+00
        -11   -1    0    0    0    0  0.00000000000E+00  0.00000000000E+00  0.45593999997E+02  0.45594000000E+02  0.51100000000E-03 0.  1.
         11   -1    0    0    0    0 -0.00000000000E+00 -0.00000000000E+00 -0.45593999997E+02  0.45594000000E+02  0.51100000000E-03 0. -1.
    9900012    2    1    2    0    0 -0.14470766119E+02  0.21801470202E+01 -0.37934283319E+02  0.50528856329E+02  0.29999989299E+02 0.  0.
        -12    1    1    2    0    0  0.14470766119E+02 -0.21801470202E+01  0.37934283319E+02  0.40659143671E+02  0.00000000000E+00 0.  1.
         11    1    3    3    0    0 -0.10555250665E+02  0.59599470634E+00 -0.39226982428E+02  0.40626649837E+02  0.51100000000E-03 0. -1.
        -11    1    3    3    0    0 -0.17623007046E+01 -0.34531015591E+01 -0.93574497703E+00  0.39881365415E+01  0.51100000000E-03 0.  1.
        -12    1    3    3    0    0 -0.21532147494E+01  0.50372538729E+01  0.22284440864E+01  0.59140699508E+01  0.00000000000E+00 0.  1.
</event>
<event>
 7    1  0.2903212E-011  0.5052886E+02  0.7816164E-02  0.1300439E+00
        -11   -1    0    0    0    0  0.00000000000E+00  0.00000000000E+00  0.45593999997E+02  0.45594000000E+02  0.51100000000E-03 0.  1.
         11   -1    0    0    0    0 -0.00000000000E+00 -0.00000000000E+00 -0.45593999997E+02  0.45594000000E+02  0.51100000000E-03 0. -1.
    9900012    2    1    2    0    0  0.36095280891E+02 -0.33000782037E+01  0.18422963546E+02  0.50528863209E+02  0.30000010210E+02 0.  0.
        -12    1    1    2    0    0 -0.36095280891E+02  0.33000782037E+01 -0.18422963546E+02  0.40659136791E+02  0.00000000000E+00 0.  1.
         11    1    3    3    0    0  0.26228313124E+02  0.70141601191E+01  0.14783160534E+02  0.30913826796E+02  0.51100000000E-03 0. -1.
        -11    1    3    3    0    0  0.71113420439E+01 -0.17126074716E+01  0.68578101583E+01  0.10026653003E+02  0.51100000000E-03 0.  1.
         12    1    3    3    0    0  0.27556257229E+01 -0.86016308512E+01 -0.32180071463E+01  0.95883834101E+01  0.00000000000E+00 0. -1.
</event>
<event>
 7    1  0.2903212E-011  0.5052885E+02  0.7816164E-02  0.1300439E+00
        -11   -1    0    0    0    0  0.00000000000E+00  0.00000000000E+00  0.45593999997E+02  0.45594000000E+02  0.51100000000E-03 0.  1.
         11   -1    0    0    0    0 -0.00000000000E+00 -0.00000000000E+00 -0.45593999997E+02  0.45594000000E+02  0.51100000000E-03 0. -1.
    9900012    2    1    2    0    0  0.37696202021E+02  0.96762897878E+01 -0.11769988632E+02  0.50528845271E+02  0.29999955686E+02 0.  0.
        -12    1    1    2    0    0 -0.37696202021E+02 -0.96762897878E+01  0.11769988632E+02  0.40659154729E+02  0.00000000000E+00 0.  1.
         11    1    3    3    0    0  0.20194437985E+02  0.66937870195E+01 -0.73661733613E-01  0.21275044924E+02  0.51100000000E-03 0. -1.
        -11    1    3    3    0    0  0.20152022614E+02 -0.11523813493E+01 -0.47325173240E+01  0.20732310983E+02  0.51100000000E-03 0.  1.
        -12    1    3    3    0    0 -0.26502585782E+01  0.41348841175E+01 -0.69638095741E+01  0.85214893640E+01  0.00000000000E+00 0.  1.
</event>
<event>
 7    1  0.2903212E-011  0.5052885E+02  0.7816164E-02  0.1300439E+00
        -11   -1    0    0    0    0  0.00000000000E+00  0.00000000000E+00  0.45593999997E+02  0.45594000000E+02  0.51100000000E-03 0.  1.
         11   -1    0    0    0    0 -0.00000000000E+00 -0.00000000000E+00 -0.45593999997E+02  0.45594000000E+02  0.51100000000E-03 0. -1.
    9900012    2    1    2    0    0 -0.10834009360E+02 -0.34714907321E+02 -0.18184219203E+02  0.50528851249E+02  0.29999973856E+02 0.  0.
        -12    1    1    2    0    0  0.10834009360E+02  0.34714907321E+02  0.18184219203E+02  0.40659148751E+02  0.00000000000E+00 0.  1.
         11    1    3    3    0    0 -0.29364480144E+01 -0.56321237101E+01 -0.41600845947E+01  0.75927497340E+01  0.51100000000E-03 0. -1.
        -11    1    3    3    0    0  0.27821377359E+01 -0.95459923922E+01 -0.17765418798E+02  0.20358692651E+02  0.51100000000E-03 0.  1.
         12    1    3    3    0    0 -0.10679699081E+02 -0.19536791219E+02  0.37412841900E+01  0.22577408864E+02  0.00000000000E+00 0. -1.
</event>
<event>
 7    1  0.2903212E-011  0.5052886E+02  0.7816164E-02  0.1300439E+00
        -11   -1    0    0    0    0  0.00000000000E+00  0.00000000000E+00  0.45593999997E+02  0.45594000000E+02  0.51100000000E-03 0. -1.
         11   -1    0    0    0    0 -0.00000000000E+00 -0.00000000000E+00 -0.45593999997E+02  0.45594000000E+02  0.51100000000E-03 0.  1.
    9900012    2    1    2    0    0  0.22048351353E+02  0.32460406809E+02  0.10646950908E+02  0.50528863620E+02  0.30000011459E+02 0.  0.
        -12    1    1    2    0    0 -0.22048351353E+02 -0.32460406809E+02 -0.10646950908E+02  0.40659136380E+02  0.00000000000E+00 0.  1.
         11    1    3    3    0    0  0.57037737957E+01  0.14659408484E+01  0.43356764841E+01  0.73130095665E+01  0.51100000000E-03 0. -1.
        -11    1    3    3    0    0  0.14043869986E+02  0.16758464254E+02  0.14874016695E+02  0.26444522708E+02  0.51100000000E-03 0.  1.
        -12    1    3    3    0    0  0.23007075714E+01  0.14236001706E+02 -0.85627422712E+01  0.16771331346E+02  0.00000000000E+00 0.  1.
</event>
<event>
 7    1  0.2903212E-011  0.5052887E+02  0.7816164E-02  0.1300439E+00
        -11   -1    0    0    0    0  0.00000000000E+00  0.00000000000E+00  0.45593999997E+02  0.45594000000E+02  0.51100000000E-03 0.  1.
         11   -1    0    0    0    0 -0.00000000000E+00 -0.00000000000E+00 -0.45593999997E+02  0.45594000000E+02  0.51100000000E-03 0. -1.
    9900012    2    1    2    0    0 -0.20618163773E+02  0.19447767171E+02 -0.29152027168E+02  0.50528868021E+02  0.30000024837E+02 0.  0.
        -12    1    1    2    0    0  0.20618163773E+02 -0.19447767171E+02  0.29152027168E+02  0.40659131979E+02  0.00000000000E+00 0.  1.
         11    1    3    3    0    0  0.47357984274E+01  0.51255096326E+01 -0.24027673260E+01  0.73805099297E+01  0.51100000000E-03 0. -1.
        -11    1    3    3    0    0  0.10333353363E+01 -0.20033982563E+01 -0.11718782189E+00  0.22572371912E+01  0.51100000000E-03 0.  1.
        -12    1    3    3    0    0 -0.26387297537E+02  0.16325655794E+02 -0.26632072020E+02  0.40891120900E+02  0.00000000000E+00 0.  1.
</event>
<event>
 7    1  0.2903212E-011  0.5052886E+02  0.7816164E-02  0.1300439E+00
        -11   -1    0    0    0    0  0.00000000000E+00  0.00000000000E+00  0.45593999997E+02  0.45594000000E+02  0.51100000000E-03 0.  1.
         11   -1    0    0    0    0 -0.00000000000E+00 -0.00000000000E+00 -0.45593999997E+02  0.45594000000E+02  0.51100000000E-03 0. -1.
    9900012    2    1    2    0    0  0.37227804745E+02  0.12676016593E+02 -0.10323513860E+02  0.50528858577E+02  0.29999996132E+02 0.  0.
        -12    1    1    2    0    0 -0.37227804745E+02 -0.12676016593E+02  0.10323513860E+02  0.40659141423E+02  0.00000000000E+00 0.  1.
         11    1    3    3    0    0  0.48425980402E+01  0.12351110582E+01  0.64483303006E+01  0.81582607848E+01  0.51100000000E-03 0. -1.
        -11    1    3    3    0    0  0.11715275000E+02 -0.22539057150E+01  0.83631292707E+00  0.11959397095E+02  0.51100000000E-03 0.  1.
         12    1    3    3    0    0  0.20669931705E+02  0.13694811249E+02 -0.17608157088E+02  0.30411200698E+02  0.00000000000E+00 0. -1.
</event>
<event>
 7    1  0.2903212E-011  0.5052886E+02  0.7816164E-02  0.1300439E+00
        -11   -1    0    0    0    0  0.00000000000E+00  0.00000000000E+00  0.45593999997E+02  0.45594000000E+02  0.51100000000E-03 0.  1.
         11   -1    0    0    0    0 -0.00000000000E+00 -0.00000000000E+00 -0.45593999997E+02  0.45594000000E+02  0.51100000000E-03 0. -1.
    9900012    2    1    2    0    0  0.11020373484E+02  0.35888836985E+02 -0.15611171245E+02  0.50528856876E+02  0.29999990961E+02 0.  0.
        -12    1    1    2    0    0 -0.11020373484E+02 -0.35888836985E+02  0.15611171245E+02  0.40659143124E+02  0.00000000000E+00 0.  1.
         11    1    3    3    0    0  0.21636375696E+01  0.21907539910E+02 -0.34802088330E+00  0.22016874239E+02  0.51100000000E-03 0. -1.
        -11    1    3    3    0    0 -0.34042416785E+01  0.66893154258E+01 -0.11544202284E+02  0.13769691678E+02  0.51100000000E-03 0.  1.
        -12    1    3    3    0    0  0.12260977593E+02  0.72919816490E+01 -0.37189480777E+01  0.14742290959E+02  0.00000000000E+00 0.  1.
</event>
<event>
 7    1  0.2903212E-011  0.5052894E+02  0.7816164E-02  0.1300439E+00
        -11   -1    0    0    0    0  0.00000000000E+00  0.00000000000E+00  0.45593999997E+02  0.45594000000E+02  0.51100000000E-03 0.  1.
         11   -1    0    0    0    0 -0.00000000000E+00 -0.00000000000E+00 -0.45593999997E+02  0.45594000000E+02  0.51100000000E-03 0. -1.
    9900012    2    1    2    0    0  0.17907944858E+02 -0.36414723287E+02 -0.25363230539E+01  0.50528935873E+02  0.30000231077E+02 0.  0.
        -12    1    1    2    0    0 -0.17907944858E+02  0.36414723287E+02  0.25363230539E+01  0.40659064127E+02  0.00000000000E+00 0.  1.
         11    1    3    3    0    0 -0.54397135441E+01 -0.39326179342E+01 -0.28279457737E+01  0.72837658405E+01  0.51100000000E-03 0.  1.
        -11    1    3    3    0    0  0.36318037772E+01  0.12708192860E+01 -0.14630443377E+01  0.41164887136E+01  0.51100000000E-03 0. -1.
         12    1    3    3    0    0  0.19715854625E+02 -0.33752924638E+02  0.17546670575E+01  0.39128681319E+02  0.00000000000E+00 0. -1.
</event>
<event>
 7    1  0.2903212E-011  0.5052886E+02  0.7816164E-02  0.1300439E+00
        -11   -1    0    0    0    0  0.00000000000E+00  0.00000000000E+00  0.45593999997E+02  0.45594000000E+02  0.51100000000E-03 0.  1.
         11   -1    0    0    0    0 -0.00000000000E+00 -0.00000000000E+00 -0.45593999997E+02  0.45594000000E+02  0.51100000000E-03 0. -1.
    9900012    2    1    2    0    0  0.10266621824E+02  0.33051179570E+02 -0.21339668962E+02  0.50528862453E+02  0.30000007911E+02 0.  0.
        -12    1    1    2    0    0 -0.10266621824E+02 -0.33051179570E+02  0.21339668962E+02  0.40659137547E+02  0.00000000000E+00 0.  1.
         11    1    3    3    0    0  0.27433805272E+01  0.91675838731E+01 -0.17550250390E+01  0.97288665289E+01  0.51100000000E-03 0. -1.
        -11    1    3    3    0    0 -0.39129695756E+00  0.26636539598E+02 -0.11052985244E+02  0.28841408393E+02  0.51100000000E-03 0.  1.
         12    1    3    3    0    0  0.79145382546E+01 -0.27529439005E+01 -0.85316586792E+01  0.11958587530E+02  0.00000000000E+00 0. -1.
</event>
<event>
 7    1  0.2903212E-011  0.5052888E+02  0.7816164E-02  0.1300439E+00
        -11   -1    0    0    0    0  0.00000000000E+00  0.00000000000E+00  0.45593999997E+02  0.45594000000E+02  0.51100000000E-03 0. -1.
         11   -1    0    0    0    0 -0.00000000000E+00 -0.00000000000E+00 -0.45593999997E+02  0.45594000000E+02  0.51100000000E-03 0.  1.
    9900012    2    1    2    0    0 -0.21925870072E+02 -0.32013430425E+02  0.12147442628E+02  0.50528882100E+02  0.30000067632E+02 0.  0.
        -12    1    1    2    0    0  0.21925870072E+02  0.32013430425E+02 -0.12147442628E+02  0.40659117900E+02  0.00000000000E+00 0.  1.
         11    1    3    3    0    0  0.17849792034E+01 -0.15403196634E+02  0.88706370130E+01  0.17864288919E+02  0.51100000000E-03 0. -1.
        -11    1    3    3    0    0 -0.11767308001E+02 -0.52255343394E+01  0.84166305987E+01  0.15382308592E+02  0.51100000000E-03 0.  1.
        -12    1    3    3    0    0 -0.11943541275E+02 -0.11384699452E+02 -0.51398249838E+01  0.17282284590E+02  0.00000000000E+00 0.  1.
</event>
<event>
 7    1  0.2903212E-011  0.5052888E+02  0.7816164E-02  0.1300439E+00
        -11   -1    0    0    0    0  0.00000000000E+00  0.00000000000E+00  0.45593999997E+02  0.45594000000E+02  0.51100000000E-03 0.  1.
         11   -1    0    0    0    0 -0.00000000000E+00 -0.00000000000E+00 -0.45593999997E+02  0.45594000000E+02  0.51100000000E-03 0. -1.
    9900012    2    1    2    0    0 -0.28979507814E+02  0.14940953090E+02 -0.24292381719E+02  0.50528883409E+02  0.30000071609E+02 0.  0.
        -12    1    1    2    0    0  0.28979507814E+02 -0.14940953090E+02  0.24292381719E+02  0.40659116591E+02  0.00000000000E+00 0.  1.
         11    1    3    3    0    0 -0.43812914807E+00 -0.17572077508E+01 -0.19078905046E+01  0.26305479788E+01  0.51100000000E-03 0. -1.
        -11    1    3    3    0    0 -0.20760371110E+01 -0.57906488511E+01  0.70766444038E+00  0.61921186539E+01  0.51100000000E-03 0.  1.
         12    1    3    3    0    0 -0.26465341555E+02  0.22488809692E+02 -0.23092155655E+02  0.41706216776E+02  0.00000000000E+00 0. -1.
</event>
<event>
 7    1  0.2903212E-011  0.5052885E+02  0.7816164E-02  0.1300439E+00
        -11   -1    0    0    0    0  0.00000000000E+00  0.00000000000E+00  0.45593999997E+02  0.45594000000E+02  0.51100000000E-03 0.  1.
         11   -1    0    0    0    0 -0.00000000000E+00 -0.00000000000E+00 -0.45593999997E+02  0.45594000000E+02  0.51100000000E-03 0. -1.
    9900012    2    1    2    0    0  0.63648795169E+00 -0.40250871660E+02  0.57121464567E+01  0.50528850926E+02  0.29999972873E+02 0.  0.
        -12    1    1    2    0    0 -0.63648795169E+00  0.40250871660E+02 -0.57121464567E+01  0.40659149074E+02  0.00000000000E+00 0.  1.
         11    1    3    3    0    0  0.42064702515E+01 -0.13816050941E+02 -0.45560985233E+01  0.15143833385E+02  0.51100000000E-03 0. -1.
        -11    1    3    3    0    0 -0.23007653548E+01 -0.28990511078E+02  0.12605892702E+02  0.31696242441E+02  0.51100000000E-03 0.  1.
         12    1    3    3    0    0 -0.12692169450E+01  0.25556903589E+01 -0.23376477221E+01  0.36887750998E+01  0.00000000000E+00 0. -1.
</event>
<event>
 7    1  0.2903212E-011  0.5052886E+02  0.7816164E-02  0.1300439E+00
        -11   -1    0    0    0    0  0.00000000000E+00  0.00000000000E+00  0.45593999997E+02  0.45594000000E+02  0.51100000000E-03 0.  1.
         11   -1    0    0    0    0 -0.00000000000E+00 -0.00000000000E+00 -0.45593999997E+02  0.45594000000E+02  0.51100000000E-03 0. -1.
    9900012    2    1    2    0    0 -0.38875532237E+02 -0.11750822723E+02 -0.19433852032E+01  0.50528860960E+02  0.30000003375E+02 0.  0.
        -12    1    1    2    0    0  0.38875532237E+02  0.11750822723E+02  0.19433852032E+01  0.40659139040E+02  0.00000000000E+00 0.  1.
         11    1    3    3    0    0 -0.22348482399E+02 -0.14395150231E+02 -0.44256565927E+01  0.26949238435E+02  0.51100000000E-03 0. -1.
        -11    1    3    3    0    0  0.15647818697E+01 -0.37799674864E+01 -0.60120142003E+00  0.41349897106E+01  0.51100000000E-03 0.  1.
        -12    1    3    3    0    0 -0.18091831708E+02  0.64242949946E+01  0.30834728095E+01  0.19444632814E+02  0.00000000000E+00 0.  1.
</event>
<event>
 7    1  0.2903212E-011  0.5052885E+02  0.7816164E-02  0.1300439E+00
        -11   -1    0    0    0    0  0.00000000000E+00  0.00000000000E+00  0.45593999997E+02  0.45594000000E+02  0.51100000000E-03 0. -1.
         11   -1    0    0    0    0 -0.00000000000E+00 -0.00000000000E+00 -0.45593999997E+02  0.45594000000E+02  0.51100000000E-03 0.  1.
    9900012    2    1    2    0    0 -0.21838882511E+02  0.33749981659E+02 -0.60966088700E+01  0.50528847389E+02  0.29999962123E+02 0.  0.
        -12    1    1    2    0    0  0.21838882511E+02 -0.33749981659E+02  0.60966088700E+01  0.40659152611E+02  0.00000000000E+00 0.  1.
         11    1    3    3    0    0  0.39215034183E+01  0.21578839990E+01 -0.55292980668E+01  0.71139152220E+01  0.51100000000E-03 0. -1.
        -11    1    3    3    0    0 -0.53219091935E+01  0.17944633160E+02 -0.18299741928E+01  0.18806418652E+02  0.51100000000E-03 0.  1.
         12    1    3    3    0    0 -0.20438476736E+02  0.13647464501E+02  0.12626633896E+01  0.24608513515E+02  0.00000000000E+00 0. -1.
</event>
<event>
 7    1  0.2903212E-011  0.5052882E+02  0.7816164E-02  0.1300439E+00
        -11   -1    0    0    0    0  0.00000000000E+00  0.00000000000E+00  0.45593999997E+02  0.45594000000E+02  0.51100000000E-03 0. -1.
         11   -1    0    0    0    0 -0.00000000000E+00 -0.00000000000E+00 -0.45593999997E+02  0.45594000000E+02  0.51100000000E-03 0.  1.
    9900012    2    1    2    0    0 -0.18315948352E+02 -0.24145752675E+02  0.27104931629E+02  0.50528823239E+02  0.29999888717E+02 0.  0.
        -12    1    1    2    0    0  0.18315948352E+02  0.24145752675E+02 -0.27104931629E+02  0.40659176761E+02  0.00000000000E+00 0.  1.
         11    1    3    3    0    0 -0.87054592419E+01 -0.52962858599E+01  0.23535788657E+02  0.25647007866E+02  0.51100000000E-03 0. -1.
        -11    1    3    3    0    0 -0.63792700017E+01 -0.19084450614E+01  0.37349494053E+01  0.76345985898E+01  0.51100000000E-03 0.  1.
        -12    1    3    3    0    0 -0.32312191082E+01 -0.16941021754E+02 -0.16580643346E+00  0.17247216783E+02  0.00000000000E+00 0.  1.
</event>
<event>
 7    1  0.2903212E-011  0.5052886E+02  0.7816164E-02  0.1300439E+00
        -11   -1    0    0    0    0  0.00000000000E+00  0.00000000000E+00  0.45593999997E+02  0.45594000000E+02  0.51100000000E-03 0.  1.
         11   -1    0    0    0    0 -0.00000000000E+00 -0.00000000000E+00 -0.45593999997E+02  0.45594000000E+02  0.51100000000E-03 0. -1.
    9900012    2    1    2    0    0  0.89235853063E+01  0.39658174921E+02  0.87432052913E+00  0.50528860201E+02  0.30000001068E+02 0.  0.
        -12    1    1    2    0    0 -0.89235853063E+01 -0.39658174921E+02 -0.87432052913E+00  0.40659139799E+02  0.00000000000E+00 0.  1.
         11    1    3    3    0    0  0.43444125379E+01  0.41798014544E+01  0.48790949080E+00  0.60483647732E+01  0.51100000000E-03 0. -1.
        -11    1    3    3    0    0  0.19447259206E+01 -0.73977972972E-01  0.78245776959E+01  0.80629676935E+01  0.51100000000E-03 0.  1.
         12    1    3    3    0    0  0.26344468477E+01  0.35552351440E+02 -0.74381666575E+01  0.36417527735E+02  0.00000000000E+00 0. -1.
</event>
<event>
 7    1  0.2903212E-011  0.5052889E+02  0.7816164E-02  0.1300439E+00
        -11   -1    0    0    0    0  0.00000000000E+00  0.00000000000E+00  0.45593999997E+02  0.45594000000E+02  0.51100000000E-03 0. -1.
         11   -1    0    0    0    0 -0.00000000000E+00 -0.00000000000E+00 -0.45593999997E+02  0.45594000000E+02  0.51100000000E-03 0.  1.
    9900012    2    1    2    0    0  0.15889271110E+02 -0.30954488683E+02  0.21036011893E+02  0.50528891520E+02  0.30000096264E+02 0.  0.
        -12    1    1    2    0    0 -0.15889271110E+02  0.30954488683E+02 -0.21036011893E+02  0.40659108480E+02  0.00000000000E+00 0.  1.
         11    1    3    3    0    0  0.49306903517E+01  0.45831285124E+00  0.12631513527E+01  0.51105097216E+01  0.51100000000E-03 0. -1.
        -11    1    3    3    0    0 -0.49837364225E+01 -0.87912982865E+00 -0.10500335716E+01  0.51684687043E+01  0.51100000000E-03 0.  1.
         12    1    3    3    0    0  0.15942317181E+02 -0.30533671705E+02  0.20822894111E+02  0.40249913094E+02  0.00000000000E+00 0. -1.
</event>
<event>
 7    1  0.2903212E-011  0.5052886E+02  0.7816164E-02  0.1300439E+00
        -11   -1    0    0    0    0  0.00000000000E+00  0.00000000000E+00  0.45593999997E+02  0.45594000000E+02  0.51100000000E-03 0.  1.
         11   -1    0    0    0    0 -0.00000000000E+00 -0.00000000000E+00 -0.45593999997E+02  0.45594000000E+02  0.51100000000E-03 0. -1.
    9900012    2    1    2    0    0  0.92597911229E+01  0.17065612684E+01 -0.39553884938E+02  0.50528857157E+02  0.29999991814E+02 0.  0.
        -12    1    1    2    0    0 -0.92597911229E+01 -0.17065612684E+01  0.39553884938E+02  0.40659142843E+02  0.00000000000E+00 0.  1.
         11    1    3    3    0    0  0.94672520861E+01  0.31175598997E+01 -0.66475883567E+01  0.11980754276E+02  0.51100000000E-03 0.  1.
        -11    1    3    3    0    0  0.43427424304E+01 -0.37520860509E+01 -0.32934586909E+02  0.33430892550E+02  0.51100000000E-03 0. -1.
         12    1    3    3    0    0 -0.45502033937E+01  0.23410874197E+01  0.28290327641E-01  0.51172103311E+01  0.00000000000E+00 0. -1.
</event>
<event>
 7    1  0.2903212E-011  0.5052886E+02  0.7816164E-02  0.1300439E+00
        -11   -1    0    0    0    0  0.00000000000E+00  0.00000000000E+00  0.45593999997E+02  0.45594000000E+02  0.51100000000E-03 0.  1.
         11   -1    0    0    0    0 -0.00000000000E+00 -0.00000000000E+00 -0.45593999997E+02  0.45594000000E+02  0.51100000000E-03 0. -1.
    9900012    2    1    2    0    0 -0.72506027767E+01 -0.16821438711E+02 -0.36299225546E+02  0.50528858148E+02  0.29999994825E+02 0.  0.
        -12    1    1    2    0    0  0.72506027767E+01  0.16821438711E+02  0.36299225546E+02  0.40659141852E+02  0.00000000000E+00 0.  1.
         11    1    3    3    0    0 -0.36302453433E+01 -0.18841220258E+02 -0.20929110423E+02  0.28393624732E+02  0.51100000000E-03 0. -1.
        -11    1    3    3    0    0 -0.34824934501E+01 -0.27252115008E+01  0.14534420839E+01  0.46547859786E+01  0.51100000000E-03 0.  1.
         12    1    3    3    0    0 -0.13786398330E+00  0.47449930477E+01 -0.16823557207E+02  0.17480447437E+02  0.00000000000E+00 0. -1.
</event>
<event>
 7    1  0.2903212E-011  0.5052884E+02  0.7816164E-02  0.1300439E+00
        -11   -1    0    0    0    0  0.00000000000E+00  0.00000000000E+00  0.45593999997E+02  0.45594000000E+02  0.51100000000E-03 0.  1.
         11   -1    0    0    0    0 -0.00000000000E+00 -0.00000000000E+00 -0.45593999997E+02  0.45594000000E+02  0.51100000000E-03 0. -1.
    9900012    2    1    2    0    0 -0.12488935082E+02  0.13750044527E+02 -0.36168080114E+02  0.50528840600E+02  0.29999941487E+02 0.  0.
        -12    1    1    2    0    0  0.12488935082E+02 -0.13750044527E+02  0.36168080114E+02  0.40659159400E+02  0.00000000000E+00 0.  1.
         11    1    3    3    0    0  0.37043325407E+01  0.66074472041E+01 -0.12425797405E+02  0.14552693206E+02  0.51100000000E-03 0. -1.
        -11    1    3    3    0    0  0.43091386592E+01  0.43442391826E+01 -0.74421651846E+01  0.96346724363E+01  0.51100000000E-03 0.  1.
         12    1    3    3    0    0 -0.20502406282E+02  0.27983581399E+01 -0.16300117525E+02  0.26341474958E+02  0.00000000000E+00 0. -1.
</event>
<event>
 7    1  0.2903212E-011  0.5052886E+02  0.7816164E-02  0.1300439E+00
        -11   -1    0    0    0    0  0.00000000000E+00  0.00000000000E+00  0.45593999997E+02  0.45594000000E+02  0.51100000000E-03 0.  1.
         11   -1    0    0    0    0 -0.00000000000E+00 -0.00000000000E+00 -0.45593999997E+02  0.45594000000E+02  0.51100000000E-03 0. -1.
    9900012    2    1    2    0    0 -0.40012699639E+01 -0.48190264283E+01 -0.40173781781E+02  0.50528856875E+02  0.29999990958E+02 0.  0.
        -12    1    1    2    0    0  0.40012699639E+01  0.48190264283E+01  0.40173781781E+02  0.40659143125E+02  0.00000000000E+00 0.  1.
         11    1    3    3    0    0 -0.39505595928E+01 -0.11228213730E+01 -0.14075564288E+02  0.14662508626E+02  0.51100000000E-03 0. -1.
        -11    1    3    3    0    0  0.18403668991E+01 -0.11336871995E+02 -0.25506318507E+02  0.27972913703E+02  0.51100000000E-03 0.  1.
        -12    1    3    3    0    0 -0.18910772702E+01  0.76406669395E+01 -0.59189898572E+00  0.78934345460E+01  0.00000000000E+00 0.  1.
</event>
<event>
 7    1  0.2903212E-011  0.5052886E+02  0.7816164E-02  0.1300439E+00
        -11   -1    0    0    0    0  0.00000000000E+00  0.00000000000E+00  0.45593999997E+02  0.45594000000E+02  0.51100000000E-03 0.  1.
         11   -1    0    0    0    0 -0.00000000000E+00 -0.00000000000E+00 -0.45593999997E+02  0.45594000000E+02  0.51100000000E-03 0. -1.
    9900012    2    1    2    0    0  0.34730006702E+02 -0.19954785363E+02 -0.69856313577E+01  0.50528857487E+02  0.29999992818E+02 0.  0.
        -12    1    1    2    0    0 -0.34730006702E+02  0.19954785363E+02  0.69856313577E+01  0.40659142513E+02  0.00000000000E+00 0.  1.
         11    1    3    3    0    0  0.88057420772E+01  0.58417958787E+01 -0.36646719668E+01  0.11184699080E+02  0.51100000000E-03 0. -1.
        -11    1    3    3    0    0  0.22924391176E+02 -0.15751985272E+02  0.13942484821E+01  0.27849536439E+02  0.51100000000E-03 0.  1.
        -12    1    3    3    0    0  0.29998734494E+01 -0.10044595970E+02 -0.47152078730E+01  0.11494621968E+02  0.00000000000E+00 0.  1.
</event>
<event>
 7    1  0.2903212E-011  0.5052885E+02  0.7816164E-02  0.1300439E+00
        -11   -1    0    0    0    0  0.00000000000E+00  0.00000000000E+00  0.45593999997E+02  0.45594000000E+02  0.51100000000E-03 0. -1.
         11   -1    0    0    0    0 -0.00000000000E+00 -0.00000000000E+00 -0.45593999997E+02  0.45594000000E+02  0.51100000000E-03 0.  1.
    9900012    2    1    2    0    0 -0.29979716126E+02 -0.45474978491E+01  0.27086952816E+02  0.50528854307E+02  0.29999983151E+02 0.  0.
        -12    1    1    2    0    0  0.29979716126E+02  0.45474978491E+01 -0.27086952816E+02  0.40659145693E+02  0.00000000000E+00 0.  1.
         11    1    3    3    0    0 -0.10680306247E+02  0.73612031167E+01  0.20464467704E+01  0.13131801000E+02  0.51100000000E-03 0. -1.
        -11    1    3    3    0    0 -0.11916238256E+01  0.96837871008E+00 -0.19211420053E+01  0.24593721828E+01  0.51100000000E-03 0.  1.
         12    1    3    3    0    0 -0.18107786054E+02 -0.12877079676E+02  0.26961648050E+02  0.34937681124E+02  0.00000000000E+00 0. -1.
</event>
<event>
 7    1  0.2903212E-011  0.5052887E+02  0.7816164E-02  0.1300439E+00
        -11   -1    0    0    0    0  0.00000000000E+00  0.00000000000E+00  0.45593999997E+02  0.45594000000E+02  0.51100000000E-03 0. -1.
         11   -1    0    0    0    0 -0.00000000000E+00 -0.00000000000E+00 -0.45593999997E+02  0.45594000000E+02  0.51100000000E-03 0.  1.
    9900012    2    1    2    0    0  0.12850518264E+00 -0.21841360301E+02  0.34294360920E+02  0.50528871575E+02  0.30000035639E+02 0.  0.
        -12    1    1    2    0    0 -0.12850518264E+00  0.21841360301E+02 -0.34294360920E+02  0.40659128425E+02  0.00000000000E+00 0.  1.
         11    1    3    3    0    0  0.43292840403E+00 -0.65501719588E+01  0.61896845680E+01  0.90224373096E+01  0.51100000000E-03 0. -1.
        -11    1    3    3    0    0 -0.38869853047E+00 -0.17877665677E+02  0.32100898766E+02  0.36745472081E+02  0.51100000000E-03 0.  1.
        -12    1    3    3    0    0  0.84275309080E-01  0.25864773347E+01 -0.39962224145E+01  0.47609621840E+01  0.00000000000E+00 0.  1.
</event>
<event>
 7    1  0.2903212E-011  0.5052886E+02  0.7816164E-02  0.1300439E+00
        -11   -1    0    0    0    0  0.00000000000E+00  0.00000000000E+00  0.45593999997E+02  0.45594000000E+02  0.51100000000E-03 0. -1.
         11   -1    0    0    0    0 -0.00000000000E+00 -0.00000000000E+00 -0.45593999997E+02  0.45594000000E+02  0.51100000000E-03 0.  1.
    9900012    2    1    2    0    0 -0.32370105636E+02 -0.11742247456E+02  0.21620859048E+02  0.50528860065E+02  0.30000000655E+02 0.  0.
        -12    1    1    2    0    0  0.32370105636E+02  0.11742247456E+02 -0.21620859048E+02  0.40659139935E+02  0.00000000000E+00 0.  1.
         11    1    3    3    0    0 -0.25328341133E+01 -0.38182992495E+01  0.22023022411E+01  0.50837774564E+01  0.51100000000E-03 0. -1.
        -11    1    3    3    0    0 -0.27967866940E+02 -0.48665650768E+01  0.28926723674E+01  0.28535111538E+02  0.51100000000E-03 0.  1.
        -12    1    3    3    0    0 -0.18694045831E+01 -0.30573831300E+01  0.16525884440E+02  0.16909971071E+02  0.00000000000E+00 0.  1.
</event>
<event>
 7    1  0.2903212E-011  0.5052889E+02  0.7816164E-02  0.1300439E+00
        -11   -1    0    0    0    0  0.00000000000E+00  0.00000000000E+00  0.45593999997E+02  0.45594000000E+02  0.51100000000E-03 0.  1.
         11   -1    0    0    0    0 -0.00000000000E+00 -0.00000000000E+00 -0.45593999997E+02  0.45594000000E+02  0.51100000000E-03 0. -1.
    9900012    2    1    2    0    0  0.55115810521E+01 -0.28842976098E+02 -0.28122386744E+02  0.50528887466E+02  0.30000083940E+02 0.  0.
        -12    1    1    2    0    0 -0.55115810521E+01  0.28842976098E+02  0.28122386744E+02  0.40659112534E+02  0.00000000000E+00 0.  1.
         11    1    3    3    0    0 -0.52741590592E+01 -0.21613231617E+02 -0.10605947291E+02  0.24646189420E+02  0.51100000000E-03 0. -1.
        -11    1    3    3    0    0 -0.34094473463E+01 -0.14672747814E+01 -0.39317982747E+01  0.54070569098E+01  0.51100000000E-03 0.  1.
        -12    1    3    3    0    0  0.14195187458E+02 -0.57624697000E+01 -0.13584641178E+02  0.20475641136E+02  0.00000000000E+00 0.  1.
</event>
<event>
 7    1  0.2903212E-011  0.5052885E+02  0.7816164E-02  0.1300439E+00
        -11   -1    0    0    0    0  0.00000000000E+00  0.00000000000E+00  0.45593999997E+02  0.45594000000E+02  0.51100000000E-03 0.  1.
         11   -1    0    0    0    0 -0.00000000000E+00 -0.00000000000E+00 -0.45593999997E+02  0.45594000000E+02  0.51100000000E-03 0. -1.
    9900012    2    1    2    0    0 -0.16269723148E+02  0.62771438030E+01 -0.36729554144E+02  0.50528848838E+02  0.29999966527E+02 0.  0.
        -12    1    1    2    0    0  0.16269723148E+02 -0.62771438030E+01  0.36729554144E+02  0.40659151162E+02  0.00000000000E+00 0.  1.
         11    1    3    3    0    0  0.39094321718E+01  0.55135404752E+01 -0.22408185199E+01  0.71206780841E+01  0.51100000000E-03 0. -1.
        -11    1    3    3    0    0 -0.88776685003E-01 -0.13369074340E+01  0.15779389914E+01  0.20700469822E+01  0.51100000000E-03 0.  1.
         12    1    3    3    0    0 -0.20090378635E+02  0.21005107618E+01 -0.36066674615E+02  0.41338123771E+02  0.00000000000E+00 0. -1.
</event>
<event>
 7    1  0.2903212E-011  0.5052886E+02  0.7816164E-02  0.1300439E+00
        -11   -1    0    0    0    0  0.00000000000E+00  0.00000000000E+00  0.45593999997E+02  0.45594000000E+02  0.51100000000E-03 0.  1.
         11   -1    0    0    0    0 -0.00000000000E+00 -0.00000000000E+00 -0.45593999997E+02  0.45594000000E+02  0.51100000000E-03 0. -1.
    9900012    2    1    2    0    0 -0.38570624379E+02  0.33882838362E+01 -0.12409354469E+02  0.50528860674E+02  0.30000002506E+02 0.  0.
        -12    1    1    2    0    0  0.38570624379E+02 -0.33882838362E+01  0.12409354469E+02  0.40659139326E+02  0.00000000000E+00 0.  1.
         11    1    3    3    0    0 -0.18387086320E+02 -0.94343743989E+01 -0.57488299525E+01  0.21450906967E+02  0.51100000000E-03 0. -1.
        -11    1    3    3    0    0 -0.17411285955E+02  0.63568262590E+01  0.11439667114E+01  0.18570696777E+02  0.51100000000E-03 0.  1.
         12    1    3    3    0    0 -0.27722521050E+01  0.64658319762E+01 -0.78044912278E+01  0.10507256930E+02  0.00000000000E+00 0. -1.
</event>
<event>
 7    1  0.2903212E-011  0.5052886E+02  0.7816164E-02  0.1300439E+00
        -11   -1    0    0    0    0  0.00000000000E+00  0.00000000000E+00  0.45593999997E+02  0.45594000000E+02  0.51100000000E-03 0. -1.
         11   -1    0    0    0    0 -0.00000000000E+00 -0.00000000000E+00 -0.45593999997E+02  0.45594000000E+02  0.51100000000E-03 0.  1.
    9900012    2    1    2    0    0 -0.20740087962E+02  0.34421650907E+02 -0.61777310001E+01  0.50528860066E+02  0.30000000657E+02 0.  0.
        -12    1    1    2    0    0  0.20740087962E+02 -0.34421650907E+02  0.61777310001E+01  0.40659139934E+02  0.00000000000E+00 0.  1.
         11    1    3    3    0    0  0.34162784542E+01  0.71038876574E+01  0.17576972458E+01  0.80762415885E+01  0.51100000000E-03 0. -1.
        -11    1    3    3    0    0 -0.16279108305E+01  0.15365163678E+02 -0.69187913422E+01  0.16929501540E+02  0.51100000000E-03 0.  1.
        -12    1    3    3    0    0 -0.22528455586E+02  0.11952599572E+02 -0.10166369038E+01  0.25523116937E+02  0.00000000000E+00 0.  1.
</event>
<event>
 7    1  0.2903212E-011  0.5052886E+02  0.7816164E-02  0.1300439E+00
        -11   -1    0    0    0    0  0.00000000000E+00  0.00000000000E+00  0.45593999997E+02  0.45594000000E+02  0.51100000000E-03 0.  1.
         11   -1    0    0    0    0 -0.00000000000E+00 -0.00000000000E+00 -0.45593999997E+02  0.45594000000E+02  0.51100000000E-03 0. -1.
    9900012    2    1    2    0    0  0.30945057859E+02 -0.61643123322E+01 -0.25643133321E+02  0.50528860327E+02  0.30000001450E+02 0.  0.
        -12    1    1    2    0    0 -0.30945057859E+02  0.61643123322E+01  0.25643133321E+02  0.40659139673E+02  0.00000000000E+00 0.  1.
         11    1    3    3    0    0  0.75219923726E+01  0.61371493042E+01 -0.26973023595E+01  0.10075733776E+02  0.51100000000E-03 0. -1.
        -11    1    3    3    0    0 -0.25852549545E+01 -0.14494051028E+01 -0.80473512560E+01  0.85757903910E+01  0.51100000000E-03 0.  1.
        -12    1    3    3    0    0  0.26008320441E+02 -0.10852056534E+02 -0.14898479705E+02  0.31877336161E+02  0.00000000000E+00 0.  1.
</event>
<event>
 7    1  0.2903212E-011  0.5052887E+02  0.7816164E-02  0.1300439E+00
        -11   -1    0    0    0    0  0.00000000000E+00  0.00000000000E+00  0.45593999997E+02  0.45594000000E+02  0.51100000000E-03 0.  1.
         11   -1    0    0    0    0 -0.00000000000E+00 -0.00000000000E+00 -0.45593999997E+02  0.45594000000E+02  0.51100000000E-03 0. -1.
    9900012    2    1    2    0    0  0.25937245920E+02  0.17778668226E+02 -0.25774858425E+02  0.50528866995E+02  0.30000021719E+02 0.  0.
        -12    1    1    2    0    0 -0.25937245920E+02 -0.17778668226E+02  0.25774858425E+02  0.40659133005E+02  0.00000000000E+00 0.  1.
         11    1    3    3    0    0  0.28129281843E+01  0.55389844966E+01 -0.19647876164E+02  0.20606599725E+02  0.51100000000E-03 0. -1.
        -11    1    3    3    0    0  0.26342337192E+01  0.36166330381E+01 -0.62559121243E+01  0.76912715846E+01  0.51100000000E-03 0.  1.
        -12    1    3    3    0    0  0.20490084017E+02  0.86230506918E+01  0.12892986331E+00  0.22230995685E+02  0.00000000000E+00 0.  1.
</event>
<event>
 7    1  0.2903212E-011  0.5052886E+02  0.7816164E-02  0.1300439E+00
        -11   -1    0    0    0    0  0.00000000000E+00  0.00000000000E+00  0.45593999997E+02  0.45594000000E+02  0.51100000000E-03 0.  1.
         11   -1    0    0    0    0 -0.00000000000E+00 -0.00000000000E+00 -0.45593999997E+02  0.45594000000E+02  0.51100000000E-03 0. -1.
    9900012    2    1    2    0    0 -0.11647966996E+02  0.75665557033E+01 -0.38213061423E+02  0.50528856334E+02  0.29999989312E+02 0.  0.
        -12    1    1    2    0    0  0.11647966996E+02 -0.75665557033E+01  0.38213061423E+02  0.40659143666E+02  0.00000000000E+00 0.  1.
         11    1    3    3    0    0 -0.79334633782E+01  0.29382826047E+01 -0.10397461976E+01  0.85237561119E+01  0.51100000000E-03 0.  1.
        -11    1    3    3    0    0  0.13466506033E+01 -0.21973261193E+01 -0.31901215132E+02  0.32005143916E+02  0.51100000000E-03 0. -1.
         12    1    3    3    0    0 -0.50611542211E+01  0.68255992178E+01 -0.52721000936E+01  0.99999563064E+01  0.00000000000E+00 0. -1.
</event>
<event>
 7    1  0.2903212E-011  0.5052886E+02  0.7816164E-02  0.1300439E+00
        -11   -1    0    0    0    0  0.00000000000E+00  0.00000000000E+00  0.45593999997E+02  0.45594000000E+02  0.51100000000E-03 0.  1.
         11   -1    0    0    0    0 -0.00000000000E+00 -0.00000000000E+00 -0.45593999997E+02  0.45594000000E+02  0.51100000000E-03 0. -1.
    9900012    2    1    2    0    0 -0.56204595020E+01 -0.32497329235E+02 -0.23780237404E+02  0.50528860026E+02  0.30000000534E+02 0.  0.
        -12    1    1    2    0    0  0.56204595020E+01  0.32497329235E+02  0.23780237404E+02  0.40659139974E+02  0.00000000000E+00 0.  1.
         11    1    3    3    0    0 -0.67297880382E+01 -0.18075938121E+01 -0.62851295007E+00  0.69966042633E+01  0.51100000000E-03 0. -1.
        -11    1    3    3    0    0 -0.43296407049E+01 -0.19724868837E+02 -0.36708173526E+01  0.20525377940E+02  0.51100000000E-03 0.  1.
         12    1    3    3    0    0  0.54389692410E+01 -0.10964866586E+02 -0.19480907101E+02  0.23006877823E+02  0.00000000000E+00 0. -1.
</event>
<event>
 7    1  0.2903212E-011  0.5052890E+02  0.7816164E-02  0.1300439E+00
        -11   -1    0    0    0    0  0.00000000000E+00  0.00000000000E+00  0.45593999997E+02  0.45594000000E+02  0.51100000000E-03 0.  1.
         11   -1    0    0    0    0 -0.00000000000E+00 -0.00000000000E+00 -0.45593999997E+02  0.45594000000E+02  0.51100000000E-03 0. -1.
    9900012    2    1    2    0    0 -0.15215895083E+02 -0.22357417765E+02 -0.30360913885E+02  0.50528896662E+02  0.30000111893E+02 0.  0.
        -12    1    1    2    0    0  0.15215895083E+02  0.22357417765E+02  0.30360913885E+02  0.40659103338E+02  0.00000000000E+00 0.  1.
         11    1    3    3    0    0 -0.99044165523E+00 -0.14635222511E+01  0.87617851453E+00  0.19724505323E+01  0.51100000000E-03 0.  1.
        -11    1    3    3    0    0 -0.21865267645E+02 -0.10836300530E+02 -0.18538588858E+02  0.30646282246E+02  0.51100000000E-03 0. -1.
         12    1    3    3    0    0  0.76398142173E+01 -0.10057594984E+02 -0.12698503542E+02  0.17910163884E+02  0.00000000000E+00 0. -1.
</event>
<event>
 7    1  0.2903212E-011  0.5052886E+02  0.7816164E-02  0.1300439E+00
        -11   -1    0    0    0    0  0.00000000000E+00  0.00000000000E+00  0.45593999997E+02  0.45594000000E+02  0.51100000000E-03 0.  1.
         11   -1    0    0    0    0 -0.00000000000E+00 -0.00000000000E+00 -0.45593999997E+02  0.45594000000E+02  0.51100000000E-03 0. -1.
    9900012    2    1    2    0    0 -0.62133606618E+01  0.33887326486E+02 -0.21591865596E+02  0.50528863180E+02  0.30000010121E+02 0.  0.
        -12    1    1    2    0    0  0.62133606618E+01 -0.33887326486E+02  0.21591865596E+02  0.40659136820E+02  0.00000000000E+00 0.  1.
         11    1    3    3    0    0  0.10752917371E+00  0.16830748884E+02 -0.45691730464E+01  0.17440269869E+02  0.51100000000E-03 0. -1.
        -11    1    3    3    0    0  0.68009425904E+01  0.12846139545E+02 -0.97927737275E+01  0.17526395490E+02  0.51100000000E-03 0.  1.
        -12    1    3    3    0    0 -0.13121832426E+02  0.42104380574E+01 -0.72299188220E+01  0.15562197821E+02  0.00000000000E+00 0.  1.
</event>
<event>
 7    1  0.2903212E-011  0.5052886E+02  0.7816164E-02  0.1300439E+00
        -11   -1    0    0    0    0  0.00000000000E+00  0.00000000000E+00  0.45593999997E+02  0.45594000000E+02  0.51100000000E-03 0. -1.
         11   -1    0    0    0    0 -0.00000000000E+00 -0.00000000000E+00 -0.45593999997E+02  0.45594000000E+02  0.51100000000E-03 0.  1.
    9900012    2    1    2    0    0  0.19145984389E+02  0.18441278789E+02  0.30765500999E+02  0.50528861626E+02  0.30000005398E+02 0.  0.
        -12    1    1    2    0    0 -0.19145984389E+02 -0.18441278789E+02 -0.30765500999E+02  0.40659138374E+02  0.00000000000E+00 0.  1.
         11    1    3    3    0    0  0.13424549269E+02 -0.34730970924E+01  0.20426050078E+02  0.24688143886E+02  0.51100000000E-03 0. -1.
        -11    1    3    3    0    0  0.16742093348E+01  0.48891930831E+00  0.87129730962E-01  0.17463134993E+01  0.51100000000E-03 0.  1.
         12    1    3    3    0    0  0.40472257854E+01  0.21425456573E+02  0.10252321190E+02  0.24094404241E+02  0.00000000000E+00 0. -1.
</event>
<event>
 7    1  0.2903212E-011  0.5052886E+02  0.7816164E-02  0.1300439E+00
        -11   -1    0    0    0    0  0.00000000000E+00  0.00000000000E+00  0.45593999997E+02  0.45594000000E+02  0.51100000000E-03 0.  1.
         11   -1    0    0    0    0 -0.00000000000E+00 -0.00000000000E+00 -0.45593999997E+02  0.45594000000E+02  0.51100000000E-03 0. -1.
    9900012    2    1    2    0    0 -0.39120250675E+02 -0.10823616528E+02 -0.23708314201E+01  0.50528861676E+02  0.30000005550E+02 0.  0.
        -12    1    1    2    0    0  0.39120250675E+02  0.10823616528E+02  0.23708314201E+01  0.40659138324E+02  0.00000000000E+00 0.  1.
         11    1    3    3    0    0 -0.13492343771E+02  0.29879008630E+00 -0.71069041470E+01  0.15252563810E+02  0.51100000000E-03 0. -1.
        -11    1    3    3    0    0 -0.15852122971E+02  0.44777170735E+01  0.10879927372E+01  0.16508285233E+02  0.51100000000E-03 0.  1.
        -12    1    3    3    0    0 -0.97757839323E+01 -0.15600123688E+02  0.36480799897E+01  0.18768012633E+02  0.00000000000E+00 0.  1.
</event>
<event>
 7    1  0.2903212E-011  0.5052886E+02  0.7816164E-02  0.1300439E+00
        -11   -1    0    0    0    0  0.00000000000E+00  0.00000000000E+00  0.45593999997E+02  0.45594000000E+02  0.51100000000E-03 0.  1.
         11   -1    0    0    0    0 -0.00000000000E+00 -0.00000000000E+00 -0.45593999997E+02  0.45594000000E+02  0.51100000000E-03 0. -1.
    9900012    2    1    2    0    0  0.29519741718E+02 -0.21892457801E+02 -0.17391691663E+02  0.50528858365E+02  0.29999995485E+02 0.  0.
        -12    1    1    2    0    0 -0.29519741718E+02  0.21892457801E+02  0.17391691663E+02  0.40659141635E+02  0.00000000000E+00 0.  1.
         11    1    3    3    0    0  0.18917385561E+02 -0.12278689901E+02 -0.10714967472E+02  0.24968865219E+02  0.51100000000E-03 0. -1.
        -11    1    3    3    0    0  0.13228170579E+02 -0.13271159352E+02 -0.16479925311E+01  0.18810211244E+02  0.51100000000E-03 0.  1.
        -12    1    3    3    0    0 -0.26258144223E+01  0.36573914518E+01 -0.50287316596E+01  0.67497819014E+01  0.00000000000E+00 0.  1.
</event>
<event>
 7    1  0.2903212E-011  0.5052884E+02  0.7816164E-02  0.1300439E+00
        -11   -1    0    0    0    0  0.00000000000E+00  0.00000000000E+00  0.45593999997E+02  0.45594000000E+02  0.51100000000E-03 0. -1.
         11   -1    0    0    0    0 -0.00000000000E+00 -0.00000000000E+00 -0.45593999997E+02  0.45594000000E+02  0.51100000000E-03 0.  1.
    9900012    2    1    2    0    0  0.34683312009E+02  0.20071786775E+02 -0.68817326350E+01  0.50528843586E+02  0.29999950563E+02 0.  0.
        -12    1    1    2    0    0 -0.34683312009E+02 -0.20071786775E+02  0.68817326350E+01  0.40659156414E+02  0.00000000000E+00 0.  1.
         11    1    3    3    0    0  0.28567868552E+02  0.15686899180E+02 -0.72820966261E+01  0.33395072256E+02  0.51100000000E-03 0. -1.
        -11    1    3    3    0    0  0.11020769138E+02  0.31787846201E+01 -0.18242058734E+01  0.11614204724E+02  0.51100000000E-03 0.  1.
        -12    1    3    3    0    0 -0.49053256810E+01  0.12061029755E+01  0.22245698645E+01  0.55195666049E+01  0.00000000000E+00 0.  1.
</event>
<event>
 7    1  0.2903212E-011  0.5052886E+02  0.7816164E-02  0.1300439E+00
        -11   -1    0    0    0    0  0.00000000000E+00  0.00000000000E+00  0.45593999997E+02  0.45594000000E+02  0.51100000000E-03 0. -1.
         11   -1    0    0    0    0 -0.00000000000E+00 -0.00000000000E+00 -0.45593999997E+02  0.45594000000E+02  0.51100000000E-03 0.  1.
    9900012    2    1    2    0    0 -0.26589432755E+02  0.30759034677E+02  0.22174000663E+00  0.50528864284E+02  0.30000013479E+02 0.  0.
        -12    1    1    2    0    0  0.26589432755E+02 -0.30759034677E+02 -0.22174000663E+00  0.40659135716E+02  0.00000000000E+00 0.  1.
         11    1    3    3    0    0 -0.15394438837E+02  0.25056655504E+01 -0.71306319391E+00  0.15613313753E+02  0.51100000000E-03 0. -1.
        -11    1    3    3    0    0  0.25679822144E+01  0.50290400117E+01 -0.46891399770E+01  0.73398780697E+01  0.51100000000E-03 0.  1.
         12    1    3    3    0    0 -0.13762976132E+02  0.23224329115E+02  0.56239431775E+01  0.27575672462E+02  0.00000000000E+00 0. -1.
</event>
<event>
 7    1  0.2903212E-011  0.5052883E+02  0.7816164E-02  0.1300439E+00
        -11   -1    0    0    0    0  0.00000000000E+00  0.00000000000E+00  0.45593999997E+02  0.45594000000E+02  0.51100000000E-03 0.  1.
         11   -1    0    0    0    0 -0.00000000000E+00 -0.00000000000E+00 -0.45593999997E+02  0.45594000000E+02  0.51100000000E-03 0. -1.
    9900012    2    1    2    0    0 -0.39343335644E+02  0.27535888612E+01 -0.98837329103E+01  0.50528825298E+02  0.29999894974E+02 0.  0.
        -12    1    1    2    0    0  0.39343335644E+02 -0.27535888612E+01  0.98837329103E+01  0.40659174702E+02  0.00000000000E+00 0.  1.
         11    1    3    3    0    0 -0.31422016302E+01 -0.33036259509E+01 -0.34979200779E+01  0.57465485851E+01  0.51100000000E-03 0. -1.
        -11    1    3    3    0    0  0.26235972070E+01  0.43906217104E+01  0.10380088765E+01  0.52190309442E+01  0.51100000000E-03 0.  1.
         12    1    3    3    0    0 -0.38824731221E+02  0.16665931018E+01 -0.74238217090E+01  0.39563245768E+02  0.00000000000E+00 0. -1.
</event>
<event>
 7    1  0.2903212E-011  0.5052901E+02  0.7816164E-02  0.1300438E+00
        -11   -1    0    0    0    0  0.00000000000E+00  0.00000000000E+00  0.45593999997E+02  0.45594000000E+02  0.51100000000E-03 0. -1.
         11   -1    0    0    0    0 -0.00000000000E+00 -0.00000000000E+00 -0.45593999997E+02  0.45594000000E+02  0.51100000000E-03 0.  1.
    9900012    2    1    2    0    0  0.79473697987E+01 -0.39173928317E+02 -0.74428688864E+01  0.50529007837E+02  0.30000449817E+02 0.  0.
        -12    1    1    2    0    0 -0.79473697987E+01  0.39173928317E+02  0.74428688864E+01  0.40658992163E+02  0.00000000000E+00 0.  1.
         11    1    3    3    0    0  0.18054528031E-01 -0.19191511800E+02 -0.31509612625E+01  0.19448470590E+02  0.51100000000E-03 0. -1.
        -11    1    3    3    0    0  0.58528433892E+01 -0.23610037546E+02  0.99000994540E+00  0.24344809891E+02  0.51100000000E-03 0.  1.
        -12    1    3    3    0    0  0.20764718815E+01  0.36276210294E+01 -0.52819175693E+01  0.67357273562E+01  0.00000000000E+00 0.  1.
</event>
<event>
 7    1  0.2903212E-011  0.5052883E+02  0.7816164E-02  0.1300439E+00
        -11   -1    0    0    0    0  0.00000000000E+00  0.00000000000E+00  0.45593999997E+02  0.45594000000E+02  0.51100000000E-03 0. -1.
         11   -1    0    0    0    0 -0.00000000000E+00 -0.00000000000E+00 -0.45593999997E+02  0.45594000000E+02  0.51100000000E-03 0.  1.
    9900012    2    1    2    0    0 -0.32232573295E+02  0.99696515152E+01  0.22689976033E+02  0.50528834429E+02  0.29999922731E+02 0.  0.
        -12    1    1    2    0    0  0.32232573295E+02 -0.99696515152E+01 -0.22689976033E+02  0.40659165571E+02  0.00000000000E+00 0.  1.
         11    1    3    3    0    0 -0.17685737047E+02  0.10262658844E+02  0.18557531441E+02  0.27613211238E+02  0.51100000000E-03 0. -1.
        -11    1    3    3    0    0 -0.16894138158E+02  0.42544574045E+01  0.31139096164E+01  0.17697704520E+02  0.51100000000E-03 0.  1.
        -12    1    3    3    0    0  0.23473019106E+01 -0.45474647334E+01  0.10185349752E+01  0.52179186710E+01  0.00000000000E+00 0.  1.
</event>
<event>
 7    1  0.2903212E-011  0.5052886E+02  0.7816164E-02  0.1300439E+00
        -11   -1    0    0    0    0  0.00000000000E+00  0.00000000000E+00  0.45593999997E+02  0.45594000000E+02  0.51100000000E-03 0.  1.
         11   -1    0    0    0    0 -0.00000000000E+00 -0.00000000000E+00 -0.45593999997E+02  0.45594000000E+02  0.51100000000E-03 0. -1.
    9900012    2    1    2    0    0 -0.20009082169E+02  0.11247653748E+02 -0.33560284098E+02  0.50528858927E+02  0.29999997193E+02 0.  0.
        -12    1    1    2    0    0  0.20009082169E+02 -0.11247653748E+02  0.33560284098E+02  0.40659141073E+02  0.00000000000E+00 0.  1.
         11    1    3    3    0    0 -0.15273231608E+02  0.83987284891E+01 -0.15874560991E+02  0.23575663954E+02  0.51100000000E-03 0. -1.
        -11    1    3    3    0    0 -0.96289465512E+01  0.32236517371E+01 -0.17818407830E+01  0.10309388878E+02  0.51100000000E-03 0.  1.
        -12    1    3    3    0    0  0.48930959899E+01 -0.37472647868E+00 -0.15903882324E+02  0.16643806094E+02  0.00000000000E+00 0.  1.
</event>
<event>
 7    1  0.2903212E-011  0.5052880E+02  0.7816164E-02  0.1300439E+00
        -11   -1    0    0    0    0  0.00000000000E+00  0.00000000000E+00  0.45593999997E+02  0.45594000000E+02  0.51100000000E-03 0.  1.
         11   -1    0    0    0    0 -0.00000000000E+00 -0.00000000000E+00 -0.45593999997E+02  0.45594000000E+02  0.51100000000E-03 0. -1.
    9900012    2    1    2    0    0  0.14441946289E+02 -0.68365378152E+01 -0.37387999741E+02  0.50528799485E+02  0.29999816513E+02 0.  0.
        -12    1    1    2    0    0 -0.14441946289E+02  0.68365378152E+01  0.37387999741E+02  0.40659200515E+02  0.00000000000E+00 0.  1.
         11    1    3    3    0    0  0.96259728814E+01 -0.59805024920E+01 -0.10551548803E+02  0.15484216040E+02  0.51100000000E-03 0. -1.
        -11    1    3    3    0    0  0.36955781654E+01  0.49454446509E+01  0.12875939352E+01  0.63065536686E+01  0.51100000000E-03 0.  1.
        -12    1    3    3    0    0  0.11203952424E+01 -0.58014799741E+01 -0.28124044873E+02  0.28738029776E+02  0.00000000000E+00 0.  1.
</event>
<event>
 7    1  0.2903212E-011  0.5052886E+02  0.7816164E-02  0.1300439E+00
        -11   -1    0    0    0    0  0.00000000000E+00  0.00000000000E+00  0.45593999997E+02  0.45594000000E+02  0.51100000000E-03 0.  1.
         11   -1    0    0    0    0 -0.00000000000E+00 -0.00000000000E+00 -0.45593999997E+02  0.45594000000E+02  0.51100000000E-03 0. -1.
    9900012    2    1    2    0    0 -0.28516674777E+02  0.16064727292E+02  0.24122379255E+02  0.50528863459E+02  0.30000010971E+02 0.  0.
        -12    1    1    2    0    0  0.28516674777E+02 -0.16064727292E+02 -0.24122379255E+02  0.40659136541E+02  0.00000000000E+00 0.  1.
         11    1    3    3    0    0 -0.39336695609E+01  0.11856752331E+02  0.37548034236E+01  0.13044342876E+02  0.51100000000E-03 0. -1.
        -11    1    3    3    0    0 -0.52720067142E+01  0.88706960695E+01  0.12268155787E+02  0.16030937285E+02  0.51100000000E-03 0.  1.
         12    1    3    3    0    0 -0.19310998502E+02 -0.46627211088E+01  0.80994200444E+01  0.21453583298E+02  0.00000000000E+00 0. -1.
</event>
<event>
 7    1  0.2903212E-011  0.5052886E+02  0.7816164E-02  0.1300439E+00
        -11   -1    0    0    0    0  0.00000000000E+00  0.00000000000E+00  0.45593999997E+02  0.45594000000E+02  0.51100000000E-03 0.  1.
         11   -1    0    0    0    0 -0.00000000000E+00 -0.00000000000E+00 -0.45593999997E+02  0.45594000000E+02  0.51100000000E-03 0. -1.
    9900012    2    1    2    0    0  0.27657007592E+02  0.28309446630E+02 -0.93183049270E+01  0.50528860263E+02  0.30000001255E+02 0.  0.
        -12    1    1    2    0    0 -0.27657007592E+02 -0.28309446630E+02  0.93183049270E+01  0.40659139737E+02  0.00000000000E+00 0.  1.
         11    1    3    3    0    0  0.36355818451E+01 -0.42455139130E+00 -0.34347902708E+01  0.50195103050E+01  0.51100000000E-03 0. -1.
        -11    1    3    3    0    0  0.61729843274E+01  0.14760004712E+02 -0.14172424237E+02  0.21373373239E+02  0.51100000000E-03 0.  1.
        -12    1    3    3    0    0  0.17848441420E+02  0.13973993309E+02  0.82889095810E+01  0.24135976719E+02  0.00000000000E+00 0.  1.
</event>
<event>
 7    1  0.2903212E-011  0.5052886E+02  0.7816164E-02  0.1300439E+00
        -11   -1    0    0    0    0  0.00000000000E+00  0.00000000000E+00  0.45593999997E+02  0.45594000000E+02  0.51100000000E-03 0.  1.
         11   -1    0    0    0    0 -0.00000000000E+00 -0.00000000000E+00 -0.45593999997E+02  0.45594000000E+02  0.51100000000E-03 0. -1.
    9900012    2    1    2    0    0 -0.44903658619E+01  0.15893258887E+02 -0.37153827286E+02  0.50528856555E+02  0.29999989986E+02 0.  0.
        -12    1    1    2    0    0  0.44903658619E+01 -0.15893258887E+02  0.37153827286E+02  0.40659143445E+02  0.00000000000E+00 0.  1.
         11    1    3    3    0    0 -0.21264008298E+01  0.58729484762E+01  0.12450535856E+01  0.63689295007E+01  0.51100000000E-03 0.  1.
        -11    1    3    3    0    0 -0.36082110321E+01  0.82673658896E+01 -0.40295740187E+02  0.41293040613E+02  0.51100000000E-03 0. -1.
         12    1    3    3    0    0  0.12442460000E+01  0.17529445216E+01  0.18968593155E+01  0.28668864413E+01  0.00000000000E+00 0. -1.
</event>
<event>
 7    1  0.2903212E-011  0.5052886E+02  0.7816164E-02  0.1300439E+00
        -11   -1    0    0    0    0  0.00000000000E+00  0.00000000000E+00  0.45593999997E+02  0.45594000000E+02  0.51100000000E-03 0. -1.
         11   -1    0    0    0    0 -0.00000000000E+00 -0.00000000000E+00 -0.45593999997E+02  0.45594000000E+02  0.51100000000E-03 0.  1.
    9900012    2    1    2    0    0 -0.79267458195E+01  0.17105242420E+02  0.36024198998E+02  0.50528861655E+02  0.30000005487E+02 0.  0.
        -12    1    1    2    0    0  0.79267458195E+01 -0.17105242420E+02 -0.36024198998E+02  0.40659138345E+02  0.00000000000E+00 0.  1.
         11    1    3    3    0    0 -0.10358323078E+02  0.10701936653E+02  0.32690859936E+02  0.35923789175E+02  0.51100000000E-03 0. -1.
        -11    1    3    3    0    0  0.24721858184E+00  0.25417699100E+01  0.78614121229E+01  0.82658037800E+01  0.51100000000E-03 0.  1.
        -12    1    3    3    0    0  0.21843586771E+01  0.38615358564E+01 -0.45280730610E+01  0.63392686996E+01  0.00000000000E+00 0.  1.
</event>
<event>
 7    1  0.2903212E-011  0.5052886E+02  0.7816164E-02  0.1300439E+00
        -11   -1    0    0    0    0  0.00000000000E+00  0.00000000000E+00  0.45593999997E+02  0.45594000000E+02  0.51100000000E-03 0.  1.
         11   -1    0    0    0    0 -0.00000000000E+00 -0.00000000000E+00 -0.45593999997E+02  0.45594000000E+02  0.51100000000E-03 0. -1.
    9900012    2    1    2    0    0 -0.18731367742E+02 -0.67027320261E+00 -0.36081188501E+02  0.50528861208E+02  0.30000004128E+02 0.  0.
        -12    1    1    2    0    0  0.18731367742E+02  0.67027320261E+00  0.36081188501E+02  0.40659138792E+02  0.00000000000E+00 0.  1.
         11    1    3    3    0    0 -0.62091971672E+00 -0.18072310523E+01 -0.15441237579E+02  0.15559030934E+02  0.51100000000E-03 0. -1.
        -11    1    3    3    0    0  0.31302307317E+01  0.48576571953E+01 -0.83338626453E+01  0.10141422223E+02  0.51100000000E-03 0.  1.
        -12    1    3    3    0    0 -0.21240678757E+02 -0.37206993456E+01 -0.12306088277E+02  0.24828408051E+02  0.00000000000E+00 0.  1.
</event>
<event>
 7    1  0.2903212E-011  0.5052885E+02  0.7816164E-02  0.1300439E+00
        -11   -1    0    0    0    0  0.00000000000E+00  0.00000000000E+00  0.45593999997E+02  0.45594000000E+02  0.51100000000E-03 0. -1.
         11   -1    0    0    0    0 -0.00000000000E+00 -0.00000000000E+00 -0.45593999997E+02  0.45594000000E+02  0.51100000000E-03 0.  1.
    9900012    2    1    2    0    0  0.85204006562E+01 -0.32139222909E+02  0.23401706642E+02  0.50528846660E+02  0.29999959907E+02 0.  0.
        -12    1    1    2    0    0 -0.85204006562E+01  0.32139222909E+02 -0.23401706642E+02  0.40659153340E+02  0.00000000000E+00 0.  1.
         11    1    3    3    0    0 -0.21384385898E+01  0.47091292169E+00  0.21948920006E+01  0.31003596142E+01  0.51100000000E-03 0.  1.
        -11    1    3    3    0    0  0.11087878106E+02 -0.22358741036E+01  0.98464971959E+01  0.14996455621E+02  0.51100000000E-03 0. -1.
         12    1    3    3    0    0 -0.42903886034E+00 -0.30374261728E+02  0.11360317446E+02  0.32432031424E+02  0.00000000000E+00 0. -1.
</event>
<event>
 7    1  0.2903212E-011  0.5052886E+02  0.7816164E-02  0.1300439E+00
        -11   -1    0    0    0    0  0.00000000000E+00  0.00000000000E+00  0.45593999997E+02  0.45594000000E+02  0.51100000000E-03 0.  1.
         11   -1    0    0    0    0 -0.00000000000E+00 -0.00000000000E+00 -0.45593999997E+02  0.45594000000E+02  0.51100000000E-03 0. -1.
    9900012    2    1    2    0    0  0.15310170715E+02  0.14362933510E+01 -0.37639090330E+02  0.50528863427E+02  0.30000010874E+02 0.  0.
        -12    1    1    2    0    0 -0.15310170715E+02 -0.14362933510E+01  0.37639090330E+02  0.40659136573E+02  0.00000000000E+00 0.  1.
         11    1    3    3    0    0  0.59941418656E+01  0.67759258406E+00 -0.32480848660E+01  0.68511987253E+01  0.51100000000E-03 0. -1.
        -11    1    3    3    0    0  0.14386921469E+02 -0.80668329018E+01 -0.18287423643E+02  0.24626960149E+02  0.51100000000E-03 0.  1.
         12    1    3    3    0    0 -0.50708926193E+01  0.88255336687E+01 -0.16103581821E+02  0.19050704553E+02  0.00000000000E+00 0. -1.
</event>
<event>
 7    1  0.2903212E-011  0.5052885E+02  0.7816164E-02  0.1300439E+00
        -11   -1    0    0    0    0  0.00000000000E+00  0.00000000000E+00  0.45593999997E+02  0.45594000000E+02  0.51100000000E-03 0.  1.
         11   -1    0    0    0    0 -0.00000000000E+00 -0.00000000000E+00 -0.45593999997E+02  0.45594000000E+02  0.51100000000E-03 0. -1.
    9900012    2    1    2    0    0 -0.31811255861E+02  0.60795156855E+01 -0.24581489678E+02  0.50528854101E+02  0.29999982526E+02 0.  0.
        -12    1    1    2    0    0  0.31811255861E+02 -0.60795156855E+01  0.24581489678E+02  0.40659145899E+02  0.00000000000E+00 0.  1.
         11    1    3    3    0    0 -0.10703153879E+02 -0.34317056226E+01 -0.58896533595E+01  0.12689449295E+02  0.51100000000E-03 0. -1.
        -11    1    3    3    0    0 -0.23177665400E+02  0.46521013340E-01 -0.12385411376E+02  0.26279359825E+02  0.51100000000E-03 0.  1.
        -12    1    3    3    0    0  0.20695634183E+01  0.94647002947E+01 -0.63064249421E+01  0.11560044981E+02  0.00000000000E+00 0.  1.
</event>
<event>
 7    1  0.2903212E-011  0.5052887E+02  0.7816164E-02  0.1300439E+00
        -11   -1    0    0    0    0  0.00000000000E+00  0.00000000000E+00  0.45593999997E+02  0.45594000000E+02  0.51100000000E-03 0. -1.
         11   -1    0    0    0    0 -0.00000000000E+00 -0.00000000000E+00 -0.45593999997E+02  0.45594000000E+02  0.51100000000E-03 0.  1.
    9900012    2    1    2    0    0 -0.20437282271E+02 -0.24499056901E+02  0.25204739585E+02  0.50528865809E+02  0.30000018112E+02 0.  0.
        -12    1    1    2    0    0  0.20437282271E+02  0.24499056901E+02 -0.25204739585E+02  0.40659134191E+02  0.00000000000E+00 0.  1.
         11    1    3    3    0    0 -0.22200668955E+02 -0.18571218890E+02  0.25371620221E+02  0.38489985529E+02  0.51100000000E-03 0. -1.
        -11    1    3    3    0    0 -0.43477844890E+01 -0.23472411662E+01  0.21619448476E+00  0.49456558080E+01  0.51100000000E-03 0.  1.
        -12    1    3    3    0    0  0.61111711726E+01 -0.35805968439E+01 -0.38307512073E+00  0.70932244718E+01  0.00000000000E+00 0.  1.
</event>
<event>
 7    1  0.2903212E-011  0.5052886E+02  0.7816164E-02  0.1300439E+00
        -11   -1    0    0    0    0  0.00000000000E+00  0.00000000000E+00  0.45593999997E+02  0.45594000000E+02  0.51100000000E-03 0.  1.
         11   -1    0    0    0    0 -0.00000000000E+00 -0.00000000000E+00 -0.45593999997E+02  0.45594000000E+02  0.51100000000E-03 0. -1.
    9900012    2    1    2    0    0 -0.23934260131E+02  0.20215896198E+02 -0.25915912572E+02  0.50528858450E+02  0.29999995746E+02 0.  0.
        -12    1    1    2    0    0  0.23934260131E+02 -0.20215896198E+02  0.25915912572E+02  0.40659141550E+02  0.00000000000E+00 0.  1.
         11    1    3    3    0    0 -0.15479961323E+01  0.16661613428E+02 -0.57841068726E+01  0.17704845286E+02  0.51100000000E-03 0. -1.
        -11    1    3    3    0    0 -0.44186048600E+01  0.19681311398E+01  0.11041433100E+01  0.49615261566E+01  0.51100000000E-03 0.  1.
         12    1    3    3    0    0 -0.17967659138E+02  0.15861516307E+01 -0.21235949010E+02  0.27862487008E+02  0.00000000000E+00 0. -1.
</event>
<event>
 7    1  0.2903212E-011  0.5052886E+02  0.7816164E-02  0.1300439E+00
        -11   -1    0    0    0    0  0.00000000000E+00  0.00000000000E+00  0.45593999997E+02  0.45594000000E+02  0.51100000000E-03 0.  1.
         11   -1    0    0    0    0 -0.00000000000E+00 -0.00000000000E+00 -0.45593999997E+02  0.45594000000E+02  0.51100000000E-03 0. -1.
    9900012    2    1    2    0    0  0.30851426096E+02  0.99358322882E+01 -0.24548607083E+02  0.50528863694E+02  0.30000011686E+02 0.  0.
        -12    1    1    2    0    0 -0.30851426096E+02 -0.99358322882E+01  0.24548607083E+02  0.40659136306E+02  0.00000000000E+00 0.  1.
         11    1    3    3    0    0  0.18291613019E+02  0.15562810190E+02 -0.18515905445E+02  0.30325285201E+02  0.51100000000E-03 0. -1.
        -11    1    3    3    0    0  0.69805571159E+01  0.40729471266E+01 -0.28508318755E+01  0.85699660786E+01  0.51100000000E-03 0.  1.
        -12    1    3    3    0    0  0.55792559608E+01 -0.96999250281E+01 -0.31818697629E+01  0.11633612415E+02  0.00000000000E+00 0.  1.
</event>
<event>
 7    1  0.2903212E-011  0.5052886E+02  0.7816164E-02  0.1300439E+00
        -11   -1    0    0    0    0  0.00000000000E+00  0.00000000000E+00  0.45593999997E+02  0.45594000000E+02  0.51100000000E-03 0. -1.
         11   -1    0    0    0    0 -0.00000000000E+00 -0.00000000000E+00 -0.45593999997E+02  0.45594000000E+02  0.51100000000E-03 0.  1.
    9900012    2    1    2    0    0 -0.76401093967E+01 -0.19421661467E+02  0.34894035809E+02  0.50528856615E+02  0.29999990168E+02 0.  0.
        -12    1    1    2    0    0  0.76401093967E+01  0.19421661467E+02 -0.34894035809E+02  0.40659143385E+02  0.00000000000E+00 0.  1.
         11    1    3    3    0    0 -0.55853627349E+01 -0.15767823549E+02  0.14323851097E+02  0.22022562223E+02  0.51100000000E-03 0. -1.
        -11    1    3    3    0    0  0.16879044803E+01 -0.38853202979E+01 -0.26424588740E+01  0.49927271619E+01  0.51100000000E-03 0.  1.
        -12    1    3    3    0    0 -0.37426511421E+01  0.23148237955E+00  0.23212643586E+02  0.23513567231E+02  0.00000000000E+00 0.  1.
</event>
<event>
 7    1  0.2903212E-011  0.5052886E+02  0.7816164E-02  0.1300439E+00
        -11   -1    0    0    0    0  0.00000000000E+00  0.00000000000E+00  0.45593999997E+02  0.45594000000E+02  0.51100000000E-03 0.  1.
         11   -1    0    0    0    0 -0.00000000000E+00 -0.00000000000E+00 -0.45593999997E+02  0.45594000000E+02  0.51100000000E-03 0. -1.
    9900012    2    1    2    0    0 -0.25451805933E+01  0.16969783313E+02 -0.36860742711E+02  0.50528857816E+02  0.29999993818E+02 0.  0.
        -12    1    1    2    0    0  0.25451805933E+01 -0.16969783313E+02  0.36860742711E+02  0.40659142184E+02  0.00000000000E+00 0.  1.
         11    1    3    3    0    0 -0.48454251582E+01  0.11527465511E+01 -0.20544377852E+02  0.21139499312E+02  0.51100000000E-03 0. -1.
        -11    1    3    3    0    0  0.27301673739E+01 -0.25618309442E+01  0.12649123389E+01  0.39518090999E+01  0.51100000000E-03 0.  1.
        -12    1    3    3    0    0 -0.42992280893E+00  0.18378867706E+02 -0.17581277197E+02  0.25437549404E+02  0.00000000000E+00 0.  1.
</event>
<event>
 7    1  0.2903212E-011  0.5052876E+02  0.7816164E-02  0.1300439E+00
        -11   -1    0    0    0    0  0.00000000000E+00  0.00000000000E+00  0.45593999997E+02  0.45594000000E+02  0.51100000000E-03 0. -1.
         11   -1    0    0    0    0 -0.00000000000E+00 -0.00000000000E+00 -0.45593999997E+02  0.45594000000E+02  0.51100000000E-03 0.  1.
    9900012    2    1    2    0    0  0.20885710851E+02 -0.16035313218E+02  0.30981116594E+02  0.50528760298E+02  0.29999697400E+02 0.  0.
        -12    1    1    2    0    0 -0.20885710851E+02  0.16035313218E+02 -0.30981116594E+02  0.40659239702E+02  0.00000000000E+00 0.  1.
         11    1    3    3    0    0  0.33627803696E+01  0.13591670516E+01  0.14724375711E+02  0.15164526608E+02  0.51100000000E-03 0. -1.
        -11    1    3    3    0    0 -0.76845681068E+00 -0.27963007618E+01  0.11003562726E+02  0.11379288938E+02  0.51100000000E-03 0.  1.
        -12    1    3    3    0    0  0.18291387292E+02 -0.14598179507E+02  0.52531781570E+01  0.23984944752E+02  0.00000000000E+00 0.  1.
</event>
<event>
 7    1  0.2903212E-011  0.5052887E+02  0.7816164E-02  0.1300439E+00
        -11   -1    0    0    0    0  0.00000000000E+00  0.00000000000E+00  0.45593999997E+02  0.45594000000E+02  0.51100000000E-03 0. -1.
         11   -1    0    0    0    0 -0.00000000000E+00 -0.00000000000E+00 -0.45593999997E+02  0.45594000000E+02  0.51100000000E-03 0.  1.
    9900012    2    1    2    0    0 -0.14612648517E+01 -0.21620428914E+02  0.34403289921E+02  0.50528873118E+02  0.30000040331E+02 0.  0.
        -12    1    1    2    0    0  0.14612648517E+01  0.21620428914E+02 -0.34403289921E+02  0.40659126882E+02  0.00000000000E+00 0.  1.
         11    1    3    3    0    0 -0.60626790936E+01  0.11421231256E+01  0.10148524650E+02  0.11876576773E+02  0.51100000000E-03 0. -1.
        -11    1    3    3    0    0  0.20373397052E+01  0.31804816919E+01  0.15535125698E+01  0.40840688574E+01  0.51100000000E-03 0.  1.
        -12    1    3    3    0    0  0.25640745367E+01 -0.25943033732E+02  0.22701252702E+02  0.34568227488E+02  0.00000000000E+00 0.  1.
</event>
<event>
 7    1  0.2903212E-011  0.5052884E+02  0.7816164E-02  0.1300439E+00
        -11   -1    0    0    0    0  0.00000000000E+00  0.00000000000E+00  0.45593999997E+02  0.45594000000E+02  0.51100000000E-03 0. -1.
         11   -1    0    0    0    0 -0.00000000000E+00 -0.00000000000E+00 -0.45593999997E+02  0.45594000000E+02  0.51100000000E-03 0.  1.
    9900012    2    1    2    0    0 -0.40311027416E+02 -0.10202913240E+01 -0.52102970116E+01  0.50528842106E+02  0.29999946066E+02 0.  0.
        -12    1    1    2    0    0  0.40311027416E+02  0.10202913240E+01  0.52102970116E+01  0.40659157894E+02  0.00000000000E+00 0.  1.
         11    1    3    3    0    0 -0.65466945383E+01  0.46951495090E+01  0.27766558188E+01  0.85213529493E+01  0.51100000000E-03 0. -1.
        -11    1    3    3    0    0 -0.28347875123E+01 -0.85864888293E+01  0.22202121419E+01  0.93109157913E+01  0.51100000000E-03 0.  1.
        -12    1    3    3    0    0 -0.30929545365E+02  0.28710479964E+01 -0.10207164972E+02  0.32696573366E+02  0.00000000000E+00 0.  1.
</event>
<event>
 7    1  0.2903212E-011  0.5052885E+02  0.7816164E-02  0.1300439E+00
        -11   -1    0    0    0    0  0.00000000000E+00  0.00000000000E+00  0.45593999997E+02  0.45594000000E+02  0.51100000000E-03 0. -1.
         11   -1    0    0    0    0 -0.00000000000E+00 -0.00000000000E+00 -0.45593999997E+02  0.45594000000E+02  0.51100000000E-03 0.  1.
    9900012    2    1    2    0    0 -0.38501309112E+02  0.85915268088E+01  0.98489060538E+01  0.50528854821E+02  0.29999984713E+02 0.  0.
        -12    1    1    2    0    0  0.38501309112E+02 -0.85915268088E+01 -0.98489060538E+01  0.40659145179E+02  0.00000000000E+00 0.  1.
         11    1    3    3    0    0 -0.80324835962E+01  0.45668433257E+01  0.28423428500E+01  0.96672521340E+01  0.51100000000E-03 0. -1.
        -11    1    3    3    0    0 -0.41248393659E+01  0.10611643330E+02  0.76197228465E+01  0.13699687970E+02  0.51100000000E-03 0.  1.
         12    1    3    3    0    0 -0.26343986150E+02 -0.65869598474E+01 -0.61315964262E+00  0.27161914716E+02  0.00000000000E+00 0. -1.
</event>
<event>
 7    1  0.2903212E-011  0.5052886E+02  0.7816164E-02  0.1300439E+00
        -11   -1    0    0    0    0  0.00000000000E+00  0.00000000000E+00  0.45593999997E+02  0.45594000000E+02  0.51100000000E-03 0.  1.
         11   -1    0    0    0    0 -0.00000000000E+00 -0.00000000000E+00 -0.45593999997E+02  0.45594000000E+02  0.51100000000E-03 0. -1.
    9900012    2    1    2    0    0  0.37944375160E+02 -0.13853546307E+02 -0.46334858417E+01  0.50528861512E+02  0.30000005051E+02 0.  0.
        -12    1    1    2    0    0 -0.37944375160E+02  0.13853546307E+02  0.46334858417E+01  0.40659138488E+02  0.00000000000E+00 0.  1.
         11    1    3    3    0    0  0.29604168209E+01  0.20019487834E+01  0.45222593699E+01  0.57639133195E+01  0.51100000000E-03 0.  1.
        -11    1    3    3    0    0  0.22599427588E+02 -0.22139482166E+01 -0.12677350120E+02  0.26006747208E+02  0.51100000000E-03 0. -1.
         12    1    3    3    0    0  0.12384530751E+02 -0.13641546874E+02  0.35216049086E+01  0.18758200984E+02  0.00000000000E+00 0. -1.
</event>
<event>
 7    1  0.2903212E-011  0.5052886E+02  0.7816164E-02  0.1300439E+00
        -11   -1    0    0    0    0  0.00000000000E+00  0.00000000000E+00  0.45593999997E+02  0.45594000000E+02  0.51100000000E-03 0. -1.
         11   -1    0    0    0    0 -0.00000000000E+00 -0.00000000000E+00 -0.45593999997E+02  0.45594000000E+02  0.51100000000E-03 0.  1.
    9900012    2    1    2    0    0  0.28005401057E+02  0.27485241710E+02 -0.10650083715E+02  0.50528864700E+02  0.30000014743E+02 0.  0.
        -12    1    1    2    0    0 -0.28005401057E+02 -0.27485241710E+02  0.10650083715E+02  0.40659135300E+02  0.00000000000E+00 0.  1.
         11    1    3    3    0    0  0.92109840838E+01  0.11542833633E+02 -0.69241988830E+00  0.14783730301E+02  0.51100000000E-03 0. -1.
        -11    1    3    3    0    0  0.13864295992E+02  0.83984389137E+01  0.61097675957E+01  0.17322867542E+02  0.51100000000E-03 0.  1.
         12    1    3    3    0    0  0.49301209810E+01  0.75439691636E+01 -0.16067431423E+02  0.18422266857E+02  0.00000000000E+00 0. -1.
</event>
<event>
 7    1  0.2903212E-011  0.5052887E+02  0.7816164E-02  0.1300439E+00
        -11   -1    0    0    0    0  0.00000000000E+00  0.00000000000E+00  0.45593999997E+02  0.45594000000E+02  0.51100000000E-03 0.  1.
         11   -1    0    0    0    0 -0.00000000000E+00 -0.00000000000E+00 -0.45593999997E+02  0.45594000000E+02  0.51100000000E-03 0. -1.
    9900012    2    1    2    0    0  0.24674083907E+02 -0.20402372603E+02 -0.25061880251E+02  0.50528867370E+02  0.30000022858E+02 0.  0.
        -12    1    1    2    0    0 -0.24674083907E+02  0.20402372603E+02  0.25061880251E+02  0.40659132630E+02  0.00000000000E+00 0.  1.
         11    1    3    3    0    0  0.14323485389E+02 -0.12347969216E+02 -0.20603357303E+02  0.27966639231E+02  0.51100000000E-03 0. -1.
        -11    1    3    3    0    0  0.11030723327E+02 -0.84652237129E+01 -0.98962782313E+01  0.17066727651E+02  0.51100000000E-03 0.  1.
        -12    1    3    3    0    0 -0.68012480856E+00  0.41082032638E+00  0.54377552830E+01  0.54955004880E+01  0.00000000000E+00 0.  1.
</event>
<event>
 7    1  0.2903212E-011  0.5052886E+02  0.7816164E-02  0.1300439E+00
        -11   -1    0    0    0    0  0.00000000000E+00  0.00000000000E+00  0.45593999997E+02  0.45594000000E+02  0.51100000000E-03 0. -1.
         11   -1    0    0    0    0 -0.00000000000E+00 -0.00000000000E+00 -0.45593999997E+02  0.45594000000E+02  0.51100000000E-03 0.  1.
    9900012    2    1    2    0    0  0.37986687998E+02  0.13687406104E+02  0.47783119818E+01  0.50528858146E+02  0.29999994820E+02 0.  0.
        -12    1    1    2    0    0 -0.37986687998E+02 -0.13687406104E+02 -0.47783119818E+01  0.40659141854E+02  0.00000000000E+00 0.  1.
         11    1    3    3    0    0  0.18913110556E+02  0.57283094665E+01 -0.42980239935E+01  0.20223557816E+02  0.51100000000E-03 0. -1.
        -11    1    3    3    0    0  0.10702997935E+02  0.65196424151E+01 -0.53003888502E+01  0.13607131374E+02  0.51100000000E-03 0.  1.
         12    1    3    3    0    0  0.83705795071E+01  0.14394542224E+01  0.14376724825E+02  0.16698168955E+02  0.00000000000E+00 0. -1.
</event>
<event>
 7    1  0.2903212E-011  0.5052887E+02  0.7816164E-02  0.1300439E+00
        -11   -1    0    0    0    0  0.00000000000E+00  0.00000000000E+00  0.45593999997E+02  0.45594000000E+02  0.51100000000E-03 0.  1.
         11   -1    0    0    0    0 -0.00000000000E+00 -0.00000000000E+00 -0.45593999997E+02  0.45594000000E+02  0.51100000000E-03 0. -1.
    9900012    2    1    2    0    0 -0.39165879549E+02 -0.44180087832E+01 -0.99840008326E+01  0.50528865786E+02  0.30000018042E+02 0.  0.
        -12    1    1    2    0    0  0.39165879549E+02  0.44180087832E+01  0.99840008326E+01  0.40659134214E+02  0.00000000000E+00 0.  1.
         11    1    3    3    0    0 -0.24973049795E+02  0.12462138410E+01 -0.76528046691E-01  0.25004242076E+02  0.51100000000E-03 0. -1.
        -11    1    3    3    0    0  0.35032813915E+01  0.18206447385E+01 -0.93087569622E-01  0.39492269280E+01  0.51100000000E-03 0.  1.
        -12    1    3    3    0    0 -0.17696111145E+02 -0.74848673628E+01 -0.98143852163E+01  0.21575396781E+02  0.00000000000E+00 0.  1.
</event>
<event>
 7    1  0.2903212E-011  0.5052887E+02  0.7816164E-02  0.1300439E+00
        -11   -1    0    0    0    0  0.00000000000E+00  0.00000000000E+00  0.45593999997E+02  0.45594000000E+02  0.51100000000E-03 0.  1.
         11   -1    0    0    0    0 -0.00000000000E+00 -0.00000000000E+00 -0.45593999997E+02  0.45594000000E+02  0.51100000000E-03 0. -1.
    9900012    2    1    2    0    0  0.18555229066E+02  0.34857673475E+02  0.96856197436E+01  0.50528866271E+02  0.30000019518E+02 0.  0.
        -12    1    1    2    0    0 -0.18555229066E+02 -0.34857673475E+02 -0.96856197436E+01  0.40659133729E+02  0.00000000000E+00 0.  1.
         11    1    3    3    0    0  0.98831810492E+01  0.13601698944E+02 -0.18293633692E+01  0.16912423020E+02  0.51100000000E-03 0. -1.
        -11    1    3    3    0    0  0.14495464016E+02  0.21088386369E+02  0.79944677193E+01  0.26809513816E+02  0.51100000000E-03 0.  1.
        -12    1    3    3    0    0 -0.58234159996E+01  0.16758816212E+00  0.35205153934E+01  0.68069294349E+01  0.00000000000E+00 0.  1.
</event>
<event>
 7    1  0.2903212E-011  0.5052894E+02  0.7816164E-02  0.1300439E+00
        -11   -1    0    0    0    0  0.00000000000E+00  0.00000000000E+00  0.45593999997E+02  0.45594000000E+02  0.51100000000E-03 0.  1.
         11   -1    0    0    0    0 -0.00000000000E+00 -0.00000000000E+00 -0.45593999997E+02  0.45594000000E+02  0.51100000000E-03 0. -1.
    9900012    2    1    2    0    0  0.30476493448E+01  0.14739486320E+02 -0.37770603975E+02  0.50528940147E+02  0.30000244069E+02 0.  0.
        -12    1    1    2    0    0 -0.30476493448E+01 -0.14739486320E+02  0.37770603975E+02  0.40659059853E+02  0.00000000000E+00 0.  1.
         11    1    3    3    0    0 -0.15801704999E+01  0.29999883897E+01 -0.23181522589E+02  0.23428185140E+02  0.51100000000E-03 0. -1.
        -11    1    3    3    0    0  0.16052735722E+01 -0.52329285730E+01 -0.47741073702E+01  0.72630948042E+01  0.51100000000E-03 0.  1.
         12    1    3    3    0    0  0.30225462725E+01  0.16972426503E+02 -0.98149740158E+01  0.19837660202E+02  0.00000000000E+00 0. -1.
</event>
<event>
 7    1  0.2903212E-011  0.5052887E+02  0.7816164E-02  0.1300439E+00
        -11   -1    0    0    0    0  0.00000000000E+00  0.00000000000E+00  0.45593999997E+02  0.45594000000E+02  0.51100000000E-03 0. -1.
         11   -1    0    0    0    0 -0.00000000000E+00 -0.00000000000E+00 -0.45593999997E+02  0.45594000000E+02  0.51100000000E-03 0.  1.
    9900012    2    1    2    0    0  0.14303211352E+01  0.12565437935E+02  0.38642323716E+02  0.50528865341E+02  0.30000016690E+02 0.  0.
        -12    1    1    2    0    0 -0.14303211352E+01 -0.12565437935E+02 -0.38642323716E+02  0.40659134659E+02  0.00000000000E+00 0.  1.
         11    1    3    3    0    0 -0.18801554684E+01  0.10670474433E+01 -0.41200503608E+01  0.46527830455E+01  0.51100000000E-03 0. -1.
        -11    1    3    3    0    0  0.98513493373E+00  0.30380478281E+01  0.12226160452E+01  0.34197976107E+01  0.51100000000E-03 0.  1.
         12    1    3    3    0    0  0.23253416699E+01  0.84603426633E+01  0.41539758032E+02  0.42456284685E+02  0.00000000000E+00 0. -1.
</event>
<event>
 7    1  0.2903212E-011  0.5052886E+02  0.7816164E-02  0.1300439E+00
        -11   -1    0    0    0    0  0.00000000000E+00  0.00000000000E+00  0.45593999997E+02  0.45594000000E+02  0.51100000000E-03 0.  1.
         11   -1    0    0    0    0 -0.00000000000E+00 -0.00000000000E+00 -0.45593999997E+02  0.45594000000E+02  0.51100000000E-03 0. -1.
    9900012    2    1    2    0    0 -0.37625685858E+02 -0.15381418642E+02 -0.94085839862E+00  0.50528862156E+02  0.30000007008E+02 0.  0.
        -12    1    1    2    0    0  0.37625685858E+02  0.15381418642E+02  0.94085839862E+00  0.40659137844E+02  0.00000000000E+00 0.  1.
         11    1    3    3    0    0 -0.97682870783E+01  0.13837831598E+01  0.21124406680E+01  0.10089434777E+02  0.51100000000E-03 0.  1.
        -11    1    3    3    0    0  0.16979029884E+01 -0.95977800356E+01 -0.23176140524E+01  0.10018562338E+02  0.51100000000E-03 0. -1.
         12    1    3    3    0    0 -0.29555301768E+02 -0.71674217659E+01 -0.73568501426E+00  0.30420865041E+02  0.00000000000E+00 0. -1.
</event>
<event>
 7    1  0.2903212E-011  0.5052888E+02  0.7816164E-02  0.1300439E+00
        -11   -1    0    0    0    0  0.00000000000E+00  0.00000000000E+00  0.45593999997E+02  0.45594000000E+02  0.51100000000E-03 0.  1.
         11   -1    0    0    0    0 -0.00000000000E+00 -0.00000000000E+00 -0.45593999997E+02  0.45594000000E+02  0.51100000000E-03 0. -1.
    9900012    2    1    2    0    0  0.31444295030E+02 -0.18748881636E+02 -0.17688966387E+02  0.50528883133E+02  0.30000070771E+02 0.  0.
        -12    1    1    2    0    0 -0.31444295030E+02  0.18748881636E+02  0.17688966387E+02  0.40659116867E+02  0.00000000000E+00 0.  1.
         11    1    3    3    0    0  0.36364417803E+01  0.19698239118E+01  0.19418570051E+01  0.45688865115E+01  0.51100000000E-03 0. -1.
        -11    1    3    3    0    0  0.75699537930E+01  0.46489304854E+01 -0.23258204974E+01  0.91829296160E+01  0.51100000000E-03 0.  1.
         12    1    3    3    0    0  0.20237899457E+02 -0.25367636033E+02 -0.17305002895E+02  0.36777067006E+02  0.00000000000E+00 0. -1.
</event>
<event>
 7    1  0.2903212E-011  0.5052886E+02  0.7816164E-02  0.1300439E+00
        -11   -1    0    0    0    0  0.00000000000E+00  0.00000000000E+00  0.45593999997E+02  0.45594000000E+02  0.51100000000E-03 0. -1.
         11   -1    0    0    0    0 -0.00000000000E+00 -0.00000000000E+00 -0.45593999997E+02  0.45594000000E+02  0.51100000000E-03 0.  1.
    9900012    2    1    2    0    0 -0.14281295127E+02  0.37652214694E+01  0.37881836163E+02  0.50528858416E+02  0.29999995642E+02 0.  0.
        -12    1    1    2    0    0  0.14281295127E+02 -0.37652214694E+01 -0.37881836163E+02  0.40659141584E+02  0.00000000000E+00 0.  1.
         11    1    3    3    0    0 -0.13535996022E+02  0.81277054135E+01  0.25664718329E+02  0.30132383755E+02  0.51100000000E-03 0. -1.
        -11    1    3    3    0    0 -0.11135946598E+01  0.29659828213E+01 -0.24442389771E+01  0.40014311941E+01  0.51100000000E-03 0.  1.
         12    1    3    3    0    0  0.36829555408E+00 -0.73284667653E+01  0.14661356811E+02  0.16395043467E+02  0.00000000000E+00 0. -1.
</event>
<event>
 7    1  0.2903212E-011  0.5052885E+02  0.7816164E-02  0.1300439E+00
        -11   -1    0    0    0    0  0.00000000000E+00  0.00000000000E+00  0.45593999997E+02  0.45594000000E+02  0.51100000000E-03 0. -1.
         11   -1    0    0    0    0 -0.00000000000E+00 -0.00000000000E+00 -0.45593999997E+02  0.45594000000E+02  0.51100000000E-03 0.  1.
    9900012    2    1    2    0    0  0.72092649960E+01  0.20547768590E+02  0.34336312749E+02  0.50528847660E+02  0.29999962947E+02 0.  0.
        -12    1    1    2    0    0 -0.72092649960E+01 -0.20547768590E+02 -0.34336312749E+02  0.40659152340E+02  0.00000000000E+00 0.  1.
         11    1    3    3    0    0 -0.57443553042E+01  0.69757248130E+01  0.31380270745E+00  0.90419481821E+01  0.51100000000E-03 0. -1.
        -11    1    3    3    0    0  0.26960688208E+01  0.60785950314E+01  0.18574141713E+01  0.69042083041E+01  0.51100000000E-03 0.  1.
         12    1    3    3    0    0  0.10257551479E+02  0.74934487458E+01  0.32165095870E+02  0.34582691174E+02  0.00000000000E+00 0. -1.
</event>
<event>
 7    1  0.2903212E-011  0.5052884E+02  0.7816164E-02  0.1300439E+00
        -11   -1    0    0    0    0  0.00000000000E+00  0.00000000000E+00  0.45593999997E+02  0.45594000000E+02  0.51100000000E-03 0.  1.
         11   -1    0    0    0    0 -0.00000000000E+00 -0.00000000000E+00 -0.45593999997E+02  0.45594000000E+02  0.51100000000E-03 0. -1.
    9900012    2    1    2    0    0  0.35139332743E+02  0.59640769151E+01 -0.19565891577E+02  0.50528843193E+02  0.29999949369E+02 0.  0.
        -12    1    1    2    0    0 -0.35139332743E+02 -0.59640769151E+01  0.19565891577E+02  0.40659156807E+02  0.00000000000E+00 0.  1.
         11    1    3    3    0    0  0.49407112431E+01 -0.80877940555E+00 -0.12663482892E+02  0.13617215241E+02  0.51100000000E-03 0. -1.
        -11    1    3    3    0    0  0.12839172914E+02  0.80722105107E+01 -0.11352006079E+02  0.18943943252E+02  0.51100000000E-03 0.  1.
        -12    1    3    3    0    0  0.17359448585E+02 -0.12993541901E+01  0.44495973939E+01  0.17967684700E+02  0.00000000000E+00 0.  1.
</event>
<event>
 7    1  0.2903212E-011  0.5052886E+02  0.7816164E-02  0.1300439E+00
        -11   -1    0    0    0    0  0.00000000000E+00  0.00000000000E+00  0.45593999997E+02  0.45594000000E+02  0.51100000000E-03 0. -1.
         11   -1    0    0    0    0 -0.00000000000E+00 -0.00000000000E+00 -0.45593999997E+02  0.45594000000E+02  0.51100000000E-03 0.  1.
    9900012    2    1    2    0    0 -0.12801834725E+02  0.27094590824E+01  0.38495937431E+02  0.50528864009E+02  0.30000012642E+02 0.  0.
        -12    1    1    2    0    0  0.12801834725E+02 -0.27094590824E+01 -0.38495937431E+02  0.40659135991E+02  0.00000000000E+00 0.  1.
         11    1    3    3    0    0  0.21506656516E+01 -0.24765526951E+01  0.14114691083E+02  0.14490796412E+02  0.51100000000E-03 0. -1.
        -11    1    3    3    0    0 -0.14796376128E+02 -0.54323997210E+01  0.12619253798E+02  0.20191316944E+02  0.51100000000E-03 0.  1.
         12    1    3    3    0    0 -0.15612424779E+00  0.10618411498E+02  0.11761992550E+02  0.15846750654E+02  0.00000000000E+00 0. -1.
</event>
<event>
 7    1  0.2903212E-011  0.5052886E+02  0.7816164E-02  0.1300439E+00
        -11   -1    0    0    0    0  0.00000000000E+00  0.00000000000E+00  0.45593999997E+02  0.45594000000E+02  0.51100000000E-03 0. -1.
         11   -1    0    0    0    0 -0.00000000000E+00 -0.00000000000E+00 -0.45593999997E+02  0.45594000000E+02  0.51100000000E-03 0.  1.
    9900012    2    1    2    0    0 -0.33948859113E+02  0.18415674609E+02  0.12708412181E+02  0.50528857774E+02  0.29999993691E+02 0.  0.
        -12    1    1    2    0    0  0.33948859113E+02 -0.18415674609E+02 -0.12708412181E+02  0.40659142226E+02  0.00000000000E+00 0.  1.
         11    1    3    3    0    0 -0.77148463581E+01 -0.30014296737E+01  0.67295206879E+01  0.10668358982E+02  0.51100000000E-03 0. -1.
        -11    1    3    3    0    0 -0.70299512542E+00  0.66005421886E+01  0.78525710448E+01  0.10282228922E+02  0.51100000000E-03 0.  1.
         12    1    3    3    0    0 -0.25531017629E+02  0.14816562094E+02 -0.18736795518E+01  0.29578269871E+02  0.00000000000E+00 0. -1.
</event>
<event>
 7    1  0.2903212E-011  0.5052886E+02  0.7816164E-02  0.1300439E+00
        -11   -1    0    0    0    0  0.00000000000E+00  0.00000000000E+00  0.45593999997E+02  0.45594000000E+02  0.51100000000E-03 0. -1.
         11   -1    0    0    0    0 -0.00000000000E+00 -0.00000000000E+00 -0.45593999997E+02  0.45594000000E+02  0.51100000000E-03 0.  1.
    9900012    2    1    2    0    0  0.27601902709E+02  0.22117998174E-01  0.29854655309E+02  0.50528856305E+02  0.29999989224E+02 0.  0.
        -12    1    1    2    0    0 -0.27601902709E+02 -0.22117998174E-01 -0.29854655309E+02  0.40659143695E+02  0.00000000000E+00 0.  1.
         11    1    3    3    0    0  0.15794699370E+02  0.86497374960E+01  0.14944064041E+02  0.23401186663E+02  0.51100000000E-03 0. -1.
        -11    1    3    3    0    0  0.64611947430E+01  0.41657287748E+01  0.14894978781E+01  0.78306409650E+01  0.51100000000E-03 0.  1.
         12    1    3    3    0    0  0.53460085963E+01 -0.12793348273E+02  0.13421093391E+02  0.19297028676E+02  0.00000000000E+00 0. -1.
</event>
<event>
 7    1  0.2903212E-011  0.5052886E+02  0.7816164E-02  0.1300439E+00
        -11   -1    0    0    0    0  0.00000000000E+00  0.00000000000E+00  0.45593999997E+02  0.45594000000E+02  0.51100000000E-03 0.  1.
         11   -1    0    0    0    0 -0.00000000000E+00 -0.00000000000E+00 -0.45593999997E+02  0.45594000000E+02  0.51100000000E-03 0. -1.
    9900012    2    1    2    0    0 -0.14178616192E+02  0.28624200512E+02 -0.25155264544E+02  0.50528863926E+02  0.30000012389E+02 0.  0.
        -12    1    1    2    0    0  0.14178616192E+02 -0.28624200512E+02  0.25155264544E+02  0.40659136074E+02  0.00000000000E+00 0.  1.
         11    1    3    3    0    0 -0.13972976733E+02  0.10824625925E+02 -0.11731762373E+02  0.21214402038E+02  0.51100000000E-03 0. -1.
        -11    1    3    3    0    0 -0.45274051661E+01  0.94145914816E+01  0.25592384100E+01  0.10755539587E+02  0.51100000000E-03 0.  1.
        -12    1    3    3    0    0  0.43217657074E+01  0.83849831050E+01 -0.15982740581E+02  0.18558922301E+02  0.00000000000E+00 0.  1.
</event>
<event>
 7    1  0.2903212E-011  0.5052886E+02  0.7816164E-02  0.1300439E+00
        -11   -1    0    0    0    0  0.00000000000E+00  0.00000000000E+00  0.45593999997E+02  0.45594000000E+02  0.51100000000E-03 0. -1.
         11   -1    0    0    0    0 -0.00000000000E+00 -0.00000000000E+00 -0.45593999997E+02  0.45594000000E+02  0.51100000000E-03 0.  1.
    9900012    2    1    2    0    0 -0.27468586079E+02 -0.29165512654E+02  0.69293116375E+01  0.50528859461E+02  0.29999998818E+02 0.  0.
        -12    1    1    2    0    0  0.27468586079E+02  0.29165512654E+02 -0.69293116375E+01  0.40659140539E+02  0.00000000000E+00 0.  1.
         11    1    3    3    0    0 -0.84560867733E+01 -0.18100810415E+02  0.34347350795E+01  0.20271708031E+02  0.51100000000E-03 0. -1.
        -11    1    3    3    0    0 -0.27317226609E+00 -0.98507768326E+01 -0.31372647750E+01  0.10341898173E+02  0.51100000000E-03 0.  1.
        -12    1    3    3    0    0 -0.18739327040E+02 -0.12139254071E+01  0.66318413330E+01  0.19915253257E+02  0.00000000000E+00 0.  1.
</event>
<event>
 7    1  0.2903212E-011  0.5052886E+02  0.7816164E-02  0.1300439E+00
        -11   -1    0    0    0    0  0.00000000000E+00  0.00000000000E+00  0.45593999997E+02  0.45594000000E+02  0.51100000000E-03 0.  1.
         11   -1    0    0    0    0 -0.00000000000E+00 -0.00000000000E+00 -0.45593999997E+02  0.45594000000E+02  0.51100000000E-03 0. -1.
    9900012    2    1    2    0    0 -0.36777448620E+02  0.12211578638E+02 -0.12307009438E+02  0.50528857595E+02  0.29999993147E+02 0.  0.
        -12    1    1    2    0    0  0.36777448620E+02 -0.12211578638E+02  0.12307009438E+02  0.40659142405E+02  0.00000000000E+00 0.  1.
         11    1    3    3    0    0  0.31926565651E+00 -0.50140701919E+00 -0.72501734492E+01  0.72745003170E+01  0.51100000000E-03 0. -1.
        -11    1    3    3    0    0  0.10424606348E+01  0.85839060729E+00  0.22772185748E+01  0.26475051102E+01  0.51100000000E-03 0.  1.
         12    1    3    3    0    0 -0.38139174911E+02  0.11854595049E+02 -0.73340545634E+01  0.40606852168E+02  0.00000000000E+00 0. -1.
</event>
<event>
 7    1  0.2903212E-011  0.5052886E+02  0.7816164E-02  0.1300439E+00
        -11   -1    0    0    0    0  0.00000000000E+00  0.00000000000E+00  0.45593999997E+02  0.45594000000E+02  0.51100000000E-03 0.  1.
         11   -1    0    0    0    0 -0.00000000000E+00 -0.00000000000E+00 -0.45593999997E+02  0.45594000000E+02  0.51100000000E-03 0. -1.
    9900012    2    1    2    0    0  0.33550838611E+02  0.67512305274E+01 -0.21952855689E+02  0.50528858863E+02  0.29999996999E+02 0.  0.
        -12    1    1    2    0    0 -0.33550838611E+02 -0.67512305274E+01  0.21952855689E+02  0.40659141137E+02  0.00000000000E+00 0.  1.
         11    1    3    3    0    0  0.13850865076E+00  0.28883416201E+01 -0.13252424786E+01  0.31808756419E+01  0.51100000000E-03 0. -1.
        -11    1    3    3    0    0  0.46484093750E+01 -0.21768375278E+01  0.58545735201E+01  0.77860363924E+01  0.51100000000E-03 0.  1.
        -12    1    3    3    0    0  0.28763920585E+02  0.60397264351E+01 -0.26482186731E+02  0.39561946829E+02  0.00000000000E+00 0.  1.
</event>
<event>
 7    1  0.2903212E-011  0.5052886E+02  0.7816164E-02  0.1300439E+00
        -11   -1    0    0    0    0  0.00000000000E+00  0.00000000000E+00  0.45593999997E+02  0.45594000000E+02  0.51100000000E-03 0.  1.
         11   -1    0    0    0    0 -0.00000000000E+00 -0.00000000000E+00 -0.45593999997E+02  0.45594000000E+02  0.51100000000E-03 0. -1.
    9900012    2    1    2    0    0 -0.29060648274E+02 -0.14493465005E+02 -0.24465968833E+02  0.50528862811E+02  0.30000009001E+02 0.  0.
        -12    1    1    2    0    0  0.29060648274E+02  0.14493465005E+02  0.24465968833E+02  0.40659137189E+02  0.00000000000E+00 0.  1.
         11    1    3    3    0    0 -0.22704513964E+02 -0.15262165249E+02 -0.18740447217E+02  0.33160714778E+02  0.51100000000E-03 0. -1.
        -11    1    3    3    0    0 -0.10823720025E+02  0.10087824575E+01 -0.67265909253E+01  0.12783488685E+02  0.51100000000E-03 0.  1.
        -12    1    3    3    0    0  0.44675857138E+01 -0.24008221390E+00  0.10010693094E+01  0.45846593485E+01  0.00000000000E+00 0.  1.
</event>
<event>
 7    1  0.2903212E-011  0.5052884E+02  0.7816164E-02  0.1300439E+00
        -11   -1    0    0    0    0  0.00000000000E+00  0.00000000000E+00  0.45593999997E+02  0.45594000000E+02  0.51100000000E-03 0. -1.
         11   -1    0    0    0    0 -0.00000000000E+00 -0.00000000000E+00 -0.45593999997E+02  0.45594000000E+02  0.51100000000E-03 0.  1.
    9900012    2    1    2    0    0 -0.40483881554E+02 -0.85796976217E+00 -0.36723519316E+01  0.50528844247E+02  0.29999952574E+02 0.  0.
        -12    1    1    2    0    0  0.40483881554E+02  0.85796976217E+00  0.36723519316E+01  0.40659155753E+02  0.00000000000E+00 0.  1.
         11    1    3    3    0    0 -0.12203417698E+02  0.31404074897E+01  0.95297320455E+01  0.15798777036E+02  0.51100000000E-03 0. -1.
        -11    1    3    3    0    0 -0.79906201045E-01  0.29605680997E+01 -0.40392303747E+00  0.29890638259E+01  0.51100000000E-03 0.  1.
         12    1    3    3    0    0 -0.28200557655E+02 -0.69589453516E+01 -0.12798160940E+02  0.31741003385E+02  0.00000000000E+00 0. -1.
</event>
<event>
 7    1  0.2903212E-011  0.5052885E+02  0.7816164E-02  0.1300439E+00
        -11   -1    0    0    0    0  0.00000000000E+00  0.00000000000E+00  0.45593999997E+02  0.45594000000E+02  0.51100000000E-03 0.  1.
         11   -1    0    0    0    0 -0.00000000000E+00 -0.00000000000E+00 -0.45593999997E+02  0.45594000000E+02  0.51100000000E-03 0. -1.
    9900012    2    1    2    0    0 -0.20253004058E+02  0.13919329593E+02 -0.32391884997E+02  0.50528854370E+02  0.29999983343E+02 0.  0.
        -12    1    1    2    0    0  0.20253004058E+02 -0.13919329593E+02  0.32391884997E+02  0.40659145630E+02  0.00000000000E+00 0.  1.
         11    1    3    3    0    0 -0.12127102796E+02  0.98432787150E+01 -0.10520458348E+02  0.18831802946E+02  0.51100000000E-03 0.  1.
        -11    1    3    3    0    0 -0.24882377189E+01  0.10554576264E+02 -0.34622652759E+01  0.11383219587E+02  0.51100000000E-03 0. -1.
        -12    1    3    3    0    0 -0.56376635436E+01 -0.64785253869E+01 -0.18409161373E+02  0.20313831837E+02  0.00000000000E+00 0.  1.
</event>
<event>
 7    1  0.2903212E-011  0.5052887E+02  0.7816164E-02  0.1300439E+00
        -11   -1    0    0    0    0  0.00000000000E+00  0.00000000000E+00  0.45593999997E+02  0.45594000000E+02  0.51100000000E-03 0.  1.
         11   -1    0    0    0    0 -0.00000000000E+00 -0.00000000000E+00 -0.45593999997E+02  0.45594000000E+02  0.51100000000E-03 0. -1.
    9900012    2    1    2    0    0  0.18027706955E+02 -0.25326533123E+02 -0.26205604444E+02  0.50528865696E+02  0.30000017769E+02 0.  0.
        -12    1    1    2    0    0 -0.18027706955E+02  0.25326533123E+02  0.26205604444E+02  0.40659134304E+02  0.00000000000E+00 0.  1.
         11    1    3    3    0    0  0.86824800982E+01 -0.75611117403E+01 -0.10423727855E+02  0.15530936033E+02  0.51100000000E-03 0. -1.
        -11    1    3    3    0    0  0.76460755328E+01 -0.42027647355E+01 -0.19042100812E+02  0.20945818343E+02  0.51100000000E-03 0.  1.
        -12    1    3    3    0    0  0.16991513243E+01 -0.13562656647E+02  0.32602242233E+01  0.14052111320E+02  0.00000000000E+00 0.  1.
</event>
<event>
 7    1  0.2903212E-011  0.5052887E+02  0.7816164E-02  0.1300439E+00
        -11   -1    0    0    0    0  0.00000000000E+00  0.00000000000E+00  0.45593999997E+02  0.45594000000E+02  0.51100000000E-03 0. -1.
         11   -1    0    0    0    0 -0.00000000000E+00 -0.00000000000E+00 -0.45593999997E+02  0.45594000000E+02  0.51100000000E-03 0.  1.
    9900012    2    1    2    0    0 -0.90649702135E+01  0.84072465504E+01  0.38733823170E+02  0.50528873879E+02  0.30000042644E+02 0.  0.
        -12    1    1    2    0    0  0.90649702135E+01 -0.84072465504E+01 -0.38733823170E+02  0.40659126121E+02  0.00000000000E+00 0.  1.
         11    1    3    3    0    0  0.11702253796E+01  0.11469025879E+02  0.19044355740E+02  0.22261973585E+02  0.51100000000E-03 0.  1.
        -11    1    3    3    0    0 -0.14017111598E+02 -0.42306093710E+01  0.19390086938E+02  0.24297179773E+02  0.51100000000E-03 0. -1.
         12    1    3    3    0    0  0.37819160053E+01  0.11688300419E+01  0.29938049137E+00  0.39697205212E+01  0.00000000000E+00 0. -1.
</event>
<event>
 7    1  0.2903212E-011  0.5052887E+02  0.7816164E-02  0.1300439E+00
        -11   -1    0    0    0    0  0.00000000000E+00  0.00000000000E+00  0.45593999997E+02  0.45594000000E+02  0.51100000000E-03 0.  1.
         11   -1    0    0    0    0 -0.00000000000E+00 -0.00000000000E+00 -0.45593999997E+02  0.45594000000E+02  0.51100000000E-03 0. -1.
    9900012    2    1    2    0    0 -0.66770075407E+01  0.22121981567E+02 -0.33454456984E+02  0.50528865845E+02  0.30000018222E+02 0.  0.
        -12    1    1    2    0    0  0.66770075407E+01 -0.22121981567E+02  0.33454456984E+02  0.40659134155E+02  0.00000000000E+00 0.  1.
         11    1    3    3    0    0  0.27119215143E+01  0.25941709164E+01 -0.33754796901E+01  0.50475840204E+01  0.51100000000E-03 0. -1.
        -11    1    3    3    0    0 -0.31204623759E+01  0.23223179878E+02 -0.12726611612E+02  0.26664958512E+02  0.51100000000E-03 0.  1.
        -12    1    3    3    0    0 -0.62684666791E+01 -0.36953692270E+01 -0.17352365682E+02  0.18816323312E+02  0.00000000000E+00 0.  1.
</event>
<event>
 7    1  0.2903212E-011  0.5052886E+02  0.7816164E-02  0.1300439E+00
        -11   -1    0    0    0    0  0.00000000000E+00  0.00000000000E+00  0.45593999997E+02  0.45594000000E+02  0.51100000000E-03 0.  1.
         11   -1    0    0    0    0 -0.00000000000E+00 -0.00000000000E+00 -0.45593999997E+02  0.45594000000E+02  0.51100000000E-03 0. -1.
    9900012    2    1    2    0    0 -0.27856237206E+02  0.60586358715E+01 -0.28991185216E+02  0.50528857853E+02  0.29999993931E+02 0.  0.
        -12    1    1    2    0    0  0.27856237206E+02 -0.60586358715E+01  0.28991185216E+02  0.40659142147E+02  0.00000000000E+00 0.  1.
         11    1    3    3    0    0  0.44875854645E+01 -0.11422919069E+01 -0.71799610942E+01  0.85437167367E+01  0.51100000000E-03 0. -1.
        -11    1    3    3    0    0 -0.17615376624E+01  0.26880135744E+01  0.12177659905E+01  0.34367697305E+01  0.51100000000E-03 0.  1.
         12    1    3    3    0    0 -0.30582285008E+02  0.45129142041E+01 -0.23028990112E+02  0.38548371386E+02  0.00000000000E+00 0. -1.
</event>
<event>
 7    1  0.2903212E-011  0.5052886E+02  0.7816164E-02  0.1300439E+00
        -11   -1    0    0    0    0  0.00000000000E+00  0.00000000000E+00  0.45593999997E+02  0.45594000000E+02  0.51100000000E-03 0. -1.
         11   -1    0    0    0    0 -0.00000000000E+00 -0.00000000000E+00 -0.45593999997E+02  0.45594000000E+02  0.51100000000E-03 0.  1.
    9900012    2    1    2    0    0 -0.36289027352E+01 -0.14103721880E+01  0.40472305753E+02  0.50528860588E+02  0.30000002243E+02 0.  0.
        -12    1    1    2    0    0  0.36289027352E+01  0.14103721880E+01 -0.40472305753E+02  0.40659139412E+02  0.00000000000E+00 0.  1.
         11    1    3    3    0    0  0.23412554379E+00 -0.37883086571E+01  0.10317875712E+02  0.10993846312E+02  0.51100000000E-03 0. -1.
        -11    1    3    3    0    0  0.51754579867E+01 -0.92018628537E+01  0.95896436502E+01  0.14262570279E+02  0.51100000000E-03 0.  1.
        -12    1    3    3    0    0 -0.90384862657E+01  0.11579799323E+02  0.20564786391E+02  0.25272443998E+02  0.00000000000E+00 0.  1.
</event>
<event>
 7    1  0.2903212E-011  0.5052886E+02  0.7816164E-02  0.1300439E+00
        -11   -1    0    0    0    0  0.00000000000E+00  0.00000000000E+00  0.45593999997E+02  0.45594000000E+02  0.51100000000E-03 0. -1.
         11   -1    0    0    0    0 -0.00000000000E+00 -0.00000000000E+00 -0.45593999997E+02  0.45594000000E+02  0.51100000000E-03 0.  1.
    9900012    2    1    2    0    0 -0.35137612807E+02  0.11908413652E+02 -0.16634404756E+02  0.50528861162E+02  0.30000003987E+02 0.  0.
        -12    1    1    2    0    0  0.35137612807E+02 -0.11908413652E+02  0.16634404756E+02  0.40659138838E+02  0.00000000000E+00 0.  1.
         11    1    3    3    0    0 -0.18517275360E+02  0.13294575380E+02 -0.42508626461E+01  0.23188468143E+02  0.51100000000E-03 0. -1.
        -11    1    3    3    0    0 -0.20089424024E+02 -0.28799171340E+01 -0.11916275575E+02  0.23534581028E+02  0.51100000000E-03 0.  1.
        -12    1    3    3    0    0  0.34690865775E+01  0.14937554060E+01 -0.46726653510E+00  0.38058119909E+01  0.00000000000E+00 0.  1.
</event>
<event>
 7    1  0.2903212E-011  0.5052894E+02  0.7816164E-02  0.1300439E+00
        -11   -1    0    0    0    0  0.00000000000E+00  0.00000000000E+00  0.45593999997E+02  0.45594000000E+02  0.51100000000E-03 0. -1.
         11   -1    0    0    0    0 -0.00000000000E+00 -0.00000000000E+00 -0.45593999997E+02  0.45594000000E+02  0.51100000000E-03 0.  1.
    9900012    2    1    2    0    0 -0.35184820712E+02  0.19881822533E+02  0.44610593369E+01  0.50528935498E+02  0.30000229939E+02 0.  0.
        -12    1    1    2    0    0  0.35184820712E+02 -0.19881822533E+02 -0.44610593369E+01  0.40659064502E+02  0.00000000000E+00 0.  1.
         11    1    3    3    0    0 -0.47543101100E+01 -0.16502436920E+01 -0.26396482705E+01  0.56828260679E+01  0.51100000000E-03 0. -1.
        -11    1    3    3    0    0 -0.54003431193E+01 -0.49643029723E+01 -0.12782272548E+01  0.74459300952E+01  0.51100000000E-03 0.  1.
         12    1    3    3    0    0 -0.25030167483E+02  0.26496369198E+02  0.83789348622E+01  0.37400179335E+02  0.00000000000E+00 0. -1.
</event>
<event>
 7    1  0.2903212E-011  0.5052888E+02  0.7816164E-02  0.1300439E+00
        -11   -1    0    0    0    0  0.00000000000E+00  0.00000000000E+00  0.45593999997E+02  0.45594000000E+02  0.51100000000E-03 0.  1.
         11   -1    0    0    0    0 -0.00000000000E+00 -0.00000000000E+00 -0.45593999997E+02  0.45594000000E+02  0.51100000000E-03 0. -1.
    9900012    2    1    2    0    0 -0.62279429986E+01  0.36607574850E+02 -0.16560868233E+02  0.50528878428E+02  0.30000056469E+02 0.  0.
        -12    1    1    2    0    0  0.62279429986E+01 -0.36607574850E+02  0.16560868233E+02  0.40659121572E+02  0.00000000000E+00 0.  1.
         11    1    3    3    0    0  0.49968212794E+00  0.15706441441E+02 -0.64588302423E+01  0.16989952129E+02  0.51100000000E-03 0. -1.
        -11    1    3    3    0    0 -0.11258160559E+01  0.24717163464E+02 -0.55015356184E+01  0.25347041759E+02  0.51100000000E-03 0.  1.
        -12    1    3    3    0    0 -0.56018090707E+01 -0.38160300552E+01 -0.46005023728E+01  0.81918845408E+01  0.00000000000E+00 0.  1.
</event>
<event>
 7    1  0.2903212E-011  0.5052887E+02  0.7816164E-02  0.1300439E+00
        -11   -1    0    0    0    0  0.00000000000E+00  0.00000000000E+00  0.45593999997E+02  0.45594000000E+02  0.51100000000E-03 0.  1.
         11   -1    0    0    0    0 -0.00000000000E+00 -0.00000000000E+00 -0.45593999997E+02  0.45594000000E+02  0.51100000000E-03 0. -1.
    9900012    2    1    2    0    0  0.40749053683E+01  0.18600931690E+01 -0.40411631797E+02  0.50528870830E+02  0.30000033376E+02 0.  0.
        -12    1    1    2    0    0 -0.40749053683E+01 -0.18600931690E+01  0.40411631797E+02  0.40659129170E+02  0.00000000000E+00 0.  1.
         11    1    3    3    0    0 -0.39783826622E+01 -0.11579476731E+01 -0.24164705533E+02  0.24517368643E+02  0.51100000000E-03 0. -1.
        -11    1    3    3    0    0 -0.17365030845E+01 -0.12281444492E+01 -0.15133890508E+02  0.15282618359E+02  0.51100000000E-03 0.  1.
        -12    1    3    3    0    0  0.97897911150E+01  0.42461852912E+01 -0.11130357558E+01  0.10728883828E+02  0.00000000000E+00 0.  1.
</event>
<event>
 7    1  0.2903212E-011  0.5052887E+02  0.7816164E-02  0.1300439E+00
        -11   -1    0    0    0    0  0.00000000000E+00  0.00000000000E+00  0.45593999997E+02  0.45594000000E+02  0.51100000000E-03 0.  1.
         11   -1    0    0    0    0 -0.00000000000E+00 -0.00000000000E+00 -0.45593999997E+02  0.45594000000E+02  0.51100000000E-03 0. -1.
    9900012    2    1    2    0    0  0.10163834513E+02  0.23649683260E+02 -0.31473062676E+02  0.50528871572E+02  0.30000035631E+02 0.  0.
        -12    1    1    2    0    0 -0.10163834513E+02 -0.23649683260E+02  0.31473062676E+02  0.40659128428E+02  0.00000000000E+00 0.  1.
         11    1    3    3    0    0  0.55490997838E+01  0.29133980852E+01 -0.19864969668E+02  0.20830204440E+02  0.51100000000E-03 0. -1.
        -11    1    3    3    0    0  0.54623981761E+01  0.66541776185E+01 -0.12925044814E+02  0.15529734618E+02  0.51100000000E-03 0.  1.
        -12    1    3    3    0    0 -0.84766344713E+00  0.14082107556E+02  0.13169518062E+01  0.14168932515E+02  0.00000000000E+00 0.  1.
</event>
<event>
 7    1  0.2903212E-011  0.5052887E+02  0.7816164E-02  0.1300439E+00
        -11   -1    0    0    0    0  0.00000000000E+00  0.00000000000E+00  0.45593999997E+02  0.45594000000E+02  0.51100000000E-03 0. -1.
         11   -1    0    0    0    0 -0.00000000000E+00 -0.00000000000E+00 -0.45593999997E+02  0.45594000000E+02  0.51100000000E-03 0.  1.
    9900012    2    1    2    0    0 -0.89486505440E+01 -0.26794405003E+02  0.29242890579E+02  0.50528866519E+02  0.30000020271E+02 0.  0.
        -12    1    1    2    0    0  0.89486505440E+01  0.26794405003E+02 -0.29242890579E+02  0.40659133481E+02  0.00000000000E+00 0.  1.
         11    1    3    3    0    0  0.30472087325E+01 -0.13109552233E+02  0.79152682755E+01  0.15614010149E+02  0.51100000000E-03 0. -1.
        -11    1    3    3    0    0 -0.29828015644E+01  0.54417729279E+01  0.71002918414E+01  0.94299598231E+01  0.51100000000E-03 0.  1.
         12    1    3    3    0    0 -0.90130577121E+01 -0.19126625698E+02  0.14227330462E+02  0.25484896547E+02  0.00000000000E+00 0. -1.
</event>
<event>
 7    1  0.2903212E-011  0.5052889E+02  0.7816164E-02  0.1300439E+00
        -11   -1    0    0    0    0  0.00000000000E+00  0.00000000000E+00  0.45593999997E+02  0.45594000000E+02  0.51100000000E-03 0.  1.
         11   -1    0    0    0    0 -0.00000000000E+00 -0.00000000000E+00 -0.45593999997E+02  0.45594000000E+02  0.51100000000E-03 0. -1.
    9900012    2    1    2    0    0  0.36610533101E+02 -0.70177702009E+01 -0.16235248671E+02  0.50528886238E+02  0.30000080208E+02 0.  0.
        -12    1    1    2    0    0 -0.36610533101E+02  0.70177702009E+01  0.16235248671E+02  0.40659113762E+02  0.00000000000E+00 0.  1.
         11    1    3    3    0    0  0.12202501705E+02  0.26922022907E+01 -0.90205203687E+01  0.15411644592E+02  0.51100000000E-03 0. -1.
        -11    1    3    3    0    0  0.26610224566E+00 -0.31613884429E+01 -0.94836319418E+01  0.10000223116E+02  0.51100000000E-03 0.  1.
        -12    1    3    3    0    0  0.24141929150E+02 -0.65485840487E+01  0.22689036396E+01  0.25117018531E+02  0.00000000000E+00 0.  1.
</event>
<event>
 7    1  0.2903212E-011  0.5052886E+02  0.7816164E-02  0.1300439E+00
        -11   -1    0    0    0    0  0.00000000000E+00  0.00000000000E+00  0.45593999997E+02  0.45594000000E+02  0.51100000000E-03 0. -1.
         11   -1    0    0    0    0 -0.00000000000E+00 -0.00000000000E+00 -0.45593999997E+02  0.45594000000E+02  0.51100000000E-03 0.  1.
    9900012    2    1    2    0    0  0.16658732325E+02  0.33332315312E+02 -0.16266813326E+02  0.50528858070E+02  0.29999994589E+02 0.  0.
        -12    1    1    2    0    0 -0.16658732325E+02 -0.33332315312E+02  0.16266813326E+02  0.40659141930E+02  0.00000000000E+00 0.  1.
         11    1    3    3    0    0  0.61756231138E+01  0.90082741431E+01 -0.11715018494E+02  0.16016522171E+02  0.51100000000E-03 0.  1.
        -11    1    3    3    0    0  0.10401831808E+02  0.13310796093E+02 -0.12428131194E+02  0.20972215973E+02  0.51100000000E-03 0. -1.
        -12    1    3    3    0    0  0.81277403187E-01  0.11013245075E+02  0.78763363620E+01  0.13540119925E+02  0.00000000000E+00 0.  1.
</event>
<event>
 7    1  0.2903212E-011  0.5052886E+02  0.7816164E-02  0.1300439E+00
        -11   -1    0    0    0    0  0.00000000000E+00  0.00000000000E+00  0.45593999997E+02  0.45594000000E+02  0.51100000000E-03 0. -1.
         11   -1    0    0    0    0 -0.00000000000E+00 -0.00000000000E+00 -0.45593999997E+02  0.45594000000E+02  0.51100000000E-03 0.  1.
    9900012    2    1    2    0    0  0.25353073307E+02 -0.20657201518E+02  0.24159205613E+02  0.50528861832E+02  0.30000006026E+02 0.  0.
        -12    1    1    2    0    0 -0.25353073307E+02  0.20657201518E+02 -0.24159205613E+02  0.40659138168E+02  0.00000000000E+00 0.  1.
         11    1    3    3    0    0  0.12269986919E+01 -0.19608470900E+01  0.12075767903E+02  0.12295308773E+02  0.51100000000E-03 0. -1.
        -11    1    3    3    0    0  0.19459988652E+01  0.18852430100E+01  0.70588998062E+01  0.75610263540E+01  0.51100000000E-03 0.  1.
        -12    1    3    3    0    0  0.22180075749E+02 -0.20581597438E+02  0.50245379038E+01  0.30672526706E+02  0.00000000000E+00 0.  1.
</event>
<event>
 7    1  0.2903212E-011  0.5052886E+02  0.7816164E-02  0.1300439E+00
        -11   -1    0    0    0    0  0.00000000000E+00  0.00000000000E+00  0.45593999997E+02  0.45594000000E+02  0.51100000000E-03 0.  1.
         11   -1    0    0    0    0 -0.00000000000E+00 -0.00000000000E+00 -0.45593999997E+02  0.45594000000E+02  0.51100000000E-03 0. -1.
    9900012    2    1    2    0    0 -0.19318999679E+02  0.29818052108E+02 -0.19769303622E+02  0.50528863932E+02  0.30000012408E+02 0.  0.
        -12    1    1    2    0    0  0.19318999679E+02 -0.29818052108E+02  0.19769303622E+02  0.40659136068E+02  0.00000000000E+00 0.  1.
         11    1    3    3    0    0 -0.22355885751E+01  0.82393130854E+00 -0.71072307299E+01  0.74959621121E+01  0.51100000000E-03 0. -1.
        -11    1    3    3    0    0 -0.75233887611E+01  0.12945107517E+02  0.64544587448E+01  0.16304515480E+02  0.51100000000E-03 0.  1.
         12    1    3    3    0    0 -0.95600223425E+01  0.16049013282E+02 -0.19116531637E+02  0.26728386340E+02  0.00000000000E+00 0. -1.
</event>
<event>
 7    1  0.2903212E-011  0.5052886E+02  0.7816164E-02  0.1300439E+00
        -11   -1    0    0    0    0  0.00000000000E+00  0.00000000000E+00  0.45593999997E+02  0.45594000000E+02  0.51100000000E-03 0.  1.
         11   -1    0    0    0    0 -0.00000000000E+00 -0.00000000000E+00 -0.45593999997E+02  0.45594000000E+02  0.51100000000E-03 0. -1.
    9900012    2    1    2    0    0  0.37269019448E+02 -0.13899572089E+02 -0.84253988029E+01  0.50528864989E+02  0.30000015621E+02 0.  0.
        -12    1    1    2    0    0 -0.37269019448E+02  0.13899572089E+02  0.84253988029E+01  0.40659135011E+02  0.00000000000E+00 0.  1.
         11    1    3    3    0    0  0.16363153834E+01 -0.78602917312E+01  0.35530738191E+01  0.87798660559E+01  0.51100000000E-03 0.  1.
        -11    1    3    3    0    0  0.11477867196E+02 -0.93660892762E+01 -0.56000185919E+00  0.14824933931E+02  0.51100000000E-03 0. -1.
         12    1    3    3    0    0  0.24154836868E+02  0.33268089184E+01 -0.11418470763E+02  0.26924065003E+02  0.00000000000E+00 0. -1.
</event>
<event>
 7    1  0.2903212E-011  0.5052886E+02  0.7816164E-02  0.1300439E+00
        -11   -1    0    0    0    0  0.00000000000E+00  0.00000000000E+00  0.45593999997E+02  0.45594000000E+02  0.51100000000E-03 0.  1.
         11   -1    0    0    0    0 -0.00000000000E+00 -0.00000000000E+00 -0.45593999997E+02  0.45594000000E+02  0.51100000000E-03 0. -1.
    9900012    2    1    2    0    0  0.35798552912E+02  0.16764892539E+02 -0.95167047651E+01  0.50528859797E+02  0.29999999839E+02 0.  0.
        -12    1    1    2    0    0 -0.35798552912E+02 -0.16764892539E+02  0.95167047651E+01  0.40659140203E+02  0.00000000000E+00 0.  1.
         11    1    3    3    0    0  0.17866893369E+02  0.95257583289E+01  0.43014991478E+01  0.20699489018E+02  0.51100000000E-03 0. -1.
        -11    1    3    3    0    0  0.34672261859E+01  0.92606828415E+01 -0.24576391060E+00  0.98915268930E+01  0.51100000000E-03 0.  1.
         12    1    3    3    0    0  0.14464433357E+02 -0.20215486314E+01 -0.13572440002E+02  0.19937843886E+02  0.00000000000E+00 0. -1.
</event>
<event>
 7    1  0.2903212E-011  0.5052886E+02  0.7816164E-02  0.1300439E+00
        -11   -1    0    0    0    0  0.00000000000E+00  0.00000000000E+00  0.45593999997E+02  0.45594000000E+02  0.51100000000E-03 0.  1.
         11   -1    0    0    0    0 -0.00000000000E+00 -0.00000000000E+00 -0.45593999997E+02  0.45594000000E+02  0.51100000000E-03 0. -1.
    9900012    2    1    2    0    0 -0.59907569082E+01  0.21548756896E+02 -0.33954792988E+02  0.50528855163E+02  0.29999985752E+02 0.  0.
        -12    1    1    2    0    0  0.59907569082E+01 -0.21548756896E+02  0.33954792988E+02  0.40659144837E+02  0.00000000000E+00 0.  1.
         11    1    3    3    0    0 -0.79629503999E+01  0.55924480895E+01 -0.54706167592E+01  0.11162961197E+02  0.51100000000E-03 0. -1.
        -11    1    3    3    0    0 -0.41805050440E+01  0.14914717608E+02 -0.70073009387E+01  0.17000814406E+02  0.51100000000E-03 0.  1.
         12    1    3    3    0    0  0.61526985357E+01  0.10415911979E+01 -0.21476875290E+02  0.22365079559E+02  0.00000000000E+00 0. -1.
</event>
<event>
 7    1  0.2903212E-011  0.5052881E+02  0.7816164E-02  0.1300439E+00
        -11   -1    0    0    0    0  0.00000000000E+00  0.00000000000E+00  0.45593999997E+02  0.45594000000E+02  0.51100000000E-03 0.  1.
         11   -1    0    0    0    0 -0.00000000000E+00 -0.00000000000E+00 -0.45593999997E+02  0.45594000000E+02  0.51100000000E-03 0. -1.
    9900012    2    1    2    0    0  0.21937092976E+02  0.33473270508E+02  0.71745207066E+01  0.50528811197E+02  0.29999852113E+02 0.  0.
        -12    1    1    2    0    0 -0.21937092976E+02 -0.33473270508E+02 -0.71745207066E+01  0.40659188803E+02  0.00000000000E+00 0.  1.
         11    1    3    3    0    0  0.16863622614E+02  0.12428223075E+02  0.19958847284E+01  0.21043432528E+02  0.51100000000E-03 0. -1.
        -11    1    3    3    0    0  0.25652666370E+01 -0.25622888724E+01  0.44418315915E+01  0.57337409545E+01  0.51100000000E-03 0.  1.
         12    1    3    3    0    0  0.25082037259E+01  0.23607336306E+02  0.73680438672E+00  0.23751637714E+02  0.00000000000E+00 0. -1.
</event>
<event>
 7    1  0.2903212E-011  0.5052886E+02  0.7816164E-02  0.1300439E+00
        -11   -1    0    0    0    0  0.00000000000E+00  0.00000000000E+00  0.45593999997E+02  0.45594000000E+02  0.51100000000E-03 0. -1.
         11   -1    0    0    0    0 -0.00000000000E+00 -0.00000000000E+00 -0.45593999997E+02  0.45594000000E+02  0.51100000000E-03 0.  1.
    9900012    2    1    2    0    0  0.38172873045E+02  0.12259884117E+02  0.67596299251E+01  0.50528860906E+02  0.30000003211E+02 0.  0.
        -12    1    1    2    0    0 -0.38172873045E+02 -0.12259884117E+02 -0.67596299251E+01  0.40659139094E+02  0.00000000000E+00 0.  1.
         11    1    3    3    0    0  0.69751240693E+01 -0.60292840520E+01  0.48080233779E+01  0.10398159021E+02  0.51100000000E-03 0.  1.
        -11    1    3    3    0    0  0.14283654860E+02  0.10774320322E+02  0.93631984243E+01  0.20193520237E+02  0.51100000000E-03 0. -1.
         12    1    3    3    0    0  0.16914094116E+02  0.75148478471E+01 -0.74115918772E+01  0.19937181648E+02  0.00000000000E+00 0. -1.
</event>
<event>
 7    1  0.2903212E-011  0.5052886E+02  0.7816164E-02  0.1300439E+00
        -11   -1    0    0    0    0  0.00000000000E+00  0.00000000000E+00  0.45593999997E+02  0.45594000000E+02  0.51100000000E-03 0.  1.
         11   -1    0    0    0    0 -0.00000000000E+00 -0.00000000000E+00 -0.45593999997E+02  0.45594000000E+02  0.51100000000E-03 0. -1.
    9900012    2    1    2    0    0 -0.32299461017E+02 -0.18972052401E+02 -0.15810487900E+02  0.50528862257E+02  0.30000007318E+02 0.  0.
        -12    1    1    2    0    0  0.32299461017E+02  0.18972052401E+02  0.15810487900E+02  0.40659137743E+02  0.00000000000E+00 0.  1.
         11    1    3    3    0    0 -0.22979732017E+01 -0.63267946041E+01  0.54584291251E+01  0.86662252206E+01  0.51100000000E-03 0. -1.
        -11    1    3    3    0    0  0.64798035434E+00  0.19886157765E+01 -0.13313223622E+01  0.24792923869E+01  0.51100000000E-03 0.  1.
         12    1    3    3    0    0 -0.30649468170E+02 -0.14633873574E+02 -0.19937594663E+02  0.39383344650E+02  0.00000000000E+00 0. -1.
</event>
<event>
 7    1  0.2903212E-011  0.5052886E+02  0.7816164E-02  0.1300439E+00
        -11   -1    0    0    0    0  0.00000000000E+00  0.00000000000E+00  0.45593999997E+02  0.45594000000E+02  0.51100000000E-03 0.  1.
         11   -1    0    0    0    0 -0.00000000000E+00 -0.00000000000E+00 -0.45593999997E+02  0.45594000000E+02  0.51100000000E-03 0. -1.
    9900012    2    1    2    0    0  0.38737555549E+02 -0.12027311883E+02 -0.28126818689E+01  0.50528860556E+02  0.30000002145E+02 0.  0.
        -12    1    1    2    0    0 -0.38737555549E+02  0.12027311883E+02  0.28126818689E+01  0.40659139444E+02  0.00000000000E+00 0.  1.
         11    1    3    3    0    0  0.21178709137E+02 -0.65297746901E+01 -0.13578998658E+02  0.25991631019E+02  0.51100000000E-03 0. -1.
        -11    1    3    3    0    0 -0.13903819676E+00 -0.34967091398E+01  0.44023359299E+01  0.56237770518E+01  0.51100000000E-03 0.  1.
        -12    1    3    3    0    0  0.17697884608E+02 -0.20008280530E+01  0.63639808592E+01  0.18913452485E+02  0.00000000000E+00 0.  1.
</event>
<event>
 7    1  0.2903212E-011  0.5052887E+02  0.7816164E-02  0.1300439E+00
        -11   -1    0    0    0    0  0.00000000000E+00  0.00000000000E+00  0.45593999997E+02  0.45594000000E+02  0.51100000000E-03 0.  1.
         11   -1    0    0    0    0 -0.00000000000E+00 -0.00000000000E+00 -0.45593999997E+02  0.45594000000E+02  0.51100000000E-03 0. -1.
    9900012    2    1    2    0    0  0.34890621530E+02  0.18751991531E+02 -0.91745444155E+01  0.50528869139E+02  0.30000028236E+02 0.  0.
        -12    1    1    2    0    0 -0.34890621530E+02 -0.18751991531E+02  0.91745444155E+01  0.40659130861E+02  0.00000000000E+00 0.  1.
         11    1    3    3    0    0  0.26219026082E+01  0.11433891148E+02 -0.91021668878E+01  0.14847817428E+02  0.51100000000E-03 0. -1.
        -11    1    3    3    0    0  0.13933221712E+00 -0.11619054121E+01 -0.20845480620E+01  0.23905602978E+01  0.51100000000E-03 0.  1.
         12    1    3    3    0    0  0.32129386704E+02  0.84800057955E+01  0.20121705343E+01  0.33290491413E+02  0.00000000000E+00 0. -1.
</event>
<event>
 7    1  0.2903212E-011  0.5052886E+02  0.7816164E-02  0.1300439E+00
        -11   -1    0    0    0    0  0.00000000000E+00  0.00000000000E+00  0.45593999997E+02  0.45594000000E+02  0.51100000000E-03 0. -1.
         11   -1    0    0    0    0 -0.00000000000E+00 -0.00000000000E+00 -0.45593999997E+02  0.45594000000E+02  0.51100000000E-03 0.  1.
    9900012    2    1    2    0    0  0.64803276549E+01  0.33292938707E+02  0.22422118098E+02  0.50528858417E+02  0.29999995644E+02 0.  0.
        -12    1    1    2    0    0 -0.64803276549E+01 -0.33292938707E+02 -0.22422118098E+02  0.40659141583E+02  0.00000000000E+00 0.  1.
         11    1    3    3    0    0 -0.14530900003E+01  0.10536897181E+02  0.13731808983E+02  0.17369520747E+02  0.51100000000E-03 0. -1.
        -11    1    3    3    0    0 -0.51478168709E+01  0.17963456063E+00  0.42795268060E+01  0.66967631776E+01  0.51100000000E-03 0.  1.
        -12    1    3    3    0    0  0.13081234526E+02  0.22576406965E+02  0.44107823085E+01  0.26462574492E+02  0.00000000000E+00 0.  1.
</event>
<event>
 7    1  0.2903212E-011  0.5052875E+02  0.7816164E-02  0.1300439E+00
        -11   -1    0    0    0    0  0.00000000000E+00  0.00000000000E+00  0.45593999997E+02  0.45594000000E+02  0.51100000000E-03 0.  1.
         11   -1    0    0    0    0 -0.00000000000E+00 -0.00000000000E+00 -0.45593999997E+02  0.45594000000E+02  0.51100000000E-03 0. -1.
    9900012    2    1    2    0    0  0.15314441331E+02  0.29119577885E+02 -0.23889176531E+02  0.50528749087E+02  0.29999663323E+02 0.  0.
        -12    1    1    2    0    0 -0.15314441331E+02 -0.29119577885E+02  0.23889176531E+02  0.40659250913E+02  0.00000000000E+00 0.  1.
         11    1    3    3    0    0  0.10063175321E+02  0.23365079762E+01 -0.36908679218E+01  0.10970381640E+02  0.51100000000E-03 0. -1.
        -11    1    3    3    0    0  0.39984889285E+01 -0.68909792221E-01  0.22038644874E+01  0.45661451149E+01  0.51100000000E-03 0.  1.
         12    1    3    3    0    0  0.12527770820E+01  0.26851979701E+02 -0.22402173096E+02  0.34992222332E+02  0.00000000000E+00 0. -1.
</event>
<event>
 7    1  0.2903212E-011  0.5052887E+02  0.7816164E-02  0.1300439E+00
        -11   -1    0    0    0    0  0.00000000000E+00  0.00000000000E+00  0.45593999997E+02  0.45594000000E+02  0.51100000000E-03 0. -1.
         11   -1    0    0    0    0 -0.00000000000E+00 -0.00000000000E+00 -0.45593999997E+02  0.45594000000E+02  0.51100000000E-03 0.  1.
    9900012    2    1    2    0    0 -0.76834473253E+00 -0.32650642560E+02  0.24217972875E+02  0.50528867897E+02  0.30000024460E+02 0.  0.
        -12    1    1    2    0    0  0.76834473253E+00  0.32650642560E+02 -0.24217972875E+02  0.40659132103E+02  0.00000000000E+00 0.  1.
         11    1    3    3    0    0 -0.10959626594E+01 -0.75504366436E+00  0.20015719348E+01  0.24036463045E+01  0.51100000000E-03 0. -1.
        -11    1    3    3    0    0  0.11174369428E+02 -0.10128233791E+02  0.17931527022E+02  0.23430478302E+02  0.51100000000E-03 0.  1.
         12    1    3    3    0    0 -0.10846751501E+02 -0.21767365104E+02  0.42848739173E+01  0.24694743291E+02  0.00000000000E+00 0. -1.
</event>
<event>
 7    1  0.2903212E-011  0.5052886E+02  0.7816164E-02  0.1300439E+00
        -11   -1    0    0    0    0  0.00000000000E+00  0.00000000000E+00  0.45593999997E+02  0.45594000000E+02  0.51100000000E-03 0.  1.
         11   -1    0    0    0    0 -0.00000000000E+00 -0.00000000000E+00 -0.45593999997E+02  0.45594000000E+02  0.51100000000E-03 0. -1.
    9900012    2    1    2    0    0 -0.16949501798E+02 -0.12952156254E+02 -0.34613897673E+02  0.50528857424E+02  0.29999992627E+02 0.  0.
        -12    1    1    2    0    0  0.16949501798E+02  0.12952156254E+02  0.34613897673E+02  0.40659142576E+02  0.00000000000E+00 0.  1.
         11    1    3    3    0    0 -0.17782617178E+02 -0.17628132810E+02 -0.23146619433E+02  0.34098952059E+02  0.51100000000E-03 0. -1.
        -11    1    3    3    0    0 -0.31032806020E+01 -0.36039899225E+00  0.19550691256E+00  0.31302493739E+01  0.51100000000E-03 0.  1.
        -12    1    3    3    0    0  0.39363959819E+01  0.50363755476E+01 -0.11662785152E+02  0.13299655991E+02  0.00000000000E+00 0.  1.
</event>
<event>
 7    1  0.2903212E-011  0.5052886E+02  0.7816164E-02  0.1300439E+00
        -11   -1    0    0    0    0  0.00000000000E+00  0.00000000000E+00  0.45593999997E+02  0.45594000000E+02  0.51100000000E-03 0.  1.
         11   -1    0    0    0    0 -0.00000000000E+00 -0.00000000000E+00 -0.45593999997E+02  0.45594000000E+02  0.51100000000E-03 0. -1.
    9900012    2    1    2    0    0  0.27372435266E+01 -0.33370592508E+02 -0.23066787405E+02  0.50528860466E+02  0.30000001872E+02 0.  0.
        -12    1    1    2    0    0 -0.27372435266E+01  0.33370592508E+02  0.23066787405E+02  0.40659139534E+02  0.00000000000E+00 0.  1.
         11    1    3    3    0    0  0.15249250076E+01 -0.66121123137E+01 -0.10742540297E+02  0.12706203124E+02  0.51100000000E-03 0. -1.
        -11    1    3    3    0    0  0.89620578670E+01 -0.31284564796E+01 -0.83428200128E+01  0.12637577584E+02  0.51100000000E-03 0.  1.
         12    1    3    3    0    0 -0.77497393481E+01 -0.23630023715E+02 -0.39814270952E+01  0.25185079758E+02  0.00000000000E+00 0. -1.
</event>
<event>
 7    1  0.2903212E-011  0.5052888E+02  0.7816164E-02  0.1300439E+00
        -11   -1    0    0    0    0  0.00000000000E+00  0.00000000000E+00  0.45593999997E+02  0.45594000000E+02  0.51100000000E-03 0.  1.
         11   -1    0    0    0    0 -0.00000000000E+00 -0.00000000000E+00 -0.45593999997E+02  0.45594000000E+02  0.51100000000E-03 0. -1.
    9900012    2    1    2    0    0 -0.19804719821E+02  0.15694501917E+02 -0.31853094589E+02  0.50528881066E+02  0.30000064488E+02 0.  0.
        -12    1    1    2    0    0  0.19804719821E+02 -0.15694501917E+02  0.31853094589E+02  0.40659118934E+02  0.00000000000E+00 0.  1.
         11    1    3    3    0    0 -0.26208550536E+02  0.12584583445E+02 -0.24451058583E+02  0.37988341998E+02  0.51100000000E-03 0. -1.
        -11    1    3    3    0    0 -0.40086592864E+00  0.84430007759E+00 -0.48326946756E+01  0.49222428020E+01  0.51100000000E-03 0.  1.
        -12    1    3    3    0    0  0.68046966437E+01  0.22656183948E+01 -0.25693413301E+01  0.76182962659E+01  0.00000000000E+00 0.  1.
</event>
<event>
 7    1  0.2903212E-011  0.5052886E+02  0.7816164E-02  0.1300439E+00
        -11   -1    0    0    0    0  0.00000000000E+00  0.00000000000E+00  0.45593999997E+02  0.45594000000E+02  0.51100000000E-03 0. -1.
         11   -1    0    0    0    0 -0.00000000000E+00 -0.00000000000E+00 -0.45593999997E+02  0.45594000000E+02  0.51100000000E-03 0.  1.
    9900012    2    1    2    0    0  0.19134075586E+02 -0.74065793608E+01  0.35102638166E+02  0.50528862373E+02  0.30000007669E+02 0.  0.
        -12    1    1    2    0    0 -0.19134075586E+02  0.74065793608E+01 -0.35102638166E+02  0.40659137627E+02  0.00000000000E+00 0.  1.
         11    1    3    3    0    0  0.31843773296E+00 -0.18474691169E+01 -0.16873782458E+00  0.18822904776E+01  0.51100000000E-03 0. -1.
        -11    1    3    3    0    0  0.12930761311E+02 -0.19661628740E+00  0.46435033038E+00  0.12940589923E+02  0.51100000000E-03 0.  1.
         12    1    3    3    0    0  0.58848765415E+01 -0.53624939565E+01  0.34807025660E+02  0.35705981973E+02  0.00000000000E+00 0. -1.
</event>
<event>
 7    1  0.2903212E-011  0.5052886E+02  0.7816164E-02  0.1300439E+00
        -11   -1    0    0    0    0  0.00000000000E+00  0.00000000000E+00  0.45593999997E+02  0.45594000000E+02  0.51100000000E-03 0.  1.
         11   -1    0    0    0    0 -0.00000000000E+00 -0.00000000000E+00 -0.45593999997E+02  0.45594000000E+02  0.51100000000E-03 0. -1.
    9900012    2    1    2    0    0  0.21653381153E+02  0.32876925166E+02 -0.10168806765E+02  0.50528858903E+02  0.29999997122E+02 0.  0.
        -12    1    1    2    0    0 -0.21653381153E+02 -0.32876925166E+02  0.10168806765E+02  0.40659141097E+02  0.00000000000E+00 0.  1.
         11    1    3    3    0    0  0.26016147878E+01  0.15691096795E+02 -0.10123916352E+02  0.18853981030E+02  0.51100000000E-03 0. -1.
        -11    1    3    3    0    0  0.80873764264E+01  0.18198087994E+02 -0.33156371768E+01  0.20188350954E+02  0.51100000000E-03 0.  1.
        -12    1    3    3    0    0  0.10964389939E+02 -0.10122596228E+01  0.32707467634E+01  0.11486526919E+02  0.00000000000E+00 0.  1.
</event>
<event>
 7    1  0.2903212E-011  0.5052886E+02  0.7816164E-02  0.1300439E+00
        -11   -1    0    0    0    0  0.00000000000E+00  0.00000000000E+00  0.45593999997E+02  0.45594000000E+02  0.51100000000E-03 0.  1.
         11   -1    0    0    0    0 -0.00000000000E+00 -0.00000000000E+00 -0.45593999997E+02  0.45594000000E+02  0.51100000000E-03 0. -1.
    9900012    2    1    2    0    0  0.34745540212E+02  0.13810840478E+02 -0.15974156115E+02  0.50528861508E+02  0.30000005039E+02 0.  0.
        -12    1    1    2    0    0 -0.34745540212E+02 -0.13810840478E+02  0.15974156115E+02  0.40659138492E+02  0.00000000000E+00 0.  1.
         11    1    3    3    0    0  0.27827730708E+02  0.23017514450E+01 -0.63856070621E+01  0.28643614190E+02  0.51100000000E-03 0. -1.
        -11    1    3    3    0    0  0.54719397709E+01 -0.15743941928E+01 -0.59346046235E+01  0.82243768292E+01  0.51100000000E-03 0.  1.
        -12    1    3    3    0    0  0.14458697337E+01  0.13083483226E+02 -0.36539444294E+01  0.13660870489E+02  0.00000000000E+00 0.  1.
</event>
<event>
 7    1  0.2903212E-011  0.5052886E+02  0.7816164E-02  0.1300439E+00
        -11   -1    0    0    0    0  0.00000000000E+00  0.00000000000E+00  0.45593999997E+02  0.45594000000E+02  0.51100000000E-03 0. -1.
         11   -1    0    0    0    0 -0.00000000000E+00 -0.00000000000E+00 -0.45593999997E+02  0.45594000000E+02  0.51100000000E-03 0.  1.
    9900012    2    1    2    0    0 -0.19647774857E+02  0.17301842762E+01  0.35554706599E+02  0.50528858890E+02  0.29999997082E+02 0.  0.
        -12    1    1    2    0    0  0.19647774857E+02 -0.17301842762E+01 -0.35554706599E+02  0.40659141110E+02  0.00000000000E+00 0.  1.
         11    1    3    3    0    0 -0.20620179811E+02 -0.36020844074E+01  0.31554464618E+02  0.37866225916E+02  0.51100000000E-03 0. -1.
        -11    1    3    3    0    0 -0.48239718424E+01  0.18062160098E+01  0.24459180942E+01  0.57022483456E+01  0.51100000000E-03 0.  1.
        -12    1    3    3    0    0  0.57963767967E+01  0.35260526738E+01  0.15543238864E+01  0.69603846281E+01  0.00000000000E+00 0.  1.
</event>
<event>
 7    1  0.2903212E-011  0.5052887E+02  0.7816164E-02  0.1300439E+00
        -11   -1    0    0    0    0  0.00000000000E+00  0.00000000000E+00  0.45593999997E+02  0.45594000000E+02  0.51100000000E-03 0.  1.
         11   -1    0    0    0    0 -0.00000000000E+00 -0.00000000000E+00 -0.45593999997E+02  0.45594000000E+02  0.51100000000E-03 0. -1.
    9900012    2    1    2    0    0 -0.91511962600E+01  0.26311571827E+02 -0.29616235188E+02  0.50528873205E+02  0.30000040594E+02 0.  0.
        -12    1    1    2    0    0  0.91511962600E+01 -0.26311571827E+02  0.29616235188E+02  0.40659126795E+02  0.00000000000E+00 0.  1.
         11    1    3    3    0    0  0.22107421504E+01  0.53567678404E-01 -0.20493378209E+01  0.30149686760E+01  0.51100000000E-03 0. -1.
        -11    1    3    3    0    0  0.80486269165E+01  0.43316125002E+01 -0.90757030845E+01  0.12880669580E+02  0.51100000000E-03 0.  1.
         12    1    3    3    0    0 -0.19410565327E+02  0.21926391648E+02 -0.18491194283E+02  0.34633234949E+02  0.00000000000E+00 0. -1.
</event>
<event>
 7    1  0.2903212E-011  0.5052897E+02  0.7816164E-02  0.1300438E+00
        -11   -1    0    0    0    0  0.00000000000E+00  0.00000000000E+00  0.45593999997E+02  0.45594000000E+02  0.51100000000E-03 0. -1.
         11   -1    0    0    0    0 -0.00000000000E+00 -0.00000000000E+00 -0.45593999997E+02  0.45594000000E+02  0.51100000000E-03 0.  1.
    9900012    2    1    2    0    0 -0.36282664259E+02  0.20144088599E+00  0.18348959953E+02  0.50528971046E+02  0.30000337989E+02 0.  0.
        -12    1    1    2    0    0  0.36282664259E+02 -0.20144088599E+00 -0.18348959953E+02  0.40659028954E+02  0.00000000000E+00 0.  1.
         11    1    3    3    0    0 -0.11191466099E+02  0.52360225728E+01  0.34043897091E+01  0.12816189581E+02  0.51100000000E-03 0. -1.
        -11    1    3    3    0    0  0.30808461307E+01  0.36931669174E+01  0.39967372152E+01  0.62533993467E+01  0.51100000000E-03 0.  1.
        -12    1    3    3    0    0 -0.28172044290E+02 -0.87277486043E+01  0.10947833029E+02  0.31459382118E+02  0.00000000000E+00 0.  1.
</event>
<event>
 7    1  0.2903212E-011  0.5052886E+02  0.7816164E-02  0.1300439E+00
        -11   -1    0    0    0    0  0.00000000000E+00  0.00000000000E+00  0.45593999997E+02  0.45594000000E+02  0.51100000000E-03 0.  1.
         11   -1    0    0    0    0 -0.00000000000E+00 -0.00000000000E+00 -0.45593999997E+02  0.45594000000E+02  0.51100000000E-03 0. -1.
    9900012    2    1    2    0    0 -0.14920418707E+02  0.29625806987E+02 -0.23512936919E+02  0.50528861586E+02  0.30000005276E+02 0.  0.
        -12    1    1    2    0    0  0.14920418707E+02 -0.29625806987E+02  0.23512936919E+02  0.40659138414E+02  0.00000000000E+00 0.  1.
         11    1    3    3    0    0  0.25670947476E+00  0.86316728500E+00 -0.53377784253E+01  0.54132094265E+01  0.51100000000E-03 0. -1.
        -11    1    3    3    0    0 -0.95084764389E+01  0.26589091235E+02 -0.23731350977E+02  0.36885876923E+02  0.51100000000E-03 0.  1.
        -12    1    3    3    0    0 -0.56686517432E+01  0.21735484674E+01  0.55561924841E+01  0.82297752367E+01  0.00000000000E+00 0.  1.
</event>
<event>
 7    1  0.2903212E-011  0.5052882E+02  0.7816164E-02  0.1300439E+00
        -11   -1    0    0    0    0  0.00000000000E+00  0.00000000000E+00  0.45593999997E+02  0.45594000000E+02  0.51100000000E-03 0. -1.
         11   -1    0    0    0    0 -0.00000000000E+00 -0.00000000000E+00 -0.45593999997E+02  0.45594000000E+02  0.51100000000E-03 0.  1.
    9900012    2    1    2    0    0  0.34360909070E+02  0.69105809820E+01  0.20609239777E+02  0.50528819415E+02  0.29999877094E+02 0.  0.
        -12    1    1    2    0    0 -0.34360909070E+02 -0.69105809820E+01 -0.20609239777E+02  0.40659180585E+02  0.00000000000E+00 0.  1.
         11    1    3    3    0    0  0.91267440511E+01  0.11318976191E+01  0.76661672243E+00  0.92285616785E+01  0.51100000000E-03 0.  1.
        -11    1    3    3    0    0  0.24718305640E+02 -0.23411260728E+01  0.64883938816E+01  0.25662711478E+02  0.51100000000E-03 0. -1.
        -12    1    3    3    0    0  0.51585937933E+00  0.81198094357E+01  0.13354229173E+02  0.15637546258E+02  0.00000000000E+00 0.  1.
</event>
<event>
 7    1  0.2903212E-011  0.5052886E+02  0.7816164E-02  0.1300439E+00
        -11   -1    0    0    0    0  0.00000000000E+00  0.00000000000E+00  0.45593999997E+02  0.45594000000E+02  0.51100000000E-03 0. -1.
         11   -1    0    0    0    0 -0.00000000000E+00 -0.00000000000E+00 -0.45593999997E+02  0.45594000000E+02  0.51100000000E-03 0.  1.
    9900012    2    1    2    0    0 -0.35730027629E+01  0.32072808520E+02 -0.24733256682E+02  0.50528863497E+02  0.30000011085E+02 0.  0.
        -12    1    1    2    0    0  0.35730027629E+01 -0.32072808520E+02  0.24733256682E+02  0.40659136503E+02  0.00000000000E+00 0.  1.
         11    1    3    3    0    0 -0.42492998194E+01  0.80087034830E+01 -0.43152119705E+01  0.10040763668E+02  0.51100000000E-03 0.  1.
        -11    1    3    3    0    0 -0.49080983549E+01  0.24725957038E+02 -0.73446541778E+01  0.26256548253E+02  0.51100000000E-03 0. -1.
        -12    1    3    3    0    0  0.55843954114E+01 -0.66185200186E+00 -0.13073390534E+02  0.14231551575E+02  0.00000000000E+00 0.  1.
</event>
<event>
 7    1  0.2903212E-011  0.5052886E+02  0.7816164E-02  0.1300439E+00
        -11   -1    0    0    0    0  0.00000000000E+00  0.00000000000E+00  0.45593999997E+02  0.45594000000E+02  0.51100000000E-03 0.  1.
         11   -1    0    0    0    0 -0.00000000000E+00 -0.00000000000E+00 -0.45593999997E+02  0.45594000000E+02  0.51100000000E-03 0. -1.
    9900012    2    1    2    0    0 -0.18339254595E+02 -0.32411320528E+02 -0.16320050245E+02  0.50528855918E+02  0.29999988049E+02 0.  0.
        -12    1    1    2    0    0  0.18339254595E+02  0.32411320528E+02  0.16320050245E+02  0.40659144082E+02  0.00000000000E+00 0.  1.
         11    1    3    3    0    0 -0.18249539875E+02 -0.14767774031E+02 -0.13234365846E+02  0.26949606585E+02  0.51100000000E-03 0. -1.
        -11    1    3    3    0    0 -0.67019285957E+01 -0.12602981546E+02  0.10119919500E+01  0.14309965713E+02  0.51100000000E-03 0.  1.
        -12    1    3    3    0    0  0.66122138757E+01 -0.50405649516E+01 -0.40976763491E+01  0.92692836202E+01  0.00000000000E+00 0.  1.
</event>
<event>
 7    1  0.2903212E-011  0.5052886E+02  0.7816164E-02  0.1300439E+00
        -11   -1    0    0    0    0  0.00000000000E+00  0.00000000000E+00  0.45593999997E+02  0.45594000000E+02  0.51100000000E-03 0.  1.
         11   -1    0    0    0    0 -0.00000000000E+00 -0.00000000000E+00 -0.45593999997E+02  0.45594000000E+02  0.51100000000E-03 0. -1.
    9900012    2    1    2    0    0 -0.16883136567E+02  0.36678756367E+02 -0.47743003416E+01  0.50528863109E+02  0.30000009905E+02 0.  0.
        -12    1    1    2    0    0  0.16883136567E+02 -0.36678756367E+02  0.47743003416E+01  0.40659136891E+02  0.00000000000E+00 0.  1.
         11    1    3    3    0    0 -0.12402570825E+01  0.64368044964E+01  0.13386036999E+01  0.66904820366E+01  0.51100000000E-03 0. -1.
        -11    1    3    3    0    0 -0.10285047829E+02  0.17645675308E+02  0.99625845554E+01  0.22724549659E+02  0.51100000000E-03 0.  1.
         12    1    3    3    0    0 -0.53578316557E+01  0.12596276563E+02 -0.16075488597E+02  0.21113831413E+02  0.00000000000E+00 0. -1.
</event>
<event>
 7    1  0.2903212E-011  0.5052886E+02  0.7816164E-02  0.1300439E+00
        -11   -1    0    0    0    0  0.00000000000E+00  0.00000000000E+00  0.45593999997E+02  0.45594000000E+02  0.51100000000E-03 0. -1.
         11   -1    0    0    0    0 -0.00000000000E+00 -0.00000000000E+00 -0.45593999997E+02  0.45594000000E+02  0.51100000000E-03 0.  1.
    9900012    2    1    2    0    0  0.25789055462E+02  0.25743389368E+02  0.18037965468E+02  0.50528859872E+02  0.30000000067E+02 0.  0.
        -12    1    1    2    0    0 -0.25789055462E+02 -0.25743389368E+02 -0.18037965468E+02  0.40659140128E+02  0.00000000000E+00 0.  1.
         11    1    3    3    0    0 -0.37179849866E+01  0.37784257621E+01  0.10888115682E+01  0.54116009177E+01  0.51100000000E-03 0. -1.
        -11    1    3    3    0    0  0.18665052809E+01  0.12106222781E+01 -0.40876356834E+01  0.46538386312E+01  0.51100000000E-03 0.  1.
        -12    1    3    3    0    0  0.27640535167E+02  0.20754341328E+02  0.21036789583E+02  0.40463420323E+02  0.00000000000E+00 0.  1.
</event>
<event>
 7    1  0.2903212E-011  0.5052886E+02  0.7816164E-02  0.1300439E+00
        -11   -1    0    0    0    0  0.00000000000E+00  0.00000000000E+00  0.45593999997E+02  0.45594000000E+02  0.51100000000E-03 0.  1.
         11   -1    0    0    0    0 -0.00000000000E+00 -0.00000000000E+00 -0.45593999997E+02  0.45594000000E+02  0.51100000000E-03 0. -1.
    9900012    2    1    2    0    0  0.34137216534E+01  0.39529295452E+02  0.88852254486E+01  0.50528856800E+02  0.29999990729E+02 0.  0.
        -12    1    1    2    0    0 -0.34137216534E+01 -0.39529295452E+02 -0.88852254486E+01  0.40659143200E+02  0.00000000000E+00 0.  1.
         11    1    3    3    0    0 -0.56243737615E+01  0.36020366869E+01  0.23010944997E+01  0.70642256944E+01  0.51100000000E-03 0. -1.
        -11    1    3    3    0    0 -0.16053984464E+01  0.30620698507E+01 -0.58116534334E+01  0.67623140886E+01  0.51100000000E-03 0.  1.
        -12    1    3    3    0    0  0.10643493861E+02  0.32865188915E+02  0.12395784382E+02  0.36702317017E+02  0.00000000000E+00 0.  1.
</event>
<event>
 7    1  0.2903212E-011  0.5052886E+02  0.7816164E-02  0.1300439E+00
        -11   -1    0    0    0    0  0.00000000000E+00  0.00000000000E+00  0.45593999997E+02  0.45594000000E+02  0.51100000000E-03 0.  1.
         11   -1    0    0    0    0 -0.00000000000E+00 -0.00000000000E+00 -0.45593999997E+02  0.45594000000E+02  0.51100000000E-03 0. -1.
    9900012    2    1    2    0    0  0.37760112292E+02  0.79566311244E+01 -0.12807471278E+02  0.50528863515E+02  0.30000011141E+02 0.  0.
        -12    1    1    2    0    0 -0.37760112292E+02 -0.79566311244E+01  0.12807471278E+02  0.40659136485E+02  0.00000000000E+00 0.  1.
         11    1    3    3    0    0  0.12883611907E+02 -0.12235143288E+01 -0.14853319642E+02  0.19700394609E+02  0.51100000000E-03 0. -1.
        -11    1    3    3    0    0 -0.18332276760E+01  0.26198970349E+01  0.80276986661E+00  0.32968202719E+01  0.51100000000E-03 0.  1.
        -12    1    3    3    0    0  0.26709728060E+02  0.65602484183E+01  0.12430784976E+01  0.27531648634E+02  0.00000000000E+00 0.  1.
</event>
<event>
 7    1  0.2903212E-011  0.5052886E+02  0.7816164E-02  0.1300439E+00
        -11   -1    0    0    0    0  0.00000000000E+00  0.00000000000E+00  0.45593999997E+02  0.45594000000E+02  0.51100000000E-03 0. -1.
         11   -1    0    0    0    0 -0.00000000000E+00 -0.00000000000E+00 -0.45593999997E+02  0.45594000000E+02  0.51100000000E-03 0.  1.
    9900012    2    1    2    0    0 -0.32355438784E+02  0.24609049417E+02 -0.82824010195E+00  0.50528859407E+02  0.29999998653E+02 0.  0.
        -12    1    1    2    0    0  0.32355438784E+02 -0.24609049417E+02  0.82824010195E+00  0.40659140593E+02  0.00000000000E+00 0.  1.
         11    1    3    3    0    0  0.15302822538E+00 -0.22594106193E+01 -0.42442956444E+01  0.48106548164E+01  0.51100000000E-03 0. -1.
        -11    1    3    3    0    0 -0.54388936263E+00 -0.19053454834E+01  0.18049420180E+01  0.26802934539E+01  0.51100000000E-03 0.  1.
         12    1    3    3    0    0 -0.31964577646E+02  0.28773805520E+02  0.16111135244E+01  0.43037911137E+02  0.00000000000E+00 0. -1.
</event>
<event>
 7    1  0.2903212E-011  0.5052886E+02  0.7816164E-02  0.1300439E+00
        -11   -1    0    0    0    0  0.00000000000E+00  0.00000000000E+00  0.45593999997E+02  0.45594000000E+02  0.51100000000E-03 0. -1.
         11   -1    0    0    0    0 -0.00000000000E+00 -0.00000000000E+00 -0.45593999997E+02  0.45594000000E+02  0.51100000000E-03 0.  1.
    9900012    2    1    2    0    0 -0.13809944573E+01  0.37707496838E+02  0.15146061222E+02  0.50528860388E+02  0.30000001635E+02 0.  0.
        -12    1    1    2    0    0  0.13809944573E+01 -0.37707496838E+02 -0.15146061222E+02  0.40659139612E+02  0.00000000000E+00 0.  1.
         11    1    3    3    0    0 -0.61479177382E+01  0.12508714457E+02  0.13185119575E+02  0.19186250503E+02  0.51100000000E-03 0. -1.
        -11    1    3    3    0    0  0.18067753544E+01  0.27269133177E+02  0.21332404638E+00  0.27329756106E+02  0.51100000000E-03 0.  1.
        -12    1    3    3    0    0  0.29601479265E+01 -0.20703507970E+01  0.17476176007E+01  0.40128537784E+01  0.00000000000E+00 0.  1.
</event>
<event>
 7    1  0.2903212E-011  0.5052887E+02  0.7816164E-02  0.1300439E+00
        -11   -1    0    0    0    0  0.00000000000E+00  0.00000000000E+00  0.45593999997E+02  0.45594000000E+02  0.51100000000E-03 0. -1.
         11   -1    0    0    0    0 -0.00000000000E+00 -0.00000000000E+00 -0.45593999997E+02  0.45594000000E+02  0.51100000000E-03 0.  1.
    9900012    2    1    2    0    0 -0.56598765456E+01  0.35528341972E+02  0.18943791478E+02  0.50528874071E+02  0.30000043225E+02 0.  0.
        -12    1    1    2    0    0  0.56598765456E+01 -0.35528341972E+02 -0.18943791478E+02  0.40659125929E+02  0.00000000000E+00 0.  1.
         11    1    3    3    0    0  0.20724558313E+01 -0.30667143691E+00 -0.75031837575E+00  0.22253310920E+01  0.51100000000E-03 0. -1.
        -11    1    3    3    0    0  0.20292470737E+01 -0.16753065170E+01 -0.25081519463E+01  0.36352884424E+01  0.51100000000E-03 0.  1.
         12    1    3    3    0    0 -0.97615794506E+01  0.37510319926E+02  0.22202261800E+02  0.44668254536E+02  0.00000000000E+00 0. -1.
</event>
<event>
 7    1  0.2903212E-011  0.5052886E+02  0.7816164E-02  0.1300439E+00
        -11   -1    0    0    0    0  0.00000000000E+00  0.00000000000E+00  0.45593999997E+02  0.45594000000E+02  0.51100000000E-03 0. -1.
         11   -1    0    0    0    0 -0.00000000000E+00 -0.00000000000E+00 -0.45593999997E+02  0.45594000000E+02  0.51100000000E-03 0.  1.
    9900012    2    1    2    0    0  0.35761517688E+02 -0.37795821091E+01  0.18973515225E+02  0.50528859967E+02  0.30000000355E+02 0.  0.
        -12    1    1    2    0    0 -0.35761517688E+02  0.37795821091E+01 -0.18973515225E+02  0.40659140033E+02  0.00000000000E+00 0.  1.
         11    1    3    3    0    0 -0.79284913542E+00  0.47237324714E-02 -0.23629212028E+01  0.24923942178E+01  0.51100000000E-03 0. -1.
        -11    1    3    3    0    0  0.11750186287E+02  0.28951155188E+01 -0.31954773398E+01  0.12516375168E+02  0.51100000000E-03 0.  1.
         12    1    3    3    0    0  0.24804180536E+02 -0.66794213604E+01  0.24531913768E+02  0.35520090581E+02  0.00000000000E+00 0. -1.
</event>
<event>
 7    1  0.2903212E-011  0.5052891E+02  0.7816164E-02  0.1300439E+00
        -11   -1    0    0    0    0  0.00000000000E+00  0.00000000000E+00  0.45593999997E+02  0.45594000000E+02  0.51100000000E-03 0.  1.
         11   -1    0    0    0    0 -0.00000000000E+00 -0.00000000000E+00 -0.45593999997E+02  0.45594000000E+02  0.51100000000E-03 0. -1.
    9900012    2    1    2    0    0  0.15651259026E+02 -0.20428449183E+02 -0.31478218440E+02  0.50528908996E+02  0.30000149384E+02 0.  0.
        -12    1    1    2    0    0 -0.15651259026E+02  0.20428449183E+02  0.31478218440E+02  0.40659091004E+02  0.00000000000E+00 0.  1.
         11    1    3    3    0    0  0.64359724128E+01 -0.20516401128E+01  0.25488134064E+01  0.72199320006E+01  0.51100000000E-03 0. -1.
        -11    1    3    3    0    0  0.77683066025E+01 -0.58040493957E+00 -0.50860504184E+01  0.93032986883E+01  0.51100000000E-03 0.  1.
        -12    1    3    3    0    0  0.14469800109E+01 -0.17796404130E+02 -0.28940981428E+02  0.34005678307E+02  0.00000000000E+00 0.  1.
</event>
<event>
 7    1  0.2903212E-011  0.5052887E+02  0.7816164E-02  0.1300439E+00
        -11   -1    0    0    0    0  0.00000000000E+00  0.00000000000E+00  0.45593999997E+02  0.45594000000E+02  0.51100000000E-03 0.  1.
         11   -1    0    0    0    0 -0.00000000000E+00 -0.00000000000E+00 -0.45593999997E+02  0.45594000000E+02  0.51100000000E-03 0. -1.
    9900012    2    1    2    0    0  0.13626718550E+02  0.40080824540E+01 -0.38097414607E+02  0.50528865932E+02  0.30000018486E+02 0.  0.
        -12    1    1    2    0    0 -0.13626718550E+02 -0.40080824540E+01  0.38097414607E+02  0.40659134068E+02  0.00000000000E+00 0.  1.
         11    1    3    3    0    0  0.14814652281E+01  0.87764496554E+01 -0.18063568422E+02  0.20137361102E+02  0.51100000000E-03 0. -1.
        -11    1    3    3    0    0 -0.96072888670E+00  0.58205078450E+01 -0.39607194587E+01  0.71055337913E+01  0.51100000000E-03 0.  1.
         12    1    3    3    0    0  0.13105982209E+02 -0.10588875046E+02 -0.16073126727E+02  0.23285971038E+02  0.00000000000E+00 0. -1.
</event>
<event>
 7    1  0.2903212E-011  0.5052886E+02  0.7816164E-02  0.1300439E+00
        -11   -1    0    0    0    0  0.00000000000E+00  0.00000000000E+00  0.45593999997E+02  0.45594000000E+02  0.51100000000E-03 0. -1.
         11   -1    0    0    0    0 -0.00000000000E+00 -0.00000000000E+00 -0.45593999997E+02  0.45594000000E+02  0.51100000000E-03 0.  1.
    9900012    2    1    2    0    0  0.27456785594E+02  0.29982963653E+02  0.55914168848E+00  0.50528858051E+02  0.29999994532E+02 0.  0.
        -12    1    1    2    0    0 -0.27456785594E+02 -0.29982963653E+02 -0.55914168848E+00  0.40659141949E+02  0.00000000000E+00 0.  1.
         11    1    3    3    0    0  0.16395463073E+02  0.55738368739E+01  0.50996604734E+01  0.18052296366E+02  0.51100000000E-03 0. -1.
        -11    1    3    3    0    0  0.10213862035E+02  0.32426785118E+01 -0.34780263585E+01  0.11266526049E+02  0.51100000000E-03 0.  1.
         12    1    3    3    0    0  0.84746048636E+00  0.21166448268E+02 -0.10624924264E+01  0.21210035636E+02  0.00000000000E+00 0. -1.
</event>
<event>
 7    1  0.2903212E-011  0.5052888E+02  0.7816164E-02  0.1300439E+00
        -11   -1    0    0    0    0  0.00000000000E+00  0.00000000000E+00  0.45593999997E+02  0.45594000000E+02  0.51100000000E-03 0. -1.
         11   -1    0    0    0    0 -0.00000000000E+00 -0.00000000000E+00 -0.45593999997E+02  0.45594000000E+02  0.51100000000E-03 0.  1.
    9900012    2    1    2    0    0  0.16791621478E+02  0.98658686503E+01  0.35691318993E+02  0.50528878421E+02  0.30000056450E+02 0.  0.
        -12    1    1    2    0    0 -0.16791621478E+02 -0.98658686503E+01 -0.35691318993E+02  0.40659121579E+02  0.00000000000E+00 0.  1.
         11    1    3    3    0    0 -0.26238841594E+01 -0.46206152825E+01  0.12312717400E+01  0.54544370956E+01  0.51100000000E-03 0. -1.
        -11    1    3    3    0    0 -0.15271983324E+01  0.85852355024E-01  0.88937540552E+01  0.90243319326E+01  0.51100000000E-03 0.  1.
         12    1    3    3    0    0  0.20942703970E+02  0.14400631578E+02  0.25566293198E+02  0.36050109393E+02  0.00000000000E+00 0. -1.
</event>
<event>
 7    1  0.2903212E-011  0.5052886E+02  0.7816164E-02  0.1300439E+00
        -11   -1    0    0    0    0  0.00000000000E+00  0.00000000000E+00  0.45593999997E+02  0.45594000000E+02  0.51100000000E-03 0.  1.
         11   -1    0    0    0    0 -0.00000000000E+00 -0.00000000000E+00 -0.45593999997E+02  0.45594000000E+02  0.51100000000E-03 0. -1.
    9900012    2    1    2    0    0 -0.26255869811E+02 -0.28042233910E+02 -0.13320210970E+02  0.50528860776E+02  0.30000002814E+02 0.  0.
        -12    1    1    2    0    0  0.26255869811E+02  0.28042233910E+02  0.13320210970E+02  0.40659139224E+02  0.00000000000E+00 0.  1.
         11    1    3    3    0    0  0.16112224047E+00  0.14457751946E+01  0.17635384616E+01  0.22861090211E+01  0.51100000000E-03 0. -1.
        -11    1    3    3    0    0 -0.17344540728E+02 -0.88268326905E+01  0.25189315215E+01  0.19623737786E+02  0.51100000000E-03 0.  1.
         12    1    3    3    0    0 -0.90724513230E+01 -0.20661176414E+02 -0.17602680953E+02  0.28619013969E+02  0.00000000000E+00 0. -1.
</event>
<event>
 7    1  0.2903212E-011  0.5052892E+02  0.7816164E-02  0.1300439E+00
        -11   -1    0    0    0    0  0.00000000000E+00  0.00000000000E+00  0.45593999997E+02  0.45594000000E+02  0.51100000000E-03 0.  1.
         11   -1    0    0    0    0 -0.00000000000E+00 -0.00000000000E+00 -0.45593999997E+02  0.45594000000E+02  0.51100000000E-03 0. -1.
    9900012    2    1    2    0    0  0.25627614594E+02 -0.46898690870E+01 -0.31215244777E+02  0.50528917272E+02  0.30000174539E+02 0.  0.
        -12    1    1    2    0    0 -0.25627614594E+02  0.46898690870E+01  0.31215244777E+02  0.40659082728E+02  0.00000000000E+00 0.  1.
         11    1    3    3    0    0  0.10368574783E+01  0.22760592617E+01  0.68637220646E+00  0.25935740321E+01  0.51100000000E-03 0. -1.
        -11    1    3    3    0    0  0.96800156583E+01  0.85437357019E+01 -0.59241622426E+01  0.14205415215E+02  0.51100000000E-03 0.  1.
         12    1    3    3    0    0  0.14910741457E+02 -0.15509664051E+02 -0.25977454741E+02  0.33729928025E+02  0.00000000000E+00 0. -1.
</event>
<event>
 7    1  0.2903212E-011  0.5052886E+02  0.7816164E-02  0.1300439E+00
        -11   -1    0    0    0    0  0.00000000000E+00  0.00000000000E+00  0.45593999997E+02  0.45594000000E+02  0.51100000000E-03 0.  1.
         11   -1    0    0    0    0 -0.00000000000E+00 -0.00000000000E+00 -0.45593999997E+02  0.45594000000E+02  0.51100000000E-03 0. -1.
    9900012    2    1    2    0    0  0.10220378582E+02 -0.36422020580E+02 -0.14904556111E+02  0.50528861859E+02  0.30000006105E+02 0.  0.
        -12    1    1    2    0    0 -0.10220378582E+02  0.36422020580E+02  0.14904556111E+02  0.40659138141E+02  0.00000000000E+00 0.  1.
         11    1    3    3    0    0  0.66506952091E+01 -0.15431719429E+02  0.61122901123E+01  0.17880989961E+02  0.51100000000E-03 0. -1.
        -11    1    3    3    0    0  0.30426975311E+01  0.43741296590E+00 -0.50820247947E+01  0.59393867228E+01  0.51100000000E-03 0.  1.
         12    1    3    3    0    0  0.52698584211E+00 -0.21427714117E+02 -0.15934821429E+02  0.26708485175E+02  0.00000000000E+00 0. -1.
</event>
<event>
 7    1  0.2903212E-011  0.5052884E+02  0.7816164E-02  0.1300439E+00
        -11   -1    0    0    0    0  0.00000000000E+00  0.00000000000E+00  0.45593999997E+02  0.45594000000E+02  0.51100000000E-03 0. -1.
         11   -1    0    0    0    0 -0.00000000000E+00 -0.00000000000E+00 -0.45593999997E+02  0.45594000000E+02  0.51100000000E-03 0.  1.
    9900012    2    1    2    0    0  0.18030762297E+02  0.22587589842E+02 -0.28598239147E+02  0.50528844989E+02  0.29999954828E+02 0.  0.
        -12    1    1    2    0    0 -0.18030762297E+02 -0.22587589842E+02  0.28598239147E+02  0.40659155011E+02  0.00000000000E+00 0.  1.
         11    1    3    3    0    0  0.34669274140E+01  0.15291204868E+02 -0.40608098330E+01  0.16196626462E+02  0.51100000000E-03 0. -1.
        -11    1    3    3    0    0  0.49186464482E+01  0.10530442719E+02 -0.20132542198E+02  0.23246560226E+02  0.51100000000E-03 0.  1.
         12    1    3    3    0    0  0.96451884350E+01 -0.32340577447E+01 -0.44048871168E+01  0.11085658300E+02  0.00000000000E+00 0. -1.
</event>
<event>
 7    1  0.2903212E-011  0.5052886E+02  0.7816164E-02  0.1300439E+00
        -11   -1    0    0    0    0  0.00000000000E+00  0.00000000000E+00  0.45593999997E+02  0.45594000000E+02  0.51100000000E-03 0. -1.
         11   -1    0    0    0    0 -0.00000000000E+00 -0.00000000000E+00 -0.45593999997E+02  0.45594000000E+02  0.51100000000E-03 0.  1.
    9900012    2    1    2    0    0  0.34776226266E+02 -0.17479275131E+02  0.11758161847E+02  0.50528863974E+02  0.30000012534E+02 0.  0.
        -12    1    1    2    0    0 -0.34776226266E+02  0.17479275131E+02 -0.11758161847E+02  0.40659136026E+02  0.00000000000E+00 0.  1.
         11    1    3    3    0    0 -0.13635071085E+01 -0.50882038889E+01 -0.64554443593E-01  0.52681247126E+01  0.51100000000E-03 0. -1.
        -11    1    3    3    0    0 -0.41598257375E+00 -0.36108982953E+01  0.62840967764E+01  0.72595799160E+01  0.51100000000E-03 0.  1.
         12    1    3    3    0    0  0.36555715948E+02 -0.87801729466E+01  0.55386195141E+01  0.38001159345E+02  0.00000000000E+00 0. -1.
</event>
<event>
 7    1  0.2903212E-011  0.5052886E+02  0.7816164E-02  0.1300439E+00
        -11   -1    0    0    0    0  0.00000000000E+00  0.00000000000E+00  0.45593999997E+02  0.45594000000E+02  0.51100000000E-03 0.  1.
         11   -1    0    0    0    0 -0.00000000000E+00 -0.00000000000E+00 -0.45593999997E+02  0.45594000000E+02  0.51100000000E-03 0. -1.
    9900012    2    1    2    0    0  0.33709027847E+02 -0.22676349727E+01 -0.22621341319E+02  0.50528858226E+02  0.29999995063E+02 0.  0.
        -12    1    1    2    0    0 -0.33709027847E+02  0.22676349727E+01  0.22621341319E+02  0.40659141774E+02  0.00000000000E+00 0.  1.
         11    1    3    3    0    0  0.15880763734E+02 -0.59407667135E+01 -0.13182930001E+02  0.21477453518E+02  0.51100000000E-03 0. -1.
        -11    1    3    3    0    0  0.81595524133E+01 -0.31104675996E+01 -0.13908679195E+02  0.16422687401E+02  0.51100000000E-03 0.  1.
        -12    1    3    3    0    0  0.96687116989E+01  0.67835993405E+01  0.44702678765E+01  0.12628717307E+02  0.00000000000E+00 0.  1.
</event>
<event>
 7    1  0.2903212E-011  0.5052886E+02  0.7816164E-02  0.1300439E+00
        -11   -1    0    0    0    0  0.00000000000E+00  0.00000000000E+00  0.45593999997E+02  0.45594000000E+02  0.51100000000E-03 0. -1.
         11   -1    0    0    0    0 -0.00000000000E+00 -0.00000000000E+00 -0.45593999997E+02  0.45594000000E+02  0.51100000000E-03 0.  1.
    9900012    2    1    2    0    0 -0.84884761400E+01 -0.38933883262E+02 -0.80786451458E+01  0.50528855882E+02  0.29999987938E+02 0.  0.
        -12    1    1    2    0    0  0.84884761400E+01  0.38933883262E+02  0.80786451458E+01  0.40659144118E+02  0.00000000000E+00 0.  1.
         11    1    3    3    0    0 -0.69750475284E+01 -0.24748210706E+02  0.38628644055E+01  0.26000902732E+02  0.51100000000E-03 0. -1.
        -11    1    3    3    0    0 -0.42500385858E+01 -0.12037177251E+02 -0.72698877545E+00  0.12786124397E+02  0.51100000000E-03 0.  1.
        -12    1    3    3    0    0  0.27366099741E+01 -0.21484953042E+01 -0.11214520776E+02  0.11741828752E+02  0.00000000000E+00 0.  1.
</event>
<event>
 7    1  0.2903212E-011  0.5052886E+02  0.7816164E-02  0.1300439E+00
        -11   -1    0    0    0    0  0.00000000000E+00  0.00000000000E+00  0.45593999997E+02  0.45594000000E+02  0.51100000000E-03 0. -1.
         11   -1    0    0    0    0 -0.00000000000E+00 -0.00000000000E+00 -0.45593999997E+02  0.45594000000E+02  0.51100000000E-03 0.  1.
    9900012    2    1    2    0    0 -0.22374514751E+02  0.32613037841E+02  0.94306176001E+01  0.50528859627E+02  0.29999999322E+02 0.  0.
        -12    1    1    2    0    0  0.22374514751E+02 -0.32613037841E+02 -0.94306176001E+01  0.40659140373E+02  0.00000000000E+00 0.  1.
         11    1    3    3    0    0 -0.45256156251E+00 -0.22038161989E+01  0.41519240030E+01  0.47222972157E+01  0.51100000000E-03 0. -1.
        -11    1    3    3    0    0 -0.10838319264E+02  0.22857997933E+01  0.30309829079E+00  0.11080880560E+02  0.51100000000E-03 0.  1.
         12    1    3    3    0    0 -0.11083633925E+02  0.32531054246E+02  0.49755953063E+01  0.34725681851E+02  0.00000000000E+00 0. -1.
</event>
<event>
 7    1  0.2903212E-011  0.5052896E+02  0.7816164E-02  0.1300438E+00
        -11   -1    0    0    0    0  0.00000000000E+00  0.00000000000E+00  0.45593999997E+02  0.45594000000E+02  0.51100000000E-03 0.  1.
         11   -1    0    0    0    0 -0.00000000000E+00 -0.00000000000E+00 -0.45593999997E+02  0.45594000000E+02  0.51100000000E-03 0. -1.
    9900012    2    1    2    0    0  0.15445084599E+02  0.36216046148E+02 -0.10149145882E+02  0.50528956737E+02  0.30000294497E+02 0.  0.
        -12    1    1    2    0    0 -0.15445084599E+02 -0.36216046148E+02  0.10149145882E+02  0.40659043263E+02  0.00000000000E+00 0.  1.
         11    1    3    3    0    0 -0.31993209059E+01 -0.19280466219E+00 -0.32480065685E+01  0.45631540437E+01  0.51100000000E-03 0. -1.
        -11    1    3    3    0    0 -0.41811131333E+01  0.44048599143E+01 -0.11362427447E+00  0.60743237183E+01  0.51100000000E-03 0.  1.
         12    1    3    3    0    0  0.22825518639E+02  0.32003990896E+02 -0.67875150393E+01  0.39891478975E+02  0.00000000000E+00 0. -1.
</event>
<event>
 7    1  0.2903212E-011  0.5052886E+02  0.7816164E-02  0.1300439E+00
        -11   -1    0    0    0    0  0.00000000000E+00  0.00000000000E+00  0.45593999997E+02  0.45594000000E+02  0.51100000000E-03 0.  1.
         11   -1    0    0    0    0 -0.00000000000E+00 -0.00000000000E+00 -0.45593999997E+02  0.45594000000E+02  0.51100000000E-03 0. -1.
    9900012    2    1    2    0    0 -0.66740123487E+01 -0.27551278703E+02 -0.29147046865E+02  0.50528859085E+02  0.29999997673E+02 0.  0.
        -12    1    1    2    0    0  0.66740123487E+01  0.27551278703E+02  0.29147046865E+02  0.40659140915E+02  0.00000000000E+00 0.  1.
         11    1    3    3    0    0  0.56412202883E+00  0.11517940803E+00  0.11687065744E+01  0.13028335572E+01  0.51100000000E-03 0. -1.
        -11    1    3    3    0    0 -0.19640837330E+01  0.50829436107E+01 -0.59445416041E+01  0.80642120386E+01  0.51100000000E-03 0.  1.
         12    1    3    3    0    0 -0.52740506445E+01 -0.32749401722E+02 -0.24371211836E+02  0.41161813489E+02  0.00000000000E+00 0. -1.
</event>
<event>
 7    1  0.2903212E-011  0.5052886E+02  0.7816164E-02  0.1300439E+00
        -11   -1    0    0    0    0  0.00000000000E+00  0.00000000000E+00  0.45593999997E+02  0.45594000000E+02  0.51100000000E-03 0.  1.
         11   -1    0    0    0    0 -0.00000000000E+00 -0.00000000000E+00 -0.45593999997E+02  0.45594000000E+02  0.51100000000E-03 0. -1.
    9900012    2    1    2    0    0  0.82909505000E+01  0.15490412152E+02 -0.36667050026E+02  0.50528864662E+02  0.30000014627E+02 0.  0.
        -12    1    1    2    0    0 -0.82909505000E+01 -0.15490412152E+02  0.36667050026E+02  0.40659135338E+02  0.00000000000E+00 0.  1.
         11    1    3    3    0    0  0.68232882817E+00  0.65044309725E+01 -0.56445053943E+00  0.65644344447E+01  0.51100000000E-03 0. -1.
        -11    1    3    3    0    0 -0.25565249600E+00 -0.58862074142E+01 -0.25290122428E+01  0.64116065933E+01  0.51100000000E-03 0.  1.
        -12    1    3    3    0    0  0.78642741678E+01  0.14872188594E+02 -0.33573587243E+02  0.37552823624E+02  0.00000000000E+00 0.  1.
</event>
<event>
 7    1  0.2903212E-011  0.5052890E+02  0.7816164E-02  0.1300439E+00
        -11   -1    0    0    0    0  0.00000000000E+00  0.00000000000E+00  0.45593999997E+02  0.45594000000E+02  0.51100000000E-03 0.  1.
         11   -1    0    0    0    0 -0.00000000000E+00 -0.00000000000E+00 -0.45593999997E+02  0.45594000000E+02  0.51100000000E-03 0. -1.
    9900012    2    1    2    0    0 -0.44377085088E+01 -0.29486993069E+02 -0.27640302437E+02  0.50528900946E+02  0.30000124915E+02 0.  0.
        -12    1    1    2    0    0  0.44377085088E+01  0.29486993069E+02  0.27640302437E+02  0.40659099054E+02  0.00000000000E+00 0.  1.
         11    1    3    3    0    0 -0.58403620155E+01 -0.95659133671E+00 -0.83470366314E+01  0.10232199971E+02  0.51100000000E-03 0. -1.
        -11    1    3    3    0    0 -0.86653531611E+01 -0.57976168481E+01 -0.44132126765E+01  0.11321534919E+02  0.51100000000E-03 0.  1.
         12    1    3    3    0    0  0.10068006668E+02 -0.22732784884E+02 -0.14880053129E+02  0.28975166056E+02  0.00000000000E+00 0. -1.
</event>
<event>
 7    1  0.2903212E-011  0.5052886E+02  0.7816164E-02  0.1300439E+00
        -11   -1    0    0    0    0  0.00000000000E+00  0.00000000000E+00  0.45593999997E+02  0.45594000000E+02  0.51100000000E-03 0.  1.
         11   -1    0    0    0    0 -0.00000000000E+00 -0.00000000000E+00 -0.45593999997E+02  0.45594000000E+02  0.51100000000E-03 0. -1.
    9900012    2    1    2    0    0  0.28905422171E+02  0.28594418910E+02 -0.35650068284E-01  0.50528862102E+02  0.30000006846E+02 0.  0.
        -12    1    1    2    0    0 -0.28905422171E+02 -0.28594418910E+02  0.35650068284E-01  0.40659137898E+02  0.00000000000E+00 0.  1.
         11    1    3    3    0    0  0.59432777654E+01  0.73544357207E+01 -0.19064983366E+01  0.96459842180E+01  0.51100000000E-03 0. -1.
        -11    1    3    3    0    0  0.24705192371E+02  0.25736791616E+02  0.33656266797E+01  0.35833732933E+02  0.51100000000E-03 0.  1.
        -12    1    3    3    0    0 -0.17430479650E+01 -0.44968084268E+01 -0.14947784114E+01  0.50491449508E+01  0.00000000000E+00 0.  1.
</event>
<event>
 7    1  0.2903212E-011  0.5052886E+02  0.7816164E-02  0.1300439E+00
        -11   -1    0    0    0    0  0.00000000000E+00  0.00000000000E+00  0.45593999997E+02  0.45594000000E+02  0.51100000000E-03 0.  1.
         11   -1    0    0    0    0 -0.00000000000E+00 -0.00000000000E+00 -0.45593999997E+02  0.45594000000E+02  0.51100000000E-03 0. -1.
    9900012    2    1    2    0    0 -0.73511750372E+01  0.18076140418E+02 -0.35670422447E+02  0.50528860014E+02  0.30000000498E+02 0.  0.
        -12    1    1    2    0    0  0.73511750372E+01 -0.18076140418E+02  0.35670422447E+02  0.40659139986E+02  0.00000000000E+00 0.  1.
         11    1    3    3    0    0 -0.53558758453E+01 -0.78594028689E+00 -0.82629256349E+01  0.98782107951E+01  0.51100000000E-03 0. -1.
        -11    1    3    3    0    0 -0.12565604483E+02  0.82322194283E+01 -0.14209528860E+02  0.20677876182E+02  0.51100000000E-03 0.  1.
         12    1    3    3    0    0  0.10570305291E+02  0.10629861277E+02 -0.13197967952E+02  0.19972773037E+02  0.00000000000E+00 0. -1.
</event>
<event>
 7    1  0.2903212E-011  0.5052886E+02  0.7816164E-02  0.1300439E+00
        -11   -1    0    0    0    0  0.00000000000E+00  0.00000000000E+00  0.45593999997E+02  0.45594000000E+02  0.51100000000E-03 0.  1.
         11   -1    0    0    0    0 -0.00000000000E+00 -0.00000000000E+00 -0.45593999997E+02  0.45594000000E+02  0.51100000000E-03 0. -1.
    9900012    2    1    2    0    0 -0.15205485322E+02  0.29866661220E+02 -0.23020457649E+02  0.50528859494E+02  0.29999998919E+02 0.  0.
        -12    1    1    2    0    0  0.15205485322E+02 -0.29866661220E+02  0.23020457649E+02  0.40659140506E+02  0.00000000000E+00 0.  1.
         11    1    3    3    0    0 -0.26112154723E+01  0.11613315514E+02  0.24008207818E+00  0.11905678609E+02  0.51100000000E-03 0. -1.
        -11    1    3    3    0    0 -0.78726292970E+00  0.13756033209E+02 -0.20436135658E+01  0.13929270952E+02  0.51100000000E-03 0.  1.
         12    1    3    3    0    0 -0.11807006919E+02  0.44973124970E+01 -0.21216926161E+02  0.24693909934E+02  0.00000000000E+00 0. -1.
</event>
<event>
 7    1  0.2903212E-011  0.5052884E+02  0.7816164E-02  0.1300439E+00
        -11   -1    0    0    0    0  0.00000000000E+00  0.00000000000E+00  0.45593999997E+02  0.45594000000E+02  0.51100000000E-03 0.  1.
         11   -1    0    0    0    0 -0.00000000000E+00 -0.00000000000E+00 -0.45593999997E+02  0.45594000000E+02  0.51100000000E-03 0. -1.
    9900012    2    1    2    0    0  0.12909573406E+02  0.33279626912E+02 -0.19467322532E+02  0.50528839907E+02  0.29999939380E+02 0.  0.
        -12    1    1    2    0    0 -0.12909573406E+02 -0.33279626912E+02  0.19467322532E+02  0.40659160093E+02  0.00000000000E+00 0.  1.
         11    1    3    3    0    0 -0.45716467197E+01  0.46280166933E+01 -0.24018238929E+01  0.69344971351E+01  0.51100000000E-03 0. -1.
        -11    1    3    3    0    0 -0.12314731303E+01 -0.20866031278E+01  0.17474668371E+01  0.29873197505E+01  0.51100000000E-03 0.  1.
         12    1    3    3    0    0  0.18712693256E+02  0.30738213347E+02 -0.18812965476E+02  0.40607023021E+02  0.00000000000E+00 0. -1.
</event>
<event>
 7    1  0.2903212E-011  0.5052885E+02  0.7816164E-02  0.1300439E+00
        -11   -1    0    0    0    0  0.00000000000E+00  0.00000000000E+00  0.45593999997E+02  0.45594000000E+02  0.51100000000E-03 0. -1.
         11   -1    0    0    0    0 -0.00000000000E+00 -0.00000000000E+00 -0.45593999997E+02  0.45594000000E+02  0.51100000000E-03 0.  1.
    9900012    2    1    2    0    0 -0.17700115498E+01  0.23991977881E+02  0.32778327986E+02  0.50528846921E+02  0.29999960702E+02 0.  0.
        -12    1    1    2    0    0  0.17700115498E+01 -0.23991977881E+02 -0.32778327986E+02  0.40659153079E+02  0.00000000000E+00 0.  1.
         11    1    3    3    0    0 -0.93831088905E+01  0.13286910386E+02  0.16468328983E+02  0.23147150577E+02  0.51100000000E-03 0. -1.
        -11    1    3    3    0    0  0.28608933187E+01  0.38407553961E+01 -0.34685409814E+01  0.59132807641E+01  0.51100000000E-03 0.  1.
         12    1    3    3    0    0  0.47522040220E+01  0.68643120989E+01  0.19778539984E+02  0.21468415581E+02  0.00000000000E+00 0. -1.
</event>
<event>
 7    1  0.2903212E-011  0.5052883E+02  0.7816164E-02  0.1300439E+00
        -11   -1    0    0    0    0  0.00000000000E+00  0.00000000000E+00  0.45593999997E+02  0.45594000000E+02  0.51100000000E-03 0.  1.
         11   -1    0    0    0    0 -0.00000000000E+00 -0.00000000000E+00 -0.45593999997E+02  0.45594000000E+02  0.51100000000E-03 0. -1.
    9900012    2    1    2    0    0  0.30033843907E+02  0.25959965692E+02  0.87872839805E+01  0.50528831805E+02  0.29999914754E+02 0.  0.
        -12    1    1    2    0    0 -0.30033843907E+02 -0.25959965692E+02 -0.87872839805E+01  0.40659168195E+02  0.00000000000E+00 0.  1.
         11    1    3    3    0    0  0.71321942142E+01 -0.36531134027E+01  0.57731420907E+01  0.98763658145E+01  0.51100000000E-03 0.  1.
        -11    1    3    3    0    0 -0.15419493932E+01  0.52185478672E+01 -0.19149073068E+01  0.57686844279E+01  0.51100000000E-03 0. -1.
        -12    1    3    3    0    0  0.24443599086E+02  0.24394531228E+02  0.49290491966E+01  0.34883781562E+02  0.00000000000E+00 0.  1.
</event>
<event>
 7    1  0.2903212E-011  0.5052886E+02  0.7816164E-02  0.1300439E+00
        -11   -1    0    0    0    0  0.00000000000E+00  0.00000000000E+00  0.45593999997E+02  0.45594000000E+02  0.51100000000E-03 0.  1.
         11   -1    0    0    0    0 -0.00000000000E+00 -0.00000000000E+00 -0.45593999997E+02  0.45594000000E+02  0.51100000000E-03 0. -1.
    9900012    2    1    2    0    0 -0.14615914114E+02 -0.31190229065E+02 -0.21603485365E+02  0.50528856939E+02  0.29999991153E+02 0.  0.
        -12    1    1    2    0    0  0.14615914114E+02  0.31190229065E+02  0.21603485365E+02  0.40659143061E+02  0.00000000000E+00 0.  1.
         11    1    3    3    0    0  0.20524324384E+01 -0.10927213162E+02 -0.37578263769E+01  0.11736171682E+02  0.51100000000E-03 0. -1.
        -11    1    3    3    0    0 -0.16541484506E+02 -0.22936711924E+02 -0.91936994153E+01  0.29736132445E+02  0.51100000000E-03 0.  1.
        -12    1    3    3    0    0 -0.12686204572E+00  0.26736960215E+01 -0.86519595728E+01  0.90565528124E+01  0.00000000000E+00 0.  1.
</event>
<event>
 7    1  0.2903212E-011  0.5052887E+02  0.7816164E-02  0.1300439E+00
        -11   -1    0    0    0    0  0.00000000000E+00  0.00000000000E+00  0.45593999997E+02  0.45594000000E+02  0.51100000000E-03 0. -1.
         11   -1    0    0    0    0 -0.00000000000E+00 -0.00000000000E+00 -0.45593999997E+02  0.45594000000E+02  0.51100000000E-03 0.  1.
    9900012    2    1    2    0    0  0.18768691899E+02 -0.34179842130E+02 -0.11516923400E+02  0.50528869067E+02  0.30000028015E+02 0.  0.
        -12    1    1    2    0    0 -0.18768691899E+02  0.34179842130E+02  0.11516923400E+02  0.40659130933E+02  0.00000000000E+00 0.  1.
         11    1    3    3    0    0  0.11318230621E+02 -0.11254531782E+02 -0.11816064645E+02  0.19859159448E+02  0.51100000000E-03 0. -1.
        -11    1    3    3    0    0  0.36964158111E+01 -0.99697524469E+01 -0.92903572878E+01  0.14119851008E+02  0.51100000000E-03 0.  1.
         12    1    3    3    0    0  0.37540454674E+01 -0.12955557902E+02  0.95894985331E+01  0.16549858610E+02  0.00000000000E+00 0. -1.
</event>
<event>
 7    1  0.2903212E-011  0.5052887E+02  0.7816164E-02  0.1300439E+00
        -11   -1    0    0    0    0  0.00000000000E+00  0.00000000000E+00  0.45593999997E+02  0.45594000000E+02  0.51100000000E-03 0. -1.
         11   -1    0    0    0    0 -0.00000000000E+00 -0.00000000000E+00 -0.45593999997E+02  0.45594000000E+02  0.51100000000E-03 0.  1.
    9900012    2    1    2    0    0  0.20860381726E+01 -0.23035882260E+02  0.33438917460E+02  0.50528872764E+02  0.30000039252E+02 0.  0.
        -12    1    1    2    0    0 -0.20860381726E+01  0.23035882260E+02 -0.33438917460E+02  0.40659127236E+02  0.00000000000E+00 0.  1.
         11    1    3    3    0    0 -0.18460310933E+01 -0.19485264085E+01  0.93386772108E+01  0.97167627464E+01  0.51100000000E-03 0. -1.
        -11    1    3    3    0    0  0.86009360267E+01  0.27585859551E+00  0.14649105827E+02  0.16989658628E+02  0.51100000000E-03 0.  1.
        -12    1    3    3    0    0 -0.46688667608E+01 -0.21363214447E+02  0.94511344218E+01  0.23822451389E+02  0.00000000000E+00 0.  1.
</event>
<event>
 7    1  0.2903212E-011  0.5052885E+02  0.7816164E-02  0.1300439E+00
        -11   -1    0    0    0    0  0.00000000000E+00  0.00000000000E+00  0.45593999997E+02  0.45594000000E+02  0.51100000000E-03 0. -1.
         11   -1    0    0    0    0 -0.00000000000E+00 -0.00000000000E+00 -0.45593999997E+02  0.45594000000E+02  0.51100000000E-03 0.  1.
    9900012    2    1    2    0    0 -0.23876068040E+02  0.21976594971E+02  0.24497529185E+02  0.50528852349E+02  0.29999977199E+02 0.  0.
        -12    1    1    2    0    0  0.23876068040E+02 -0.21976594971E+02 -0.24497529185E+02  0.40659147651E+02  0.00000000000E+00 0.  1.
         11    1    3    3    0    0 -0.89166876801E+01 -0.57497580000E+00  0.91106659465E+01  0.12760961978E+02  0.51100000000E-03 0. -1.
        -11    1    3    3    0    0 -0.86218491985E+01 -0.86075269203E+00 -0.65264809199E+00  0.86892536268E+01  0.51100000000E-03 0.  1.
         12    1    3    3    0    0 -0.63375311613E+01  0.23412323463E+02  0.16039511331E+02  0.29078636744E+02  0.00000000000E+00 0. -1.
</event>
<event>
 7    1  0.2903212E-011  0.5052884E+02  0.7816164E-02  0.1300439E+00
        -11   -1    0    0    0    0  0.00000000000E+00  0.00000000000E+00  0.45593999997E+02  0.45594000000E+02  0.51100000000E-03 0. -1.
         11   -1    0    0    0    0 -0.00000000000E+00 -0.00000000000E+00 -0.45593999997E+02  0.45594000000E+02  0.51100000000E-03 0.  1.
    9900012    2    1    2    0    0  0.39206090494E+02  0.62348250070E+01  0.87850194506E+01  0.50528841850E+02  0.29999945287E+02 0.  0.
        -12    1    1    2    0    0 -0.39206090494E+02 -0.62348250070E+01 -0.87850194506E+01  0.40659158150E+02  0.00000000000E+00 0.  1.
         11    1    3    3    0    0  0.12486130670E+02  0.83546087592E+01  0.97924590136E+01  0.17933075598E+02  0.51100000000E-03 0. -1.
        -11    1    3    3    0    0 -0.18575951369E+01  0.19679108647E+01 -0.25062719551E+01  0.36884593312E+01  0.51100000000E-03 0.  1.
        -12    1    3    3    0    0  0.28577554961E+02 -0.40876946169E+01  0.14988323921E+01  0.28907306920E+02  0.00000000000E+00 0.  1.
</event>
<event>
 7    1  0.2903212E-011  0.5052887E+02  0.7816164E-02  0.1300439E+00
        -11   -1    0    0    0    0  0.00000000000E+00  0.00000000000E+00  0.45593999997E+02  0.45594000000E+02  0.51100000000E-03 0.  1.
         11   -1    0    0    0    0 -0.00000000000E+00 -0.00000000000E+00 -0.45593999997E+02  0.45594000000E+02  0.51100000000E-03 0. -1.
    9900012    2    1    2    0    0  0.10556938882E+02  0.39261994206E+02  0.46052801034E+00  0.50528865312E+02  0.30000016601E+02 0.  0.
        -12    1    1    2    0    0 -0.10556938882E+02 -0.39261994206E+02 -0.46052801034E+00  0.40659134688E+02  0.00000000000E+00 0.  1.
         11    1    3    3    0    0  0.11457261438E+02  0.16013636089E+02  0.16350287186E+01  0.19758003432E+02  0.51100000000E-03 0. -1.
        -11    1    3    3    0    0  0.60822989927E+01  0.95504788064E+01  0.70461335793E+01  0.13336191553E+02  0.51100000000E-03 0.  1.
        -12    1    3    3    0    0 -0.69826215489E+01  0.13697879310E+02 -0.82206342875E+01  0.17434670326E+02  0.00000000000E+00 0.  1.
</event>
<event>
 7    1  0.2903212E-011  0.5052886E+02  0.7816164E-02  0.1300439E+00
        -11   -1    0    0    0    0  0.00000000000E+00  0.00000000000E+00  0.45593999997E+02  0.45594000000E+02  0.51100000000E-03 0.  1.
         11   -1    0    0    0    0 -0.00000000000E+00 -0.00000000000E+00 -0.45593999997E+02  0.45594000000E+02  0.51100000000E-03 0. -1.
    9900012    2    1    2    0    0  0.26166665143E+02 -0.12915708839E+02 -0.28313533020E+02  0.50528855253E+02  0.29999986026E+02 0.  0.
        -12    1    1    2    0    0 -0.26166665143E+02  0.12915708839E+02  0.28313533020E+02  0.40659144747E+02  0.00000000000E+00 0.  1.
         11    1    3    3    0    0  0.58399371388E+01 -0.95225166452E+01 -0.46813413546E+01  0.12111901014E+02  0.51100000000E-03 0. -1.
        -11    1    3    3    0    0 -0.34496484577E+01 -0.24677292997E+01  0.79602198985E+00  0.43154853317E+01  0.51100000000E-03 0.  1.
        -12    1    3    3    0    0  0.23776376462E+02 -0.92546289426E+00 -0.24428213655E+02  0.34101468907E+02  0.00000000000E+00 0.  1.
</event>
<event>
 7    1  0.2903212E-011  0.5052887E+02  0.7816164E-02  0.1300439E+00
        -11   -1    0    0    0    0  0.00000000000E+00  0.00000000000E+00  0.45593999997E+02  0.45594000000E+02  0.51100000000E-03 0.  1.
         11   -1    0    0    0    0 -0.00000000000E+00 -0.00000000000E+00 -0.45593999997E+02  0.45594000000E+02  0.51100000000E-03 0. -1.
    9900012    2    1    2    0    0  0.35850009056E+02 -0.17757474532E+02 -0.72535358957E+01  0.50528870225E+02  0.30000031536E+02 0.  0.
        -12    1    1    2    0    0 -0.35850009056E+02  0.17757474532E+02  0.72535358957E+01  0.40659129775E+02  0.00000000000E+00 0.  1.
         11    1    3    3    0    0  0.72191549356E+01 -0.14706902542E+02 -0.43167846701E+01  0.16942367323E+02  0.51100000000E-03 0. -1.
        -11    1    3    3    0    0 -0.12788730780E+01 -0.25456301761E+01 -0.23071612917E+01  0.36658890914E+01  0.51100000000E-03 0.  1.
         12    1    3    3    0    0  0.29909727198E+02 -0.50494181424E+00 -0.62958993386E+00  0.29920613811E+02  0.00000000000E+00 0. -1.
</event>
<event>
 7    1  0.2903212E-011  0.5052886E+02  0.7816164E-02  0.1300439E+00
        -11   -1    0    0    0    0  0.00000000000E+00  0.00000000000E+00  0.45593999997E+02  0.45594000000E+02  0.51100000000E-03 0. -1.
         11   -1    0    0    0    0 -0.00000000000E+00 -0.00000000000E+00 -0.45593999997E+02  0.45594000000E+02  0.51100000000E-03 0.  1.
    9900012    2    1    2    0    0  0.49212865013E+01 -0.39788024190E+02  0.67719674199E+01  0.50528862374E+02  0.30000007671E+02 0.  0.
        -12    1    1    2    0    0 -0.49212865013E+01  0.39788024190E+02 -0.67719674199E+01  0.40659137626E+02  0.00000000000E+00 0.  1.
         11    1    3    3    0    0 -0.37442592300E+01 -0.58787263910E+01  0.86899205658E+00  0.70238200871E+01  0.51100000000E-03 0. -1.
        -11    1    3    3    0    0 -0.16684216413E+01 -0.28644032275E+01  0.99951230249E+01  0.10530475828E+02  0.51100000000E-03 0.  1.
        -12    1    3    3    0    0  0.10333967373E+02 -0.31044894572E+02 -0.40921476616E+01  0.32974566458E+02  0.00000000000E+00 0.  1.
</event>
<event>
 7    1  0.2903212E-011  0.5052887E+02  0.7816164E-02  0.1300439E+00
        -11   -1    0    0    0    0  0.00000000000E+00  0.00000000000E+00  0.45593999997E+02  0.45594000000E+02  0.51100000000E-03 0. -1.
         11   -1    0    0    0    0 -0.00000000000E+00 -0.00000000000E+00 -0.45593999997E+02  0.45594000000E+02  0.51100000000E-03 0.  1.
    9900012    2    1    2    0    0 -0.26760801337E+02  0.29987311711E+02 -0.61470090003E+01  0.50528867305E+02  0.30000022661E+02 0.  0.
        -12    1    1    2    0    0  0.26760801337E+02 -0.29987311711E+02  0.61470090003E+01  0.40659132695E+02  0.00000000000E+00 0.  1.
         11    1    3    3    0    0 -0.13309137070E+02  0.81399691421E+01  0.14246459851E+01  0.15665945347E+02  0.51100000000E-03 0. -1.
        -11    1    3    3    0    0 -0.96337349744E+01 -0.20222354092E+01 -0.26473309911E+01  0.10193461004E+02  0.51100000000E-03 0.  1.
        -12    1    3    3    0    0 -0.38179292926E+01  0.23869577978E+02 -0.49243239943E+01  0.24669460954E+02  0.00000000000E+00 0.  1.
</event>
<event>
 7    1  0.2903212E-011  0.5052886E+02  0.7816164E-02  0.1300439E+00
        -11   -1    0    0    0    0  0.00000000000E+00  0.00000000000E+00  0.45593999997E+02  0.45594000000E+02  0.51100000000E-03 0.  1.
         11   -1    0    0    0    0 -0.00000000000E+00 -0.00000000000E+00 -0.45593999997E+02  0.45594000000E+02  0.51100000000E-03 0. -1.
    9900012    2    1    2    0    0  0.26350953044E+02 -0.24614389786E+02  0.18786292210E+02  0.50528859750E+02  0.29999999696E+02 0.  0.
        -12    1    1    2    0    0 -0.26350953044E+02  0.24614389786E+02 -0.18786292210E+02  0.40659140250E+02  0.00000000000E+00 0.  1.
         11    1    3    3    0    0  0.47465657327E+00 -0.10160733546E+01  0.11725270045E+02  0.11778780150E+02  0.51100000000E-03 0.  1.
        -11    1    3    3    0    0  0.43119893106E+01  0.16027628133E+01  0.25981199098E+01  0.52832118808E+01  0.51100000000E-03 0. -1.
         12    1    3    3    0    0  0.21564307160E+02 -0.25201079245E+02  0.44629022549E+01  0.33466867719E+02  0.00000000000E+00 0. -1.
</event>
<event>
 7    1  0.2903212E-011  0.5052886E+02  0.7816164E-02  0.1300439E+00
        -11   -1    0    0    0    0  0.00000000000E+00  0.00000000000E+00  0.45593999997E+02  0.45594000000E+02  0.51100000000E-03 0.  1.
         11   -1    0    0    0    0 -0.00000000000E+00 -0.00000000000E+00 -0.45593999997E+02  0.45594000000E+02  0.51100000000E-03 0. -1.
    9900012    2    1    2    0    0  0.25780613210E+02 -0.30101397124E+02 -0.90791828239E+01  0.50528859735E+02  0.29999999652E+02 0.  0.
        -12    1    1    2    0    0 -0.25780613210E+02  0.30101397124E+02  0.90791828239E+01  0.40659140265E+02  0.00000000000E+00 0.  1.
         11    1    3    3    0    0  0.18240658613E+02 -0.17194142232E+02  0.34308998993E+01  0.25300814771E+02  0.51100000000E-03 0.  1.
        -11    1    3    3    0    0  0.96226582796E+01 -0.40032037192E+01 -0.91677939082E+00  0.10462393469E+02  0.51100000000E-03 0. -1.
        -12    1    3    3    0    0 -0.20827036822E+01 -0.89040511730E+01 -0.11593303332E+02  0.14765651495E+02  0.00000000000E+00 0.  1.
</event>
<event>
 7    1  0.2903212E-011  0.5052886E+02  0.7816164E-02  0.1300439E+00
        -11   -1    0    0    0    0  0.00000000000E+00  0.00000000000E+00  0.45593999997E+02  0.45594000000E+02  0.51100000000E-03 0. -1.
         11   -1    0    0    0    0 -0.00000000000E+00 -0.00000000000E+00 -0.45593999997E+02  0.45594000000E+02  0.51100000000E-03 0.  1.
    9900012    2    1    2    0    0  0.19424364069E+02  0.22699349448E+02  0.27578967288E+02  0.50528858082E+02  0.29999994626E+02 0.  0.
        -12    1    1    2    0    0 -0.19424364069E+02 -0.22699349448E+02 -0.27578967288E+02  0.40659141918E+02  0.00000000000E+00 0.  1.
         11    1    3    3    0    0  0.31912928807E+00  0.61949791650E+01 -0.13854211299E+01  0.63560209507E+01  0.51100000000E-03 0. -1.
        -11    1    3    3    0    0  0.23381261287E+01  0.42112864362E+01  0.21577801012E+02  0.22108895586E+02  0.51100000000E-03 0.  1.
         12    1    3    3    0    0  0.16767108653E+02  0.12293083847E+02  0.73865874053E+01  0.22063941546E+02  0.00000000000E+00 0. -1.
</event>
<event>
 7    1  0.2903212E-011  0.5052885E+02  0.7816164E-02  0.1300439E+00
        -11   -1    0    0    0    0  0.00000000000E+00  0.00000000000E+00  0.45593999997E+02  0.45594000000E+02  0.51100000000E-03 0. -1.
         11   -1    0    0    0    0 -0.00000000000E+00 -0.00000000000E+00 -0.45593999997E+02  0.45594000000E+02  0.51100000000E-03 0.  1.
    9900012    2    1    2    0    0  0.32735777923E+02  0.17158994679E+02 -0.16944141077E+02  0.50528853779E+02  0.29999981547E+02 0.  0.
        -12    1    1    2    0    0 -0.32735777923E+02 -0.17158994679E+02  0.16944141077E+02  0.40659146221E+02  0.00000000000E+00 0.  1.
         11    1    3    3    0    0  0.25645624874E+02  0.20461684701E+02 -0.66515312530E+01  0.33475684971E+02  0.51100000000E-03 0. -1.
        -11    1    3    3    0    0  0.19776582821E-01  0.12623828588E+01 -0.83118056482E+01  0.84071466617E+01  0.51100000000E-03 0.  1.
        -12    1    3    3    0    0  0.70703764658E+01 -0.45650728811E+01 -0.19808041755E+01  0.86460221466E+01  0.00000000000E+00 0.  1.
</event>
<event>
 7    1  0.2903212E-011  0.5052886E+02  0.7816164E-02  0.1300439E+00
        -11   -1    0    0    0    0  0.00000000000E+00  0.00000000000E+00  0.45593999997E+02  0.45594000000E+02  0.51100000000E-03 0.  1.
         11   -1    0    0    0    0 -0.00000000000E+00 -0.00000000000E+00 -0.45593999997E+02  0.45594000000E+02  0.51100000000E-03 0. -1.
    9900012    2    1    2    0    0 -0.14056593891E+01  0.39031217666E+02 -0.11302806723E+02  0.50528864856E+02  0.30000015217E+02 0.  0.
        -12    1    1    2    0    0  0.14056593891E+01 -0.39031217666E+02  0.11302806723E+02  0.40659135144E+02  0.00000000000E+00 0.  1.
         11    1    3    3    0    0  0.49489008509E+01  0.51822551705E+01 -0.34964900370E+01  0.79732572469E+01  0.51100000000E-03 0. -1.
        -11    1    3    3    0    0  0.82132567946E+01  0.70088040399E+01 -0.49676105948E+01  0.11885204101E+02  0.51100000000E-03 0.  1.
        -12    1    3    3    0    0 -0.14567817035E+02  0.26840158456E+02 -0.28387060910E+01  0.30670403508E+02  0.00000000000E+00 0.  1.
</event>
<event>
 7    1  0.2903212E-011  0.5052878E+02  0.7816164E-02  0.1300439E+00
        -11   -1    0    0    0    0  0.00000000000E+00  0.00000000000E+00  0.45593999997E+02  0.45594000000E+02  0.51100000000E-03 0. -1.
         11   -1    0    0    0    0 -0.00000000000E+00 -0.00000000000E+00 -0.45593999997E+02  0.45594000000E+02  0.51100000000E-03 0.  1.
    9900012    2    1    2    0    0 -0.29835936594E+02 -0.87197661606E+01  0.26209815282E+02  0.50528783930E+02  0.29999769232E+02 0.  0.
        -12    1    1    2    0    0  0.29835936594E+02  0.87197661606E+01 -0.26209815282E+02  0.40659216070E+02  0.00000000000E+00 0.  1.
         11    1    3    3    0    0 -0.12503225391E+02  0.10163393333E+01 -0.10035890950E+01  0.12584545369E+02  0.51100000000E-03 0. -1.
        -11    1    3    3    0    0 -0.11764997609E+02 -0.15465274007E+01  0.36986197339E+01  0.12429268037E+02  0.51100000000E-03 0.  1.
         12    1    3    3    0    0 -0.55677135942E+01 -0.81895780933E+01  0.23514784643E+02  0.25514970524E+02  0.00000000000E+00 0. -1.
</event>
<event>
 7    1  0.2903212E-011  0.5052886E+02  0.7816164E-02  0.1300439E+00
        -11   -1    0    0    0    0  0.00000000000E+00  0.00000000000E+00  0.45593999997E+02  0.45594000000E+02  0.51100000000E-03 0.  1.
         11   -1    0    0    0    0 -0.00000000000E+00 -0.00000000000E+00 -0.45593999997E+02  0.45594000000E+02  0.51100000000E-03 0. -1.
    9900012    2    1    2    0    0 -0.10197418509E+02  0.13417430680E+02 -0.37002035597E+02  0.50528862914E+02  0.30000009313E+02 0.  0.
        -12    1    1    2    0    0  0.10197418509E+02 -0.13417430680E+02  0.37002035597E+02  0.40659137086E+02  0.00000000000E+00 0.  1.
         11    1    3    3    0    0  0.56028936427E+01  0.92096100057E+01 -0.47389359151E+01  0.11775688833E+02  0.51100000000E-03 0. -1.
        -11    1    3    3    0    0 -0.46129465103E+01  0.58505882498E+01 -0.43277308245E+01  0.86161425665E+01  0.51100000000E-03 0.  1.
         12    1    3    3    0    0 -0.11187365641E+02 -0.16427675755E+01 -0.27935368857E+02  0.30137031514E+02  0.00000000000E+00 0. -1.
</event>
<event>
 7    1  0.2903212E-011  0.5052884E+02  0.7816164E-02  0.1300439E+00
        -11   -1    0    0    0    0  0.00000000000E+00  0.00000000000E+00  0.45593999997E+02  0.45594000000E+02  0.51100000000E-03 0.  1.
         11   -1    0    0    0    0 -0.00000000000E+00 -0.00000000000E+00 -0.45593999997E+02  0.45594000000E+02  0.51100000000E-03 0. -1.
    9900012    2    1    2    0    0  0.25621119601E+01  0.19237222451E+02 -0.35728591364E+02  0.50528838841E+02  0.29999936141E+02 0.  0.
        -12    1    1    2    0    0 -0.25621119601E+01 -0.19237222451E+02  0.35728591364E+02  0.40659161159E+02  0.00000000000E+00 0.  1.
         11    1    3    3    0    0  0.13253701822E+00  0.11938347838E+02  0.80019178061E+00  0.11965869057E+02  0.51100000000E-03 0.  1.
        -11    1    3    3    0    0  0.46943651688E+01  0.25695968212E+01 -0.84742888749E+01  0.10022647572E+02  0.51100000000E-03 0. -1.
        -12    1    3    3    0    0 -0.22647902270E+01  0.47292777925E+01 -0.28054494269E+02  0.28540322211E+02  0.00000000000E+00 0.  1.
</event>
<event>
 7    1  0.2903212E-011  0.5052886E+02  0.7816164E-02  0.1300439E+00
        -11   -1    0    0    0    0  0.00000000000E+00  0.00000000000E+00  0.45593999997E+02  0.45594000000E+02  0.51100000000E-03 0.  1.
         11   -1    0    0    0    0 -0.00000000000E+00 -0.00000000000E+00 -0.45593999997E+02  0.45594000000E+02  0.51100000000E-03 0. -1.
    9900012    2    1    2    0    0  0.79643186620E+00  0.22575226277E+02 -0.33806669298E+02  0.50528855467E+02  0.29999986678E+02 0.  0.
        -12    1    1    2    0    0 -0.79643186620E+00 -0.22575226277E+02  0.33806669298E+02  0.40659144533E+02  0.00000000000E+00 0.  1.
         11    1    3    3    0    0  0.29077821511E+01  0.92542698122E+01 -0.95988685451E+01  0.13646793924E+02  0.51100000000E-03 0. -1.
        -11    1    3    3    0    0 -0.21202278571E+01  0.19538752944E+02 -0.23483174593E+02  0.30622176964E+02  0.51100000000E-03 0.  1.
        -12    1    3    3    0    0  0.88775721711E-02 -0.62177964799E+01 -0.72462615984E+00  0.62598845794E+01  0.00000000000E+00 0.  1.
</event>
<event>
 7    1  0.2903212E-011  0.5052886E+02  0.7816164E-02  0.1300439E+00
        -11   -1    0    0    0    0  0.00000000000E+00  0.00000000000E+00  0.45593999997E+02  0.45594000000E+02  0.51100000000E-03 0.  1.
         11   -1    0    0    0    0 -0.00000000000E+00 -0.00000000000E+00 -0.45593999997E+02  0.45594000000E+02  0.51100000000E-03 0. -1.
    9900012    2    1    2    0    0  0.93142536726E+01  0.39426651734E+02  0.34568543372E+01  0.50528855514E+02  0.29999986821E+02 0.  0.
        -12    1    1    2    0    0 -0.93142536726E+01 -0.39426651734E+02 -0.34568543372E+01  0.40659144486E+02  0.00000000000E+00 0.  1.
         11    1    3    3    0    0 -0.23337916768E+01  0.14577977664E+02  0.37998884959E+01  0.15244775144E+02  0.51100000000E-03 0.  1.
        -11    1    3    3    0    0 -0.69070767087E+00  0.14242838942E+02 -0.89916719349E+01  0.16857808359E+02  0.51100000000E-03 0. -1.
         12    1    3    3    0    0  0.12338753020E+02  0.10605835128E+02  0.86486377761E+01  0.18426272012E+02  0.00000000000E+00 0. -1.
</event>
<event>
 7    1  0.2903212E-011  0.5052886E+02  0.7816164E-02  0.1300439E+00
        -11   -1    0    0    0    0  0.00000000000E+00  0.00000000000E+00  0.45593999997E+02  0.45594000000E+02  0.51100000000E-03 0.  1.
         11   -1    0    0    0    0 -0.00000000000E+00 -0.00000000000E+00 -0.45593999997E+02  0.45594000000E+02  0.51100000000E-03 0. -1.
    9900012    2    1    2    0    0 -0.36918678562E+02 -0.16528427572E+02  0.41216431879E+01  0.50528859732E+02  0.29999999641E+02 0.  0.
        -12    1    1    2    0    0  0.36918678562E+02  0.16528427572E+02 -0.41216431879E+01  0.40659140268E+02  0.00000000000E+00 0.  1.
         11    1    3    3    0    0 -0.63212410977E+00 -0.71548622840E-01 -0.50461979230E+01  0.50861393841E+01  0.51100000000E-03 0. -1.
        -11    1    3    3    0    0  0.55656549104E+00  0.25752431279E+01 -0.87364638652E+00  0.27757702684E+01  0.51100000000E-03 0.  1.
         12    1    3    3    0    0 -0.36843119943E+02 -0.19032122077E+02  0.10041487497E+02  0.42666950079E+02  0.00000000000E+00 0. -1.
</event>
<event>
 7    1  0.2903212E-011  0.5052885E+02  0.7816164E-02  0.1300439E+00
        -11   -1    0    0    0    0  0.00000000000E+00  0.00000000000E+00  0.45593999997E+02  0.45594000000E+02  0.51100000000E-03 0.  1.
         11   -1    0    0    0    0 -0.00000000000E+00 -0.00000000000E+00 -0.45593999997E+02  0.45594000000E+02  0.51100000000E-03 0. -1.
    9900012    2    1    2    0    0  0.21042484766E+02 -0.26889186041E+02 -0.22076045386E+02  0.50528852555E+02  0.29999977826E+02 0.  0.
        -12    1    1    2    0    0 -0.21042484766E+02  0.26889186041E+02  0.22076045386E+02  0.40659147445E+02  0.00000000000E+00 0.  1.
         11    1    3    3    0    0  0.74552193286E+01 -0.21693314857E+02 -0.19547923932E+02  0.30138041327E+02  0.51100000000E-03 0. -1.
        -11    1    3    3    0    0  0.67847046395E+01 -0.47972071349E+01 -0.80883114128E+01  0.11595955981E+02  0.51100000000E-03 0.  1.
        -12    1    3    3    0    0  0.68025607980E+01 -0.39866404881E+00  0.55601899588E+01  0.87948552468E+01  0.00000000000E+00 0.  1.
</event>
<event>
 7    1  0.2903212E-011  0.5052885E+02  0.7816164E-02  0.1300439E+00
        -11   -1    0    0    0    0  0.00000000000E+00  0.00000000000E+00  0.45593999997E+02  0.45594000000E+02  0.51100000000E-03 0.  1.
         11   -1    0    0    0    0 -0.00000000000E+00 -0.00000000000E+00 -0.45593999997E+02  0.45594000000E+02  0.51100000000E-03 0. -1.
    9900012    2    1    2    0    0 -0.33405532100E+02 -0.19375904708E+02 -0.12720489809E+02  0.50528854422E+02  0.29999983500E+02 0.  0.
        -12    1    1    2    0    0  0.33405532100E+02  0.19375904708E+02  0.12720489809E+02  0.40659145578E+02  0.00000000000E+00 0.  1.
         11    1    3    3    0    0 -0.90431050768E+01 -0.23894111213E+00 -0.88798162597E+01  0.12676197354E+02  0.51100000000E-03 0. -1.
        -11    1    3    3    0    0 -0.18212920399E+02 -0.80608107722E+00 -0.31834374840E+01  0.18506607216E+02  0.51100000000E-03 0.  1.
        -12    1    3    3    0    0 -0.61495066246E+01 -0.18330882519E+02 -0.65723606575E+00  0.19346049852E+02  0.00000000000E+00 0.  1.
</event>
<event>
 7    1  0.2903212E-011  0.5052886E+02  0.7816164E-02  0.1300439E+00
        -11   -1    0    0    0    0  0.00000000000E+00  0.00000000000E+00  0.45593999997E+02  0.45594000000E+02  0.51100000000E-03 0.  1.
         11   -1    0    0    0    0 -0.00000000000E+00 -0.00000000000E+00 -0.45593999997E+02  0.45594000000E+02  0.51100000000E-03 0. -1.
    9900012    2    1    2    0    0 -0.23745613749E+02  0.91177213465E+01 -0.31720322945E+02  0.50528857084E+02  0.29999991593E+02 0.  0.
        -12    1    1    2    0    0  0.23745613749E+02 -0.91177213465E+01  0.31720322945E+02  0.40659142916E+02  0.00000000000E+00 0.  1.
         11    1    3    3    0    0 -0.57385616281E+01 -0.47667793038E+01 -0.70348159736E+01  0.10253872953E+02  0.51100000000E-03 0. -1.
        -11    1    3    3    0    0 -0.83955910660E+01 -0.50400780835E+00  0.18352428655E+01  0.86086055697E+01  0.51100000000E-03 0.  1.
        -12    1    3    3    0    0 -0.96114610551E+01  0.14388508459E+02 -0.26520749837E+02  0.31666378562E+02  0.00000000000E+00 0.  1.
</event>
<event>
 7    1  0.2903212E-011  0.5052886E+02  0.7816164E-02  0.1300439E+00
        -11   -1    0    0    0    0  0.00000000000E+00  0.00000000000E+00  0.45593999997E+02  0.45594000000E+02  0.51100000000E-03 0.  1.
         11   -1    0    0    0    0 -0.00000000000E+00 -0.00000000000E+00 -0.45593999997E+02  0.45594000000E+02  0.51100000000E-03 0. -1.
    9900012    2    1    2    0    0 -0.11378747303E+01 -0.14181288916E+02 -0.38088870063E+02  0.50528859122E+02  0.29999997789E+02 0.  0.
        -12    1    1    2    0    0  0.11378747303E+01  0.14181288916E+02  0.38088870063E+02  0.40659140878E+02  0.00000000000E+00 0.  1.
         11    1    3    3    0    0  0.89477525860E+01 -0.76381933534E+01 -0.14615181359E+02  0.18761870921E+02  0.51100000000E-03 0. -1.
        -11    1    3    3    0    0 -0.45263534463E+01  0.55077163785E+01 -0.13131112883E+02  0.14941517360E+02  0.51100000000E-03 0.  1.
        -12    1    3    3    0    0 -0.55592738700E+01 -0.12050811941E+02 -0.10342575821E+02  0.16825470841E+02  0.00000000000E+00 0.  1.
</event>
<event>
 7    1  0.2903212E-011  0.5052887E+02  0.7816164E-02  0.1300439E+00
        -11   -1    0    0    0    0  0.00000000000E+00  0.00000000000E+00  0.45593999997E+02  0.45594000000E+02  0.51100000000E-03 0.  1.
         11   -1    0    0    0    0 -0.00000000000E+00 -0.00000000000E+00 -0.45593999997E+02  0.45594000000E+02  0.51100000000E-03 0. -1.
    9900012    2    1    2    0    0  0.37635889406E+02  0.95029807394E+01 -0.12099510696E+02  0.50528868511E+02  0.30000026326E+02 0.  0.
        -12    1    1    2    0    0 -0.37635889406E+02 -0.95029807394E+01  0.12099510696E+02  0.40659131489E+02  0.00000000000E+00 0.  1.
         11    1    3    3    0    0  0.83261265346E+01  0.12228921752E+01 -0.95455322155E+01  0.12725448278E+02  0.51100000000E-03 0. -1.
        -11    1    3    3    0    0  0.16087244581E+02 -0.69119601111E+01 -0.61033848345E-01  0.17509379091E+02  0.51100000000E-03 0.  1.
         12    1    3    3    0    0  0.13222518291E+02  0.15192048675E+02 -0.24929446326E+01  0.20294041141E+02  0.00000000000E+00 0. -1.
</event>
<event>
 7    1  0.2903212E-011  0.5052886E+02  0.7816164E-02  0.1300439E+00
        -11   -1    0    0    0    0  0.00000000000E+00  0.00000000000E+00  0.45593999997E+02  0.45594000000E+02  0.51100000000E-03 0.  1.
         11   -1    0    0    0    0 -0.00000000000E+00 -0.00000000000E+00 -0.45593999997E+02  0.45594000000E+02  0.51100000000E-03 0. -1.
    9900012    2    1    2    0    0 -0.37893444682E+02  0.34109809574E+01 -0.14339374582E+02  0.50528860752E+02  0.30000002743E+02 0.  0.
        -12    1    1    2    0    0  0.37893444682E+02 -0.34109809574E+01  0.14339374582E+02  0.40659139248E+02  0.00000000000E+00 0.  1.
         11    1    3    3    0    0 -0.15481036537E+02 -0.28809777350E+01  0.13961217712E+01  0.15808595169E+02  0.51100000000E-03 0. -1.
        -11    1    3    3    0    0  0.21584129881E+01  0.59930031970E+01 -0.29358252112E+01  0.70138366019E+01  0.51100000000E-03 0.  1.
         12    1    3    3    0    0 -0.24570821133E+02  0.29895549540E+00 -0.12799671142E+02  0.27706428981E+02  0.00000000000E+00 0. -1.
</event>
<event>
 7    1  0.2903212E-011  0.5052893E+02  0.7816164E-02  0.1300439E+00
        -11   -1    0    0    0    0  0.00000000000E+00  0.00000000000E+00  0.45593999997E+02  0.45594000000E+02  0.51100000000E-03 0. -1.
         11   -1    0    0    0    0 -0.00000000000E+00 -0.00000000000E+00 -0.45593999997E+02  0.45594000000E+02  0.51100000000E-03 0.  1.
    9900012    2    1    2    0    0 -0.30423374872E+02  0.53387222208E+01  0.26440057196E+02  0.50528925760E+02  0.30000200339E+02 0.  0.
        -12    1    1    2    0    0  0.30423374872E+02 -0.53387222208E+01 -0.26440057196E+02  0.40659074240E+02  0.00000000000E+00 0.  1.
         11    1    3    3    0    0 -0.24446720818E+01 -0.10920278099E+01  0.53253202045E+01  0.59605353675E+01  0.51100000000E-03 0. -1.
        -11    1    3    3    0    0 -0.22807476256E+02 -0.11808315525E+01  0.25621040320E+02  0.34322194622E+02  0.51100000000E-03 0.  1.
         12    1    3    3    0    0 -0.51712265344E+01  0.76115815832E+01 -0.45063033293E+01  0.10246195770E+02  0.00000000000E+00 0. -1.
</event>
<event>
 7    1  0.2903212E-011  0.5052886E+02  0.7816164E-02  0.1300439E+00
        -11   -1    0    0    0    0  0.00000000000E+00  0.00000000000E+00  0.45593999997E+02  0.45594000000E+02  0.51100000000E-03 0. -1.
         11   -1    0    0    0    0 -0.00000000000E+00 -0.00000000000E+00 -0.45593999997E+02  0.45594000000E+02  0.51100000000E-03 0.  1.
    9900012    2    1    2    0    0 -0.17822881535E+02 -0.36496549260E+02 -0.18741639629E+01  0.50528859519E+02  0.29999998995E+02 0.  0.
        -12    1    1    2    0    0  0.17822881535E+02  0.36496549260E+02  0.18741639629E+01  0.40659140481E+02  0.00000000000E+00 0.  1.
         11    1    3    3    0    0 -0.55573526679E+01  0.66548175565E-01 -0.46059119589E+01  0.72182423462E+01  0.51100000000E-03 0.  1.
        -11    1    3    3    0    0 -0.69284304761E+01 -0.59970620581E+01  0.75969642781E+01  0.11903015109E+02  0.51100000000E-03 0. -1.
         12    1    3    3    0    0 -0.53370983913E+01 -0.30566035377E+02 -0.48652162820E+01  0.31407602064E+02  0.00000000000E+00 0. -1.
</event>
<event>
 7    1  0.2903212E-011  0.5052886E+02  0.7816164E-02  0.1300439E+00
        -11   -1    0    0    0    0  0.00000000000E+00  0.00000000000E+00  0.45593999997E+02  0.45594000000E+02  0.51100000000E-03 0.  1.
         11   -1    0    0    0    0 -0.00000000000E+00 -0.00000000000E+00 -0.45593999997E+02  0.45594000000E+02  0.51100000000E-03 0. -1.
    9900012    2    1    2    0    0 -0.10112978971E+00  0.15754953283E+02 -0.37482491438E+02  0.50528856569E+02  0.29999990026E+02 0.  0.
        -12    1    1    2    0    0  0.10112978971E+00 -0.15754953283E+02  0.37482491438E+02  0.40659143431E+02  0.00000000000E+00 0.  1.
         11    1    3    3    0    0 -0.70119210910E+01  0.55092258341E+01 -0.26783853944E+02  0.28229301073E+02  0.51100000000E-03 0. -1.
        -11    1    3    3    0    0  0.62225689416E+00  0.17934972875E+01 -0.11573639611E+02  0.11728297842E+02  0.51100000000E-03 0.  1.
        -12    1    3    3    0    0  0.62885344071E+01  0.84522301613E+01  0.87500211714E+00  0.10571257654E+02  0.00000000000E+00 0.  1.
</event>
<event>
 7    1  0.2903212E-011  0.5052887E+02  0.7816164E-02  0.1300439E+00
        -11   -1    0    0    0    0  0.00000000000E+00  0.00000000000E+00  0.45593999997E+02  0.45594000000E+02  0.51100000000E-03 0.  1.
         11   -1    0    0    0    0 -0.00000000000E+00 -0.00000000000E+00 -0.45593999997E+02  0.45594000000E+02  0.51100000000E-03 0. -1.
    9900012    2    1    2    0    0  0.30573273305E+01 -0.37512458540E+02 -0.15382881222E+02  0.50528870265E+02  0.30000031658E+02 0.  0.
        -12    1    1    2    0    0 -0.30573273305E+01  0.37512458540E+02  0.15382881222E+02  0.40659129735E+02  0.00000000000E+00 0.  1.
         11    1    3    3    0    0 -0.55500239577E+01 -0.70841543654E+01 -0.37557882139E+01  0.97516129113E+01  0.51100000000E-03 0. -1.
        -11    1    3    3    0    0 -0.59956899540E+01 -0.20666853033E+02 -0.63203402310E+01  0.22427969440E+02  0.51100000000E-03 0.  1.
         12    1    3    3    0    0  0.14603041242E+02 -0.97614511412E+01 -0.53067527769E+01  0.18349287914E+02  0.00000000000E+00 0. -1.
</event>
<event>
 7    1  0.2903212E-011  0.5052886E+02  0.7816164E-02  0.1300439E+00
        -11   -1    0    0    0    0  0.00000000000E+00  0.00000000000E+00  0.45593999997E+02  0.45594000000E+02  0.51100000000E-03 0.  1.
         11   -1    0    0    0    0 -0.00000000000E+00 -0.00000000000E+00 -0.45593999997E+02  0.45594000000E+02  0.51100000000E-03 0. -1.
    9900012    2    1    2    0    0  0.31824456694E+02 -0.15943364966E+02  0.19651433995E+02  0.50528858489E+02  0.29999995864E+02 0.  0.
        -12    1    1    2    0    0 -0.31824456694E+02  0.15943364966E+02 -0.19651433995E+02  0.40659141511E+02  0.00000000000E+00 0.  1.
         11    1    3    3    0    0  0.28816198720E+02 -0.22880091761E+02  0.15197962442E+02  0.39810174206E+02  0.51100000000E-03 0. -1.
        -11    1    3    3    0    0  0.27860305910E+01  0.32341388993E+01 -0.74434284278E+00  0.43330898217E+01  0.51100000000E-03 0.  1.
        -12    1    3    3    0    0  0.22222738293E+00  0.37025878953E+01  0.51978143963E+01  0.63855944618E+01  0.00000000000E+00 0.  1.
</event>
<event>
 7    1  0.2903212E-011  0.5052886E+02  0.7816164E-02  0.1300439E+00
        -11   -1    0    0    0    0  0.00000000000E+00  0.00000000000E+00  0.45593999997E+02  0.45594000000E+02  0.51100000000E-03 0.  1.
         11   -1    0    0    0    0 -0.00000000000E+00 -0.00000000000E+00 -0.45593999997E+02  0.45594000000E+02  0.51100000000E-03 0. -1.
    9900012    2    1    2    0    0  0.15472126247E+02 -0.65981804090E+01 -0.37016788147E+02  0.50528864740E+02  0.30000014865E+02 0.  0.
        -12    1    1    2    0    0 -0.15472126247E+02  0.65981804090E+01  0.37016788147E+02  0.40659135260E+02  0.00000000000E+00 0.  1.
         11    1    3    3    0    0  0.28232286928E+01 -0.60647065291E+01 -0.57167547630E+01  0.87995778772E+01  0.51100000000E-03 0. -1.
        -11    1    3    3    0    0  0.68715991546E+01 -0.28571290226E+01  0.21168777381E+01  0.77371333718E+01  0.51100000000E-03 0.  1.
         12    1    3    3    0    0  0.57772983997E+01  0.23236551426E+01 -0.33416911122E+02  0.33992153491E+02  0.00000000000E+00 0. -1.
</event>
<event>
 7    1  0.2903212E-011  0.5052885E+02  0.7816164E-02  0.1300439E+00
        -11   -1    0    0    0    0  0.00000000000E+00  0.00000000000E+00  0.45593999997E+02  0.45594000000E+02  0.51100000000E-03 0. -1.
         11   -1    0    0    0    0 -0.00000000000E+00 -0.00000000000E+00 -0.45593999997E+02  0.45594000000E+02  0.51100000000E-03 0.  1.
    9900012    2    1    2    0    0 -0.68176909383E+01  0.45591327352E+01  0.39823355269E+02  0.50528853109E+02  0.29999979511E+02 0.  0.
        -12    1    1    2    0    0  0.68176909383E+01 -0.45591327352E+01 -0.39823355269E+02  0.40659146891E+02  0.00000000000E+00 0.  1.
         11    1    3    3    0    0 -0.63169100544E+01 -0.46085968023E+01  0.19398323387E+02  0.20915005800E+02  0.51100000000E-03 0. -1.
        -11    1    3    3    0    0 -0.52176076180E+01 -0.17690479635E+01  0.15976322098E+02  0.16899580705E+02  0.51100000000E-03 0.  1.
        -12    1    3    3    0    0  0.47168267341E+01  0.10936777501E+02  0.44487097831E+01  0.12714266604E+02  0.00000000000E+00 0.  1.
</event>
<event>
 7    1  0.2903212E-011  0.5052886E+02  0.7816164E-02  0.1300439E+00
        -11   -1    0    0    0    0  0.00000000000E+00  0.00000000000E+00  0.45593999997E+02  0.45594000000E+02  0.51100000000E-03 0. -1.
         11   -1    0    0    0    0 -0.00000000000E+00 -0.00000000000E+00 -0.45593999997E+02  0.45594000000E+02  0.51100000000E-03 0.  1.
    9900012    2    1    2    0    0 -0.16369990454E+02 -0.11702436477E+02  0.35330469927E+02  0.50528859426E+02  0.29999998711E+02 0.  0.
        -12    1    1    2    0    0  0.16369990454E+02  0.11702436477E+02 -0.35330469927E+02  0.40659140574E+02  0.00000000000E+00 0.  1.
         11    1    3    3    0    0 -0.98009276806E+01 -0.10272972023E+02  0.35322494598E+02  0.38069288967E+02  0.51100000000E-03 0. -1.
        -11    1    3    3    0    0 -0.77680980762E+01 -0.39486468415E+01  0.21105642025E+01  0.89660270530E+01  0.51100000000E-03 0.  1.
        -12    1    3    3    0    0  0.11990353030E+01  0.25191823869E+01 -0.21025888737E+01  0.34935434058E+01  0.00000000000E+00 0.  1.
</event>
<event>
 7    1  0.2903212E-011  0.5052886E+02  0.7816164E-02  0.1300439E+00
        -11   -1    0    0    0    0  0.00000000000E+00  0.00000000000E+00  0.45593999997E+02  0.45594000000E+02  0.51100000000E-03 0. -1.
         11   -1    0    0    0    0 -0.00000000000E+00 -0.00000000000E+00 -0.45593999997E+02  0.45594000000E+02  0.51100000000E-03 0.  1.
    9900012    2    1    2    0    0  0.28060324407E+02 -0.11557977912E+02  0.27059134336E+02  0.50528863139E+02  0.30000009997E+02 0.  0.
        -12    1    1    2    0    0 -0.28060324407E+02  0.11557977912E+02 -0.27059134336E+02  0.40659136861E+02  0.00000000000E+00 0.  1.
         11    1    3    3    0    0  0.46447799271E+01  0.64230133990E+01  0.60374676231E+01  0.99639398461E+01  0.51100000000E-03 0. -1.
        -11    1    3    3    0    0 -0.29602573823E+01 -0.16045627584E+01  0.37417407976E+01  0.50337232614E+01  0.51100000000E-03 0.  1.
         12    1    3    3    0    0  0.26375801863E+02 -0.16376428552E+02  0.17279925916E+02  0.35531200031E+02  0.00000000000E+00 0. -1.
</event>
<event>
 7    1  0.2903212E-011  0.5052886E+02  0.7816164E-02  0.1300439E+00
        -11   -1    0    0    0    0  0.00000000000E+00  0.00000000000E+00  0.45593999997E+02  0.45594000000E+02  0.51100000000E-03 0. -1.
         11   -1    0    0    0    0 -0.00000000000E+00 -0.00000000000E+00 -0.45593999997E+02  0.45594000000E+02  0.51100000000E-03 0.  1.
    9900012    2    1    2    0    0  0.16451835459E+02  0.25152939238E+02  0.27383067369E+02  0.50528860550E+02  0.30000002127E+02 0.  0.
        -12    1    1    2    0    0 -0.16451835459E+02 -0.25152939238E+02 -0.27383067369E+02  0.40659139450E+02  0.00000000000E+00 0.  1.
         11    1    3    3    0    0  0.65124696905E+01  0.60767871541E+01  0.76531746202E+01  0.11743538036E+02  0.51100000000E-03 0. -1.
        -11    1    3    3    0    0  0.12799383491E+02  0.41293661936E+00  0.14177259411E+02  0.19104696257E+02  0.51100000000E-03 0.  1.
        -12    1    3    3    0    0 -0.28600177227E+01  0.18663215464E+02  0.55526333379E+01  0.19680626256E+02  0.00000000000E+00 0.  1.
</event>
<event>
 7    1  0.2903212E-011  0.5052886E+02  0.7816164E-02  0.1300439E+00
        -11   -1    0    0    0    0  0.00000000000E+00  0.00000000000E+00  0.45593999997E+02  0.45594000000E+02  0.51100000000E-03 0. -1.
         11   -1    0    0    0    0 -0.00000000000E+00 -0.00000000000E+00 -0.45593999997E+02  0.45594000000E+02  0.51100000000E-03 0.  1.
    9900012    2    1    2    0    0  0.25986362442E+02 -0.27381538210E+02  0.15103846791E+02  0.50528857663E+02  0.29999993353E+02 0.  0.
        -12    1    1    2    0    0 -0.25986362442E+02  0.27381538210E+02 -0.15103846791E+02  0.40659142337E+02  0.00000000000E+00 0.  1.
         11    1    3    3    0    0  0.20897134442E+02 -0.27461203524E+02  0.13682276057E+02  0.37121592170E+02  0.51100000000E-03 0. -1.
        -11    1    3    3    0    0  0.42786507555E+01 -0.33212505967E+01  0.57126527894E+01  0.78722271288E+01  0.51100000000E-03 0.  1.
        -12    1    3    3    0    0  0.81057724432E+00  0.34009159109E+01 -0.42910820546E+01  0.55350383649E+01  0.00000000000E+00 0.  1.
</event>
<event>
 7    1  0.2903212E-011  0.5052885E+02  0.7816164E-02  0.1300439E+00
        -11   -1    0    0    0    0  0.00000000000E+00  0.00000000000E+00  0.45593999997E+02  0.45594000000E+02  0.51100000000E-03 0. -1.
         11   -1    0    0    0    0 -0.00000000000E+00 -0.00000000000E+00 -0.45593999997E+02  0.45594000000E+02  0.51100000000E-03 0.  1.
    9900012    2    1    2    0    0 -0.21828882455E+02  0.30080935607E+02 -0.16486467450E+02  0.50528850904E+02  0.29999972807E+02 0.  0.
        -12    1    1    2    0    0  0.21828882455E+02 -0.30080935607E+02  0.16486467450E+02  0.40659149096E+02  0.00000000000E+00 0.  1.
         11    1    3    3    0    0 -0.12177605066E+02  0.23058314921E+02 -0.32083911375E+01  0.26273060844E+02  0.51100000000E-03 0. -1.
        -11    1    3    3    0    0 -0.11872657378E+01  0.60140499378E+01  0.22598324205E+01  0.65333941728E+01  0.51100000000E-03 0.  1.
        -12    1    3    3    0    0 -0.84640116509E+01  0.10085707481E+01 -0.15537908733E+02  0.17722395887E+02  0.00000000000E+00 0.  1.
</event>
<event>
 7    1  0.2903212E-011  0.5052886E+02  0.7816164E-02  0.1300439E+00
        -11   -1    0    0    0    0  0.00000000000E+00  0.00000000000E+00  0.45593999997E+02  0.45594000000E+02  0.51100000000E-03 0.  1.
         11   -1    0    0    0    0 -0.00000000000E+00 -0.00000000000E+00 -0.45593999997E+02  0.45594000000E+02  0.51100000000E-03 0. -1.
    9900012    2    1    2    0    0  0.20573077505E+02  0.31282639095E+02 -0.15852788517E+02  0.50528856741E+02  0.29999990551E+02 0.  0.
        -12    1    1    2    0    0 -0.20573077505E+02 -0.31282639095E+02  0.15852788517E+02  0.40659143259E+02  0.00000000000E+00 0.  1.
         11    1    3    3    0    0  0.68773103600E+01  0.14414186469E+02 -0.16357996055E+02  0.22861544229E+02  0.51100000000E-03 0. -1.
        -11    1    3    3    0    0  0.22797144606E+01  0.16019358472E+02 -0.38329903469E+00  0.16185297720E+02  0.51100000000E-03 0.  1.
        -12    1    3    3    0    0  0.11416052684E+02  0.84909415446E+00  0.88850657275E+00  0.11482014793E+02  0.00000000000E+00 0.  1.
</event>
<event>
 7    1  0.2903212E-011  0.5052885E+02  0.7816164E-02  0.1300439E+00
        -11   -1    0    0    0    0  0.00000000000E+00  0.00000000000E+00  0.45593999997E+02  0.45594000000E+02  0.51100000000E-03 0.  1.
         11   -1    0    0    0    0 -0.00000000000E+00 -0.00000000000E+00 -0.45593999997E+02  0.45594000000E+02  0.51100000000E-03 0. -1.
    9900012    2    1    2    0    0  0.74461045144E+01  0.34229180570E+01 -0.39824681946E+02  0.50528854257E+02  0.29999982998E+02 0.  0.
        -12    1    1    2    0    0 -0.74461045144E+01 -0.34229180570E+01  0.39824681946E+02  0.40659145743E+02  0.00000000000E+00 0.  1.
         11    1    3    3    0    0  0.32464948442E+01  0.10482372179E+02 -0.16419010672E+02  0.19748513032E+02  0.51100000000E-03 0. -1.
        -11    1    3    3    0    0 -0.50521414298E+01  0.32289857232E+01 -0.53737029362E+01  0.80515318626E+01  0.51100000000E-03 0.  1.
        -12    1    3    3    0    0  0.92517511000E+01 -0.10288439845E+02 -0.18031968338E+02  0.22728809362E+02  0.00000000000E+00 0.  1.
</event>
<event>
 7    1  0.2903212E-011  0.5052887E+02  0.7816164E-02  0.1300439E+00
        -11   -1    0    0    0    0  0.00000000000E+00  0.00000000000E+00  0.45593999997E+02  0.45594000000E+02  0.51100000000E-03 0.  1.
         11   -1    0    0    0    0 -0.00000000000E+00 -0.00000000000E+00 -0.45593999997E+02  0.45594000000E+02  0.51100000000E-03 0. -1.
    9900012    2    1    2    0    0  0.59195894270E+01 -0.21395757727E+02 -0.34063830929E+02  0.50528873530E+02  0.30000041582E+02 0.  0.
        -12    1    1    2    0    0 -0.59195894270E+01  0.21395757727E+02  0.34063830929E+02  0.40659126470E+02  0.00000000000E+00 0.  1.
         11    1    3    3    0    0 -0.19177785421E+01 -0.46571625417E+01 -0.12101400486E+02  0.13107666897E+02  0.51100000000E-03 0. -1.
        -11    1    3    3    0    0  0.60526063551E+01 -0.21795414702E+02 -0.22654654476E+02  0.32014176788E+02  0.51100000000E-03 0.  1.
        -12    1    3    3    0    0  0.17847616140E+01  0.50568195163E+01  0.69222403311E+00  0.54070298456E+01  0.00000000000E+00 0.  1.
</event>
<event>
 7    1  0.2903212E-011  0.5052887E+02  0.7816164E-02  0.1300439E+00
        -11   -1    0    0    0    0  0.00000000000E+00  0.00000000000E+00  0.45593999997E+02  0.45594000000E+02  0.51100000000E-03 0. -1.
         11   -1    0    0    0    0 -0.00000000000E+00 -0.00000000000E+00 -0.45593999997E+02  0.45594000000E+02  0.51100000000E-03 0.  1.
    9900012    2    1    2    0    0  0.23917886826E+02  0.11792398234E+02  0.30692656862E+02  0.50528866320E+02  0.30000019665E+02 0.  0.
        -12    1    1    2    0    0 -0.23917886826E+02 -0.11792398234E+02 -0.30692656862E+02  0.40659133680E+02  0.00000000000E+00 0.  1.
         11    1    3    3    0    0  0.18653996782E+02  0.30002452147E+01  0.14060504359E+02  0.23551451132E+02  0.51100000000E-03 0. -1.
        -11    1    3    3    0    0  0.40438550005E+01 -0.22400253604E+01  0.15076717562E+02  0.15769524076E+02  0.51100000000E-03 0.  1.
        -12    1    3    3    0    0  0.12200350435E+01  0.11032178380E+02  0.15554349405E+01  0.11207891112E+02  0.00000000000E+00 0.  1.
</event>
<event>
 7    1  0.2903212E-011  0.5052886E+02  0.7816164E-02  0.1300439E+00
        -11   -1    0    0    0    0  0.00000000000E+00  0.00000000000E+00  0.45593999997E+02  0.45594000000E+02  0.51100000000E-03 0. -1.
         11   -1    0    0    0    0 -0.00000000000E+00 -0.00000000000E+00 -0.45593999997E+02  0.45594000000E+02  0.51100000000E-03 0.  1.
    9900012    2    1    2    0    0  0.74028871278E+01 -0.20983740554E+02  0.34030072018E+02  0.50528857031E+02  0.29999991431E+02 0.  0.
        -12    1    1    2    0    0 -0.74028871278E+01  0.20983740554E+02 -0.34030072018E+02  0.40659142969E+02  0.00000000000E+00 0.  1.
         11    1    3    3    0    0  0.48815087585E-01  0.86491184006E-01 -0.17785369611E+01  0.17813078400E+01  0.51100000000E-03 0.  1.
        -11    1    3    3    0    0  0.53375320283E+01  0.39460566625E+01  0.26160533145E+01  0.71347282038E+01  0.51100000000E-03 0. -1.
        -12    1    3    3    0    0  0.20165400118E+01 -0.25016288400E+02  0.33192555664E+02  0.41612820987E+02  0.00000000000E+00 0.  1.
</event>
<event>
 7    1  0.2903212E-011  0.5052886E+02  0.7816164E-02  0.1300439E+00
        -11   -1    0    0    0    0  0.00000000000E+00  0.00000000000E+00  0.45593999997E+02  0.45594000000E+02  0.51100000000E-03 0. -1.
         11   -1    0    0    0    0 -0.00000000000E+00 -0.00000000000E+00 -0.45593999997E+02  0.45594000000E+02  0.51100000000E-03 0.  1.
    9900012    2    1    2    0    0 -0.19995476143E+02  0.13798168407E+02  0.32603019370E+02  0.50528863393E+02  0.30000010769E+02 0.  0.
        -12    1    1    2    0    0  0.19995476143E+02 -0.13798168407E+02 -0.32603019370E+02  0.40659136607E+02  0.00000000000E+00 0.  1.
         11    1    3    3    0    0  0.39829191118E+01  0.78511994990E+01  0.15271673943E+02  0.17627507014E+02  0.51100000000E-03 0. -1.
        -11    1    3    3    0    0  0.10590712029E+01 -0.14388554975E+01  0.17486871005E+01  0.24999687582E+01  0.51100000000E-03 0.  1.
         12    1    3    3    0    0 -0.25037466458E+02  0.73858244057E+01  0.15582658327E+02  0.30401387621E+02  0.00000000000E+00 0. -1.
</event>
<event>
 7    1  0.2903212E-011  0.5052887E+02  0.7816164E-02  0.1300439E+00
        -11   -1    0    0    0    0  0.00000000000E+00  0.00000000000E+00  0.45593999997E+02  0.45594000000E+02  0.51100000000E-03 0. -1.
         11   -1    0    0    0    0 -0.00000000000E+00 -0.00000000000E+00 -0.45593999997E+02  0.45594000000E+02  0.51100000000E-03 0.  1.
    9900012    2    1    2    0    0 -0.33008982288E+02  0.23528961390E+02 -0.31559858473E+01  0.50528865941E+02  0.30000018514E+02 0.  0.
        -12    1    1    2    0    0  0.33008982288E+02 -0.23528961390E+02  0.31559858473E+01  0.40659134059E+02  0.00000000000E+00 0.  1.
         11    1    3    3    0    0 -0.19053670187E+01  0.11606986285E+02 -0.93268652756E+01  0.15011427987E+02  0.51100000000E-03 0. -1.
        -11    1    3    3    0    0 -0.82424620204E-01  0.14631934283E+01 -0.12772737263E+01  0.19440054680E+01  0.51100000000E-03 0.  1.
         12    1    3    3    0    0 -0.31021190649E+02  0.10458781677E+02  0.74481531546E+01  0.33573432486E+02  0.00000000000E+00 0. -1.
</event>
<event>
 7    1  0.2903212E-011  0.5052884E+02  0.7816164E-02  0.1300439E+00
        -11   -1    0    0    0    0  0.00000000000E+00  0.00000000000E+00  0.45593999997E+02  0.45594000000E+02  0.51100000000E-03 0.  1.
         11   -1    0    0    0    0 -0.00000000000E+00 -0.00000000000E+00 -0.45593999997E+02  0.45594000000E+02  0.51100000000E-03 0. -1.
    9900012    2    1    2    0    0  0.34953157749E+01  0.11276859147E+02 -0.38907353357E+02  0.50528844452E+02  0.29999953197E+02 0.  0.
        -12    1    1    2    0    0 -0.34953157749E+01 -0.11276859147E+02  0.38907353357E+02  0.40659155548E+02  0.00000000000E+00 0.  1.
         11    1    3    3    0    0  0.62945136143E+01  0.17619592496E+02 -0.36250870823E+02  0.40794565533E+02  0.51100000000E-03 0. -1.
        -11    1    3    3    0    0  0.12767279724E+01 -0.13638200728E+01 -0.27196464143E+01  0.32994721375E+01  0.51100000000E-03 0.  1.
         12    1    3    3    0    0 -0.40759258118E+01 -0.49789132762E+01  0.63163880102E-01  0.64348067812E+01  0.00000000000E+00 0. -1.
</event>
<event>
 7    1  0.2903212E-011  0.5052886E+02  0.7816164E-02  0.1300439E+00
        -11   -1    0    0    0    0  0.00000000000E+00  0.00000000000E+00  0.45593999997E+02  0.45594000000E+02  0.51100000000E-03 0.  1.
         11   -1    0    0    0    0 -0.00000000000E+00 -0.00000000000E+00 -0.45593999997E+02  0.45594000000E+02  0.51100000000E-03 0. -1.
    9900012    2    1    2    0    0 -0.20676244220E+02  0.34432903760E+02  0.63272198453E+01  0.50528860223E+02  0.30000001135E+02 0.  0.
        -12    1    1    2    0    0  0.20676244220E+02 -0.34432903760E+02 -0.63272198453E+01  0.40659139777E+02  0.00000000000E+00 0.  1.
         11    1    3    3    0    0 -0.15226084458E+02  0.20550984788E+02  0.12326447558E+02  0.28392216069E+02  0.51100000000E-03 0. -1.
        -11    1    3    3    0    0 -0.43159114514E+01 -0.47668660994E+00  0.28854680792E+01  0.52134679511E+01  0.51100000000E-03 0.  1.
         12    1    3    3    0    0 -0.11342483108E+01  0.14358605582E+02 -0.88846957915E+01  0.16923176203E+02  0.00000000000E+00 0. -1.
</event>
<event>
 7    1  0.2903212E-011  0.5052886E+02  0.7816164E-02  0.1300439E+00
        -11   -1    0    0    0    0  0.00000000000E+00  0.00000000000E+00  0.45593999997E+02  0.45594000000E+02  0.51100000000E-03 0.  1.
         11   -1    0    0    0    0 -0.00000000000E+00 -0.00000000000E+00 -0.45593999997E+02  0.45594000000E+02  0.51100000000E-03 0. -1.
    9900012    2    1    2    0    0  0.39588817331E+02  0.93992386231E+00  0.92199844954E+01  0.50528855535E+02  0.29999986884E+02 0.  0.
        -12    1    1    2    0    0 -0.39588817331E+02 -0.93992386231E+00 -0.92199844954E+01  0.40659144465E+02  0.00000000000E+00 0.  1.
         11    1    3    3    0    0  0.31491164774E+01 -0.39191170727E+01  0.55457518367E+01  0.74854376568E+01  0.51100000000E-03 0. -1.
        -11    1    3    3    0    0  0.12131912443E+00 -0.49206155525E+00  0.62239055927E+01  0.62445051038E+01  0.51100000000E-03 0.  1.
         12    1    3    3    0    0  0.36318381729E+02  0.53511024903E+01 -0.25496729340E+01  0.36798912774E+02  0.00000000000E+00 0. -1.
</event>
<event>
 7    1  0.2903212E-011  0.5052887E+02  0.7816164E-02  0.1300439E+00
        -11   -1    0    0    0    0  0.00000000000E+00  0.00000000000E+00  0.45593999997E+02  0.45594000000E+02  0.51100000000E-03 0.  1.
         11   -1    0    0    0    0 -0.00000000000E+00 -0.00000000000E+00 -0.45593999997E+02  0.45594000000E+02  0.51100000000E-03 0. -1.
    9900012    2    1    2    0    0 -0.39172607464E+02 -0.30111303878E+01  0.10469234716E+02  0.50528868710E+02  0.30000026930E+02 0.  0.
        -12    1    1    2    0    0  0.39172607464E+02  0.30111303878E+01 -0.10469234716E+02  0.40659131290E+02  0.00000000000E+00 0.  1.
         11    1    3    3    0    0 -0.12644218181E+02 -0.66732912436E+01 -0.37158652597E+01  0.14772160449E+02  0.51100000000E-03 0.  1.
        -11    1    3    3    0    0 -0.48209700150E+01 -0.66783649732E+01  0.89875819012E+00  0.82855342100E+01  0.51100000000E-03 0. -1.
        -12    1    3    3    0    0 -0.21707419268E+02  0.10340525829E+02  0.13286341785E+02  0.27471174051E+02  0.00000000000E+00 0.  1.
</event>
<event>
 7    1  0.2903212E-011  0.5052886E+02  0.7816164E-02  0.1300439E+00
        -11   -1    0    0    0    0  0.00000000000E+00  0.00000000000E+00  0.45593999997E+02  0.45594000000E+02  0.51100000000E-03 0.  1.
         11   -1    0    0    0    0 -0.00000000000E+00 -0.00000000000E+00 -0.45593999997E+02  0.45594000000E+02  0.51100000000E-03 0. -1.
    9900012    2    1    2    0    0  0.27132433300E+02 -0.19524697956E+02 -0.23146985942E+02  0.50528859265E+02  0.29999998223E+02 0.  0.
        -12    1    1    2    0    0 -0.27132433300E+02  0.19524697956E+02  0.23146985942E+02  0.40659140735E+02  0.00000000000E+00 0.  1.
         11    1    3    3    0    0  0.33263958351E+01  0.70825718695E-01 -0.39215768285E+01  0.51428290480E+01  0.51100000000E-03 0. -1.
        -11    1    3    3    0    0 -0.22649021821E+01  0.46444554357E+01 -0.57938936387E+00  0.51996577277E+01  0.51100000000E-03 0.  1.
        -12    1    3    3    0    0  0.26070939647E+02 -0.24239979111E+02 -0.18646019750E+02  0.40186372490E+02  0.00000000000E+00 0.  1.
</event>
<event>
 7    1  0.2903212E-011  0.5052885E+02  0.7816164E-02  0.1300439E+00
        -11   -1    0    0    0    0  0.00000000000E+00  0.00000000000E+00  0.45593999997E+02  0.45594000000E+02  0.51100000000E-03 0.  1.
         11   -1    0    0    0    0 -0.00000000000E+00 -0.00000000000E+00 -0.45593999997E+02  0.45594000000E+02  0.51100000000E-03 0. -1.
    9900012    2    1    2    0    0 -0.18636600646E+02  0.35573377459E+02  0.63544270078E+01  0.50528845925E+02  0.29999957673E+02 0.  0.
        -12    1    1    2    0    0  0.18636600646E+02 -0.35573377459E+02 -0.63544270078E+01  0.40659154075E+02  0.00000000000E+00 0.  1.
         11    1    3    3    0    0 -0.10150241508E+02  0.90866166127E+01 -0.67554481207E+01  0.15206251468E+02  0.51100000000E-03 0. -1.
        -11    1    3    3    0    0 -0.87024903879E+00  0.11836978631E+02 -0.30127484231E+01  0.12245327673E+02  0.51100000000E-03 0.  1.
        -12    1    3    3    0    0 -0.76161100985E+01  0.14649782216E+02  0.16122623552E+02  0.23077266783E+02  0.00000000000E+00 0.  1.
</event>
<event>
 7    1  0.2903212E-011  0.5052885E+02  0.7816164E-02  0.1300439E+00
        -11   -1    0    0    0    0  0.00000000000E+00  0.00000000000E+00  0.45593999997E+02  0.45594000000E+02  0.51100000000E-03 0. -1.
         11   -1    0    0    0    0 -0.00000000000E+00 -0.00000000000E+00 -0.45593999997E+02  0.45594000000E+02  0.51100000000E-03 0.  1.
    9900012    2    1    2    0    0 -0.27621011007E+00  0.35555519528E+02  0.19720420261E+02  0.50528852982E+02  0.29999979125E+02 0.  0.
        -12    1    1    2    0    0  0.27621011007E+00 -0.35555519528E+02 -0.19720420261E+02  0.40659147018E+02  0.00000000000E+00 0.  1.
         11    1    3    3    0    0  0.57591310054E+00  0.97596609316E+00  0.54427301647E+01  0.55594511979E+01  0.51100000000E-03 0.  1.
        -11    1    3    3    0    0  0.70847008773E+00 -0.13989221085E+00 -0.51182379516E+01  0.51689321611E+01  0.51100000000E-03 0. -1.
         12    1    3    3    0    0 -0.15605932983E+01  0.34719445646E+02  0.19395928048E+02  0.39800469623E+02  0.00000000000E+00 0. -1.
</event>
<event>
 7    1  0.2903212E-011  0.5052887E+02  0.7816164E-02  0.1300439E+00
        -11   -1    0    0    0    0  0.00000000000E+00  0.00000000000E+00  0.45593999997E+02  0.45594000000E+02  0.51100000000E-03 0.  1.
         11   -1    0    0    0    0 -0.00000000000E+00 -0.00000000000E+00 -0.45593999997E+02  0.45594000000E+02  0.51100000000E-03 0. -1.
    9900012    2    1    2    0    0  0.29355506487E+02  0.17755828561E+02 -0.21820854204E+02  0.50528869572E+02  0.30000029550E+02 0.  0.
        -12    1    1    2    0    0 -0.29355506487E+02 -0.17755828561E+02  0.21820854204E+02  0.40659130428E+02  0.00000000000E+00 0.  1.
         11    1    3    3    0    0  0.14274615395E+02  0.81092525511E+01 -0.12184711583E+01  0.16462359911E+02  0.51100000000E-03 0. -1.
        -11    1    3    3    0    0  0.47402769072E+01  0.14254513680E+02 -0.15702278959E+02  0.21730691433E+02  0.51100000000E-03 0.  1.
         12    1    3    3    0    0  0.10340614185E+02 -0.46079376695E+01 -0.49001040865E+01  0.12335818228E+02  0.00000000000E+00 0. -1.
</event>
<event>
 7    1  0.2903212E-011  0.5052885E+02  0.7816164E-02  0.1300439E+00
        -11   -1    0    0    0    0  0.00000000000E+00  0.00000000000E+00  0.45593999997E+02  0.45594000000E+02  0.51100000000E-03 0.  1.
         11   -1    0    0    0    0 -0.00000000000E+00 -0.00000000000E+00 -0.45593999997E+02  0.45594000000E+02  0.51100000000E-03 0. -1.
    9900012    2    1    2    0    0 -0.19681516176E+02  0.32408612485E+02 -0.14679444674E+02  0.50528851729E+02  0.29999975316E+02 0.  0.
        -12    1    1    2    0    0  0.19681516176E+02 -0.32408612485E+02  0.14679444674E+02  0.40659148271E+02  0.00000000000E+00 0.  1.
         11    1    3    3    0    0  0.54178221670E+00  0.15430423440E+02  0.50608526688E+00  0.15448223783E+02  0.51100000000E-03 0. -1.
        -11    1    3    3    0    0 -0.77046454589E+01  0.13778321990E+02 -0.15544093080E+02  0.22154515306E+02  0.51100000000E-03 0.  1.
        -12    1    3    3    0    0 -0.12518652934E+02  0.31998670548E+01  0.35856313913E+00  0.12926112639E+02  0.00000000000E+00 0.  1.
</event>
<event>
 7    1  0.2903212E-011  0.5052887E+02  0.7816164E-02  0.1300439E+00
        -11   -1    0    0    0    0  0.00000000000E+00  0.00000000000E+00  0.45593999997E+02  0.45594000000E+02  0.51100000000E-03 0. -1.
         11   -1    0    0    0    0 -0.00000000000E+00 -0.00000000000E+00 -0.45593999997E+02  0.45594000000E+02  0.51100000000E-03 0.  1.
    9900012    2    1    2    0    0 -0.31089982604E+02 -0.21303017729E+02 -0.15256440295E+02  0.50528873679E+02  0.30000042035E+02 0.  0.
        -12    1    1    2    0    0  0.31089982604E+02  0.21303017729E+02  0.15256440295E+02  0.40659126321E+02  0.00000000000E+00 0.  1.
         11    1    3    3    0    0 -0.17378148653E+02 -0.11480134081E+02 -0.77930926989E+01  0.22237936577E+02  0.51100000000E-03 0.  1.
        -11    1    3    3    0    0 -0.86973482355E+01 -0.88661900528E+01  0.60721509107E+01  0.13824767966E+02  0.51100000000E-03 0. -1.
        -12    1    3    3    0    0 -0.50144857158E+01 -0.95669359464E+00 -0.13535498507E+02  0.14466169136E+02  0.00000000000E+00 0.  1.
</event>
<event>
 7    1  0.2903212E-011  0.5052887E+02  0.7816164E-02  0.1300439E+00
        -11   -1    0    0    0    0  0.00000000000E+00  0.00000000000E+00  0.45593999997E+02  0.45594000000E+02  0.51100000000E-03 0.  1.
         11   -1    0    0    0    0 -0.00000000000E+00 -0.00000000000E+00 -0.45593999997E+02  0.45594000000E+02  0.51100000000E-03 0. -1.
    9900012    2    1    2    0    0 -0.40149125745E+01 -0.79375998794E+01 -0.39674174618E+02  0.50528866384E+02  0.30000019859E+02 0.  0.
        -12    1    1    2    0    0  0.40149125745E+01  0.79375998794E+01  0.39674174618E+02  0.40659133616E+02  0.00000000000E+00 0.  1.
         11    1    3    3    0    0 -0.31097870584E+00  0.41113264833E+00 -0.23612227331E+02  0.23617853789E+02  0.51100000000E-03 0. -1.
        -11    1    3    3    0    0 -0.11857773741E+01 -0.11929981666E+02 -0.18389862451E+02  0.21952621068E+02  0.51100000000E-03 0.  1.
        -12    1    3    3    0    0 -0.25181564946E+01  0.35812491381E+01  0.23279151640E+01  0.49583915266E+01  0.00000000000E+00 0.  1.
</event>
<event>
 7    1  0.2903212E-011  0.5052885E+02  0.7816164E-02  0.1300439E+00
        -11   -1    0    0    0    0  0.00000000000E+00  0.00000000000E+00  0.45593999997E+02  0.45594000000E+02  0.51100000000E-03 0. -1.
         11   -1    0    0    0    0 -0.00000000000E+00 -0.00000000000E+00 -0.45593999997E+02  0.45594000000E+02  0.51100000000E-03 0.  1.
    9900012    2    1    2    0    0 -0.77027519872E+01 -0.20332560682E+02  0.34357251072E+02  0.50528854494E+02  0.29999983721E+02 0.  0.
        -12    1    1    2    0    0  0.77027519872E+01  0.20332560682E+02 -0.34357251072E+02  0.40659145506E+02  0.00000000000E+00 0.  1.
         11    1    3    3    0    0  0.56187236140E+01 -0.27034934055E+00  0.75437590485E+01  0.94101777166E+01  0.51100000000E-03 0. -1.
        -11    1    3    3    0    0  0.27082645060E+01 -0.14876824306E+01 -0.16803288250E+01  0.35173002246E+01  0.51100000000E-03 0.  1.
         12    1    3    3    0    0 -0.16029740107E+02 -0.18574528911E+02  0.28493820848E+02  0.37601376553E+02  0.00000000000E+00 0. -1.
</event>
<event>
 7    1  0.2903212E-011  0.5052888E+02  0.7816164E-02  0.1300439E+00
        -11   -1    0    0    0    0  0.00000000000E+00  0.00000000000E+00  0.45593999997E+02  0.45594000000E+02  0.51100000000E-03 0. -1.
         11   -1    0    0    0    0 -0.00000000000E+00 -0.00000000000E+00 -0.45593999997E+02  0.45594000000E+02  0.51100000000E-03 0.  1.
    9900012    2    1    2    0    0  0.30285395671E+02  0.36746778961E+01  0.26878537067E+02  0.50528877980E+02  0.30000055107E+02 0.  0.
        -12    1    1    2    0    0 -0.30285395671E+02 -0.36746778961E+01 -0.26878537067E+02  0.40659122020E+02  0.00000000000E+00 0.  1.
         11    1    3    3    0    0  0.64474460787E+01  0.11536806909E+02  0.18920865045E+01  0.13350935031E+02  0.51100000000E-03 0. -1.
        -11    1    3    3    0    0  0.38016499388E+00  0.78080960979E+00 -0.85812165822E+00  0.12208857894E+01  0.51100000000E-03 0.  1.
         12    1    3    3    0    0  0.23457784598E+02 -0.86429386227E+01  0.25844572221E+02  0.35957057160E+02  0.00000000000E+00 0. -1.
</event>
<event>
 7    1  0.2903212E-011  0.5052886E+02  0.7816164E-02  0.1300439E+00
        -11   -1    0    0    0    0  0.00000000000E+00  0.00000000000E+00  0.45593999997E+02  0.45594000000E+02  0.51100000000E-03 0.  1.
         11   -1    0    0    0    0 -0.00000000000E+00 -0.00000000000E+00 -0.45593999997E+02  0.45594000000E+02  0.51100000000E-03 0. -1.
    9900012    2    1    2    0    0 -0.29915612556E+02  0.17902924042E+02 -0.20921450080E+02  0.50528860347E+02  0.30000001511E+02 0.  0.
        -12    1    1    2    0    0  0.29915612556E+02 -0.17902924042E+02  0.20921450080E+02  0.40659139653E+02  0.00000000000E+00 0.  1.
         11    1    3    3    0    0 -0.13627803860E+01  0.29820801719E+01 -0.11407521418E+02  0.11869352033E+02  0.51100000000E-03 0. -1.
        -11    1    3    3    0    0 -0.13961779177E+02 -0.25367055054E+01 -0.68331879816E+01  0.15749876535E+02  0.51100000000E-03 0.  1.
        -12    1    3    3    0    0 -0.14591052993E+02  0.17457549376E+02 -0.26807406802E+01  0.22909631779E+02  0.00000000000E+00 0.  1.
</event>
<event>
 7    1  0.2903212E-011  0.5052878E+02  0.7816164E-02  0.1300439E+00
        -11   -1    0    0    0    0  0.00000000000E+00  0.00000000000E+00  0.45593999997E+02  0.45594000000E+02  0.51100000000E-03 0.  1.
         11   -1    0    0    0    0 -0.00000000000E+00 -0.00000000000E+00 -0.45593999997E+02  0.45594000000E+02  0.51100000000E-03 0. -1.
    9900012    2    1    2    0    0  0.21074432799E+02 -0.30569084584E+02 -0.16570191679E+02  0.50528783304E+02  0.29999767329E+02 0.  0.
        -12    1    1    2    0    0 -0.21074432799E+02  0.30569084584E+02  0.16570191679E+02  0.40659216696E+02  0.00000000000E+00 0.  1.
         11    1    3    3    0    0  0.56725322828E+01 -0.16288013936E+02 -0.77960559350E+01  0.18927638756E+02  0.51100000000E-03 0. -1.
        -11    1    3    3    0    0 -0.26057920159E+00 -0.14596907729E+02 -0.29934798455E+01  0.14902970798E+02  0.51100000000E-03 0.  1.
        -12    1    3    3    0    0  0.15662479717E+02  0.31583708053E+00 -0.57806558982E+01  0.16698173750E+02  0.00000000000E+00 0.  1.
</event>
<event>
 7    1  0.2903212E-011  0.5052886E+02  0.7816164E-02  0.1300439E+00
        -11   -1    0    0    0    0  0.00000000000E+00  0.00000000000E+00  0.45593999997E+02  0.45594000000E+02  0.51100000000E-03 0.  1.
         11   -1    0    0    0    0 -0.00000000000E+00 -0.00000000000E+00 -0.45593999997E+02  0.45594000000E+02  0.51100000000E-03 0. -1.
    9900012    2    1    2    0    0  0.47044468154E+01  0.81329344509E+01 -0.39558678268E+02  0.50528862418E+02  0.30000007805E+02 0.  0.
        -12    1    1    2    0    0 -0.47044468154E+01 -0.81329344509E+01  0.39558678268E+02  0.40659137582E+02  0.00000000000E+00 0.  1.
         11    1    3    3    0    0  0.56857543350E+00 -0.27937545688E+01 -0.13847905105E+02  0.14138345684E+02  0.51100000000E-03 0.  1.
        -11    1    3    3    0    0 -0.16387451006E+01 -0.95176022199E+00 -0.22783654219E+02  0.22862332183E+02  0.51100000000E-03 0. -1.
        -12    1    3    3    0    0  0.57746164825E+01  0.11878449242E+02 -0.29271189434E+01  0.13528184550E+02  0.00000000000E+00 0.  1.
</event>
<event>
 7    1  0.2903212E-011  0.5052885E+02  0.7816164E-02  0.1300439E+00
        -11   -1    0    0    0    0  0.00000000000E+00  0.00000000000E+00  0.45593999997E+02  0.45594000000E+02  0.51100000000E-03 0.  1.
         11   -1    0    0    0    0 -0.00000000000E+00 -0.00000000000E+00 -0.45593999997E+02  0.45594000000E+02  0.51100000000E-03 0. -1.
    9900012    2    1    2    0    0 -0.14438408658E+02  0.83187506036E+01 -0.37087698934E+02  0.50528847667E+02  0.29999962969E+02 0.  0.
        -12    1    1    2    0    0  0.14438408658E+02 -0.83187506036E+01  0.37087698934E+02  0.40659152333E+02  0.00000000000E+00 0.  1.
         11    1    3    3    0    0 -0.46751302440E+01  0.31600044245E+01 -0.16116685907E+01  0.58685557566E+01  0.51100000000E-03 0. -1.
        -11    1    3    3    0    0 -0.14006980922E+02  0.81184025623E+01 -0.10832258291E+02  0.19479265763E+02  0.51100000000E-03 0.  1.
         12    1    3    3    0    0  0.42437025077E+01 -0.29596563833E+01 -0.24643772053E+02  0.25181026148E+02  0.00000000000E+00 0. -1.
</event>
<event>
 7    1  0.2903212E-011  0.5052886E+02  0.7816164E-02  0.1300439E+00
        -11   -1    0    0    0    0  0.00000000000E+00  0.00000000000E+00  0.45593999997E+02  0.45594000000E+02  0.51100000000E-03 0.  1.
         11   -1    0    0    0    0 -0.00000000000E+00 -0.00000000000E+00 -0.45593999997E+02  0.45594000000E+02  0.51100000000E-03 0. -1.
    9900012    2    1    2    0    0 -0.82877720628E+01  0.36899636850E+02  0.14929672957E+02  0.50528862035E+02  0.30000006643E+02 0.  0.
        -12    1    1    2    0    0  0.82877720628E+01 -0.36899636850E+02 -0.14929672957E+02  0.40659137965E+02  0.00000000000E+00 0.  1.
         11    1    3    3    0    0 -0.98443009676E+01  0.31974193669E+02  0.15422046187E+02  0.36838822337E+02  0.51100000000E-03 0. -1.
        -11    1    3    3    0    0 -0.55006826755E+00  0.83180071622E+01 -0.31297484238E+01  0.89043328614E+01  0.51100000000E-03 0.  1.
         12    1    3    3    0    0  0.21065971724E+01 -0.33925639814E+01  0.26373751937E+01  0.47857068367E+01  0.00000000000E+00 0. -1.
</event>
<event>
 7    1  0.2903212E-011  0.5052886E+02  0.7816164E-02  0.1300439E+00
        -11   -1    0    0    0    0  0.00000000000E+00  0.00000000000E+00  0.45593999997E+02  0.45594000000E+02  0.51100000000E-03 0. -1.
         11   -1    0    0    0    0 -0.00000000000E+00 -0.00000000000E+00 -0.45593999997E+02  0.45594000000E+02  0.51100000000E-03 0.  1.
    9900012    2    1    2    0    0 -0.24554176471E+02  0.11341023980E+02  0.30358518818E+02  0.50528855003E+02  0.29999985267E+02 0.  0.
        -12    1    1    2    0    0  0.24554176471E+02 -0.11341023980E+02 -0.30358518818E+02  0.40659144997E+02  0.00000000000E+00 0.  1.
         11    1    3    3    0    0 -0.75646975868E+01 -0.27310274066E+01  0.26350766586E+01  0.84632611641E+01  0.51100000000E-03 0. -1.
        -11    1    3    3    0    0  0.73420870657E+00 -0.51836767019E+01  0.66587768292E+01  0.84704708073E+01  0.51100000000E-03 0.  1.
        -12    1    3    3    0    0 -0.17723687591E+02  0.19255728088E+02  0.21064665330E+02  0.33595123031E+02  0.00000000000E+00 0.  1.
</event>
<event>
 7    1  0.2903212E-011  0.5052885E+02  0.7816164E-02  0.1300439E+00
        -11   -1    0    0    0    0  0.00000000000E+00  0.00000000000E+00  0.45593999997E+02  0.45594000000E+02  0.51100000000E-03 0.  1.
         11   -1    0    0    0    0 -0.00000000000E+00 -0.00000000000E+00 -0.45593999997E+02  0.45594000000E+02  0.51100000000E-03 0. -1.
    9900012    2    1    2    0    0 -0.63484708684E+01  0.30929307096E+02  0.25617205536E+02  0.50528851715E+02  0.29999975272E+02 0.  0.
        -12    1    1    2    0    0  0.63484708684E+01 -0.30929307096E+02 -0.25617205536E+02  0.40659148285E+02  0.00000000000E+00 0.  1.
         11    1    3    3    0    0 -0.47035101234E+01  0.10073681940E+02  0.16828217411E+01  0.11244285864E+02  0.51100000000E-03 0. -1.
        -11    1    3    3    0    0 -0.10851820535E+02  0.18658937252E+02  0.18065239734E+02  0.28147306002E+02  0.51100000000E-03 0.  1.
        -12    1    3    3    0    0  0.92068597896E+01  0.21966879045E+01  0.58691440602E+01  0.11137259849E+02  0.00000000000E+00 0.  1.
</event>
<event>
 7    1  0.2903212E-011  0.5052886E+02  0.7816164E-02  0.1300439E+00
        -11   -1    0    0    0    0  0.00000000000E+00  0.00000000000E+00  0.45593999997E+02  0.45594000000E+02  0.51100000000E-03 0.  1.
         11   -1    0    0    0    0 -0.00000000000E+00 -0.00000000000E+00 -0.45593999997E+02  0.45594000000E+02  0.51100000000E-03 0. -1.
    9900012    2    1    2    0    0 -0.28202532422E+02 -0.16577502227E+02 -0.24144762587E+02  0.50528856188E+02  0.29999988870E+02 0.  0.
        -12    1    1    2    0    0  0.28202532422E+02  0.16577502227E+02  0.24144762587E+02  0.40659143812E+02  0.00000000000E+00 0.  1.
         11    1    3    3    0    0 -0.93642207886E+01 -0.43869988930E+01 -0.14501042167E+02  0.17810519769E+02  0.51100000000E-03 0. -1.
        -11    1    3    3    0    0 -0.14761660703E+02 -0.97982859910E+01 -0.16619228274E+02  0.24292216526E+02  0.51100000000E-03 0.  1.
        -12    1    3    3    0    0 -0.40766509306E+01 -0.23922173432E+01  0.69755078541E+01  0.84261198929E+01  0.00000000000E+00 0.  1.
</event>
<event>
 7    1  0.2903212E-011  0.5052886E+02  0.7816164E-02  0.1300439E+00
        -11   -1    0    0    0    0  0.00000000000E+00  0.00000000000E+00  0.45593999997E+02  0.45594000000E+02  0.51100000000E-03 0.  1.
         11   -1    0    0    0    0 -0.00000000000E+00 -0.00000000000E+00 -0.45593999997E+02  0.45594000000E+02  0.51100000000E-03 0. -1.
    9900012    2    1    2    0    0  0.11624696220E+02  0.38792424477E+02 -0.36304202616E+01  0.50528859450E+02  0.29999998785E+02 0.  0.
        -12    1    1    2    0    0 -0.11624696220E+02 -0.38792424477E+02  0.36304202616E+01  0.40659140550E+02  0.00000000000E+00 0.  1.
         11    1    3    3    0    0  0.10967006869E+02  0.66549756842E+01 -0.81042387049E+01  0.15173747931E+02  0.51100000000E-03 0. -1.
        -11    1    3    3    0    0  0.24553111872E+01 -0.39486519238E+00  0.41706638814E+00  0.25215900102E+01  0.51100000000E-03 0.  1.
        -12    1    3    3    0    0 -0.17976218364E+01  0.32532313985E+02  0.40567520551E+01  0.32833521509E+02  0.00000000000E+00 0.  1.
</event>
<event>
 7    1  0.2903212E-011  0.5052886E+02  0.7816164E-02  0.1300439E+00
        -11   -1    0    0    0    0  0.00000000000E+00  0.00000000000E+00  0.45593999997E+02  0.45594000000E+02  0.51100000000E-03 0.  1.
         11   -1    0    0    0    0 -0.00000000000E+00 -0.00000000000E+00 -0.45593999997E+02  0.45594000000E+02  0.51100000000E-03 0. -1.
    9900012    2    1    2    0    0  0.18062337353E+02 -0.36426875809E+02  0.79173211572E-02  0.50528863578E+02  0.30000011332E+02 0.  0.
        -12    1    1    2    0    0 -0.18062337353E+02  0.36426875809E+02 -0.79173211572E-02  0.40659136422E+02  0.00000000000E+00 0.  1.
         11    1    3    3    0    0  0.13558457946E+02 -0.39017031875E+02  0.17461592370E+01  0.41342588580E+02  0.51100000000E-03 0. -1.
        -11    1    3    3    0    0 -0.18178461113E+01 -0.28547434798E+00 -0.12491184760E+01  0.22240407632E+01  0.51100000000E-03 0.  1.
        -12    1    3    3    0    0  0.63217255179E+01  0.28756304133E+01 -0.48912343984E+00  0.69622342346E+01  0.00000000000E+00 0.  1.
</event>
<event>
 7    1  0.2903212E-011  0.5052884E+02  0.7816164E-02  0.1300439E+00
        -11   -1    0    0    0    0  0.00000000000E+00  0.00000000000E+00  0.45593999997E+02  0.45594000000E+02  0.51100000000E-03 0.  1.
         11   -1    0    0    0    0 -0.00000000000E+00 -0.00000000000E+00 -0.45593999997E+02  0.45594000000E+02  0.51100000000E-03 0. -1.
    9900012    2    1    2    0    0 -0.32716135060E+02  0.14966996919E+02 -0.18942300194E+02  0.50528840803E+02  0.29999942104E+02 0.  0.
        -12    1    1    2    0    0  0.32716135060E+02 -0.14966996919E+02  0.18942300194E+02  0.40659159197E+02  0.00000000000E+00 0.  1.
         11    1    3    3    0    0 -0.20230165207E+02  0.46479300469E+01 -0.19440912506E+02  0.28439618797E+02  0.51100000000E-03 0. -1.
        -11    1    3    3    0    0  0.70062986697E+00  0.39674152608E+01 -0.50288854661E+01  0.64436756090E+01  0.51100000000E-03 0.  1.
        -12    1    3    3    0    0 -0.13186599720E+02  0.63516516109E+01  0.55274977779E+01  0.15645546396E+02  0.00000000000E+00 0.  1.
</event>
<event>
 7    1  0.2903212E-011  0.5052884E+02  0.7816164E-02  0.1300439E+00
        -11   -1    0    0    0    0  0.00000000000E+00  0.00000000000E+00  0.45593999997E+02  0.45594000000E+02  0.51100000000E-03 0. -1.
         11   -1    0    0    0    0 -0.00000000000E+00 -0.00000000000E+00 -0.45593999997E+02  0.45594000000E+02  0.51100000000E-03 0.  1.
    9900012    2    1    2    0    0 -0.19006353549E+02 -0.12026061034E+02  0.33871806548E+02  0.50528844843E+02  0.29999954386E+02 0.  0.
        -12    1    1    2    0    0  0.19006353549E+02  0.12026061034E+02 -0.33871806548E+02  0.40659155157E+02  0.00000000000E+00 0.  1.
         11    1    3    3    0    0  0.31587906102E+01 -0.10421215372E+02  0.50838677021E+01  0.12017711888E+02  0.51100000000E-03 0. -1.
        -11    1    3    3    0    0 -0.94993808706E+00 -0.40760020900E+01  0.39810549251E+01  0.57762422027E+01  0.51100000000E-03 0.  1.
        -12    1    3    3    0    0 -0.21215206072E+02  0.24711564275E+01  0.24806883921E+02  0.32734890753E+02  0.00000000000E+00 0.  1.
</event>
<event>
 7    1  0.2903212E-011  0.5052886E+02  0.7816164E-02  0.1300439E+00
        -11   -1    0    0    0    0  0.00000000000E+00  0.00000000000E+00  0.45593999997E+02  0.45594000000E+02  0.51100000000E-03 0. -1.
         11   -1    0    0    0    0 -0.00000000000E+00 -0.00000000000E+00 -0.45593999997E+02  0.45594000000E+02  0.51100000000E-03 0.  1.
    9900012    2    1    2    0    0  0.28775746354E+02  0.37997225974E+01  0.28472513181E+02  0.50528862320E+02  0.30000007509E+02 0.  0.
        -12    1    1    2    0    0 -0.28775746354E+02 -0.37997225974E+01 -0.28472513181E+02  0.40659137680E+02  0.00000000000E+00 0.  1.
         11    1    3    3    0    0  0.59024117882E+00 -0.33881764574E+01  0.26456243373E+01  0.43390612754E+01  0.51100000000E-03 0. -1.
        -11    1    3    3    0    0  0.17418006171E+02 -0.61570536465E+01  0.48575143782E+01  0.19102138487E+02  0.51100000000E-03 0.  1.
        -12    1    3    3    0    0  0.10767499004E+02  0.13344952701E+02  0.20969374465E+02  0.27087662558E+02  0.00000000000E+00 0.  1.
</event>
<event>
 7    1  0.2903212E-011  0.5052886E+02  0.7816164E-02  0.1300439E+00
        -11   -1    0    0    0    0  0.00000000000E+00  0.00000000000E+00  0.45593999997E+02  0.45594000000E+02  0.51100000000E-03 0. -1.
         11   -1    0    0    0    0 -0.00000000000E+00 -0.00000000000E+00 -0.45593999997E+02  0.45594000000E+02  0.51100000000E-03 0.  1.
    9900012    2    1    2    0    0  0.28781659056E+02  0.27253689183E+02  0.90564107770E+01  0.50528855293E+02  0.29999986149E+02 0.  0.
        -12    1    1    2    0    0 -0.28781659056E+02 -0.27253689183E+02 -0.90564107770E+01  0.40659144707E+02  0.00000000000E+00 0.  1.
         11    1    3    3    0    0  0.18400253568E+02  0.85660315421E+01 -0.72405462973E+00  0.20309369343E+02  0.51100000000E-03 0. -1.
        -11    1    3    3    0    0  0.71171066110E+01 -0.50806832029E-01  0.85987023731E+01  0.11162144534E+02  0.51100000000E-03 0.  1.
        -12    1    3    3    0    0  0.32642988776E+01  0.18738464473E+02  0.11817630337E+01  0.19057341416E+02  0.00000000000E+00 0.  1.
</event>
<event>
 7    1  0.2903212E-011  0.5052886E+02  0.7816164E-02  0.1300439E+00
        -11   -1    0    0    0    0  0.00000000000E+00  0.00000000000E+00  0.45593999997E+02  0.45594000000E+02  0.51100000000E-03 0.  1.
         11   -1    0    0    0    0 -0.00000000000E+00 -0.00000000000E+00 -0.45593999997E+02  0.45594000000E+02  0.51100000000E-03 0. -1.
    9900012    2    1    2    0    0 -0.37260162813E+02  0.13745516668E+01  0.16215934214E+02  0.50528860221E+02  0.30000001128E+02 0.  0.
        -12    1    1    2    0    0  0.37260162813E+02 -0.13745516668E+01 -0.16215934214E+02  0.40659139779E+02  0.00000000000E+00 0.  1.
         11    1    3    3    0    0 -0.11318294974E+02 -0.29896424391E+01 -0.70697804356E+01  0.13675655695E+02  0.51100000000E-03 0. -1.
        -11    1    3    3    0    0 -0.22915444726E+01  0.43004362783E+01  0.47464355936E+01  0.68024686225E+01  0.51100000000E-03 0.  1.
        -12    1    3    3    0    0 -0.23650323366E+02  0.63757827542E-01  0.18539279056E+02  0.30050735903E+02  0.00000000000E+00 0.  1.
</event>
<event>
 7    1  0.2903212E-011  0.5052887E+02  0.7816164E-02  0.1300439E+00
        -11   -1    0    0    0    0  0.00000000000E+00  0.00000000000E+00  0.45593999997E+02  0.45594000000E+02  0.51100000000E-03 0.  1.
         11   -1    0    0    0    0 -0.00000000000E+00 -0.00000000000E+00 -0.45593999997E+02  0.45594000000E+02  0.51100000000E-03 0. -1.
    9900012    2    1    2    0    0 -0.18609225455E+01 -0.36005834565E+02 -0.18795788993E+02  0.50528870161E+02  0.30000031341E+02 0.  0.
        -12    1    1    2    0    0  0.18609225455E+01  0.36005834565E+02  0.18795788993E+02  0.40659129839E+02  0.00000000000E+00 0.  1.
         11    1    3    3    0    0 -0.15927631934E+01 -0.37221730612E+01 -0.40258062505E+01  0.57095168899E+01  0.51100000000E-03 0. -1.
        -11    1    3    3    0    0  0.11188668200E+02 -0.10085353889E+02 -0.12789742048E+02  0.19760520263E+02  0.51100000000E-03 0.  1.
        -12    1    3    3    0    0 -0.11456827552E+02 -0.22198307614E+02 -0.19802406943E+01  0.25058833008E+02  0.00000000000E+00 0.  1.
</event>
<event>
 7    1  0.2903212E-011  0.5052886E+02  0.7816164E-02  0.1300439E+00
        -11   -1    0    0    0    0  0.00000000000E+00  0.00000000000E+00  0.45593999997E+02  0.45594000000E+02  0.51100000000E-03 0. -1.
         11   -1    0    0    0    0 -0.00000000000E+00 -0.00000000000E+00 -0.45593999997E+02  0.45594000000E+02  0.51100000000E-03 0.  1.
    9900012    2    1    2    0    0 -0.11498755547E+02  0.23359961240E+02  0.31229091081E+02  0.50528864520E+02  0.30000014195E+02 0.  0.
        -12    1    1    2    0    0  0.11498755547E+02 -0.23359961240E+02 -0.31229091081E+02  0.40659135480E+02  0.00000000000E+00 0.  1.
         11    1    3    3    0    0  0.30148860923E+01  0.99698270642E+01  0.19925246549E+02  0.22483381422E+02  0.51100000000E-03 0. -1.
        -11    1    3    3    0    0 -0.16402929545E+01 -0.25572562796E+01 -0.19760619676E+01  0.36242160280E+01  0.51100000000E-03 0.  1.
        -12    1    3    3    0    0 -0.12873348684E+02  0.15947390456E+02  0.13279906499E+02  0.24421267070E+02  0.00000000000E+00 0.  1.
</event>
<event>
 7    1  0.2903212E-011  0.5052881E+02  0.7816164E-02  0.1300439E+00
        -11   -1    0    0    0    0  0.00000000000E+00  0.00000000000E+00  0.45593999997E+02  0.45594000000E+02  0.51100000000E-03 0. -1.
         11   -1    0    0    0    0 -0.00000000000E+00 -0.00000000000E+00 -0.45593999997E+02  0.45594000000E+02  0.51100000000E-03 0.  1.
    9900012    2    1    2    0    0 -0.18360187416E+02 -0.16668512640E+02  0.32221636849E+02  0.50528810672E+02  0.29999850519E+02 0.  0.
        -12    1    1    2    0    0  0.18360187416E+02  0.16668512640E+02 -0.32221636849E+02  0.40659189328E+02  0.00000000000E+00 0.  1.
         11    1    3    3    0    0 -0.65827636656E+01 -0.15487541246E+01  0.12929579420E+02  0.14591279623E+02  0.51100000000E-03 0. -1.
        -11    1    3    3    0    0 -0.17729860491E+01  0.43257452469E+01  0.12011580524E+02  0.12889283084E+02  0.51100000000E-03 0.  1.
        -12    1    3    3    0    0 -0.10004437701E+02 -0.19445503762E+02  0.72804769051E+01  0.23048247965E+02  0.00000000000E+00 0.  1.
</event>
<event>
 7    1  0.2903212E-011  0.5052886E+02  0.7816164E-02  0.1300439E+00
        -11   -1    0    0    0    0  0.00000000000E+00  0.00000000000E+00  0.45593999997E+02  0.45594000000E+02  0.51100000000E-03 0. -1.
         11   -1    0    0    0    0 -0.00000000000E+00 -0.00000000000E+00 -0.45593999997E+02  0.45594000000E+02  0.51100000000E-03 0.  1.
    9900012    2    1    2    0    0  0.15943454115E+01 -0.18907752096E+02  0.35959982266E+02  0.50528863866E+02  0.30000012207E+02 0.  0.
        -12    1    1    2    0    0 -0.15943454115E+01  0.18907752096E+02 -0.35959982266E+02  0.40659136134E+02  0.00000000000E+00 0.  1.
         11    1    3    3    0    0  0.19155467624E+01 -0.11108868384E+02  0.89968540201E+01  0.14422886628E+02  0.51100000000E-03 0. -1.
        -11    1    3    3    0    0  0.60063044021E+00 -0.57230996869E+01 -0.26996896128E+01  0.63563315850E+01  0.51100000000E-03 0.  1.
        -12    1    3    3    0    0 -0.92183179110E+00 -0.20757840251E+01  0.29662817858E+02  0.29749645653E+02  0.00000000000E+00 0.  1.
</event>
<event>
 7    1  0.2903212E-011  0.5052887E+02  0.7816164E-02  0.1300439E+00
        -11   -1    0    0    0    0  0.00000000000E+00  0.00000000000E+00  0.45593999997E+02  0.45594000000E+02  0.51100000000E-03 0.  1.
         11   -1    0    0    0    0 -0.00000000000E+00 -0.00000000000E+00 -0.45593999997E+02  0.45594000000E+02  0.51100000000E-03 0. -1.
    9900012    2    1    2    0    0 -0.29220083575E+02  0.25917511764E+02 -0.11297512576E+02  0.50528874449E+02  0.30000044376E+02 0.  0.
        -12    1    1    2    0    0  0.29220083575E+02 -0.25917511764E+02  0.11297512576E+02  0.40659125551E+02  0.00000000000E+00 0.  1.
         11    1    3    3    0    0 -0.18349950681E+02  0.20587488583E+02 -0.12993304913E+02  0.30485920504E+02  0.51100000000E-03 0.  1.
        -11    1    3    3    0    0 -0.56463895783E+01 -0.10638801462E+01 -0.63158461973E+01  0.85383528672E+01  0.51100000000E-03 0. -1.
        -12    1    3    3    0    0 -0.52237433155E+01  0.63939033267E+01  0.80116385334E+01  0.11504601078E+02  0.00000000000E+00 0.  1.
</event>
<event>
 7    1  0.2903212E-011  0.5052886E+02  0.7816164E-02  0.1300439E+00
        -11   -1    0    0    0    0  0.00000000000E+00  0.00000000000E+00  0.45593999997E+02  0.45594000000E+02  0.51100000000E-03 0.  1.
         11   -1    0    0    0    0 -0.00000000000E+00 -0.00000000000E+00 -0.45593999997E+02  0.45594000000E+02  0.51100000000E-03 0. -1.
    9900012    2    1    2    0    0  0.27434813119E+02 -0.91231513167E+01 -0.28587846026E+02  0.50528858332E+02  0.29999995385E+02 0.  0.
        -12    1    1    2    0    0 -0.27434813119E+02  0.91231513167E+01  0.28587846026E+02  0.40659141668E+02  0.00000000000E+00 0.  1.
         11    1    3    3    0    0  0.12065922149E+02 -0.41228679469E+01 -0.11815119177E+02  0.17383370181E+02  0.51100000000E-03 0. -1.
        -11    1    3    3    0    0  0.14422672850E+02  0.30550158444E+01 -0.19627013320E+02  0.24547225221E+02  0.51100000000E-03 0.  1.
        -12    1    3    3    0    0  0.94621811959E+00 -0.80552992141E+01  0.28542864705E+01  0.85982629301E+01  0.00000000000E+00 0.  1.
</event>
<event>
 7    1  0.2903212E-011  0.5052887E+02  0.7816164E-02  0.1300439E+00
        -11   -1    0    0    0    0  0.00000000000E+00  0.00000000000E+00  0.45593999997E+02  0.45594000000E+02  0.51100000000E-03 0.  1.
         11   -1    0    0    0    0 -0.00000000000E+00 -0.00000000000E+00 -0.45593999997E+02  0.45594000000E+02  0.51100000000E-03 0. -1.
    9900012    2    1    2    0    0 -0.94433124224E+01 -0.30216230269E+02 -0.25514075410E+02  0.50528871072E+02  0.30000034111E+02 0.  0.
        -12    1    1    2    0    0  0.94433124224E+01  0.30216230269E+02  0.25514075410E+02  0.40659128928E+02  0.00000000000E+00 0.  1.
         11    1    3    3    0    0  0.39402653110E+00 -0.58475124762E+01 -0.12761874207E+02  0.14043293510E+02  0.51100000000E-03 0. -1.
        -11    1    3    3    0    0 -0.30954820537E+01 -0.15510349586E+02 -0.18183132266E+02  0.24099362080E+02  0.51100000000E-03 0.  1.
        -12    1    3    3    0    0 -0.67418568998E+01 -0.88583682068E+01  0.54309310634E+01  0.12386215482E+02  0.00000000000E+00 0.  1.
</event>
<event>
 7    1  0.2903212E-011  0.5052883E+02  0.7816164E-02  0.1300439E+00
        -11   -1    0    0    0    0  0.00000000000E+00  0.00000000000E+00  0.45593999997E+02  0.45594000000E+02  0.51100000000E-03 0.  1.
         11   -1    0    0    0    0 -0.00000000000E+00 -0.00000000000E+00 -0.45593999997E+02  0.45594000000E+02  0.51100000000E-03 0. -1.
    9900012    2    1    2    0    0 -0.35227033331E+02 -0.12507988805E+02 -0.15992960856E+02  0.50528825658E+02  0.29999896070E+02 0.  0.
        -12    1    1    2    0    0  0.35227033331E+02  0.12507988805E+02  0.15992960856E+02  0.40659174342E+02  0.00000000000E+00 0.  1.
         11    1    3    3    0    0  0.84311721551E+00 -0.14984089135E+01 -0.57215703224E+01  0.59743152852E+01  0.51100000000E-03 0. -1.
        -11    1    3    3    0    0 -0.19298898793E+02  0.24253687791E+01  0.24152422238E+01  0.19600084275E+02  0.51100000000E-03 0.  1.
         12    1    3    3    0    0 -0.16771251754E+02 -0.13434948670E+02 -0.12686632757E+02  0.24954426098E+02  0.00000000000E+00 0. -1.
</event>
<event>
 7    1  0.2903212E-011  0.5052887E+02  0.7816164E-02  0.1300439E+00
        -11   -1    0    0    0    0  0.00000000000E+00  0.00000000000E+00  0.45593999997E+02  0.45594000000E+02  0.51100000000E-03 0.  1.
         11   -1    0    0    0    0 -0.00000000000E+00 -0.00000000000E+00 -0.45593999997E+02  0.45594000000E+02  0.51100000000E-03 0. -1.
    9900012    2    1    2    0    0 -0.96160310879E+00 -0.34817351914E+02  0.20975991522E+02  0.50528869473E+02  0.30000029250E+02 0.  0.
        -12    1    1    2    0    0  0.96160310879E+00  0.34817351914E+02 -0.20975991522E+02  0.40659130527E+02  0.00000000000E+00 0.  1.
         11    1    3    3    0    0  0.25751455620E+01  0.21098131551E+01 -0.13222298811E+01  0.35820355016E+01  0.51100000000E-03 0. -1.
        -11    1    3    3    0    0  0.57301361282E+01 -0.38625393094E+01  0.27797259345E+01  0.74485264647E+01  0.51100000000E-03 0.  1.
        -12    1    3    3    0    0 -0.92668847989E+01 -0.33064625760E+02  0.19518495469E+02  0.39498307507E+02  0.00000000000E+00 0.  1.
</event>
<event>
 7    1  0.2903212E-011  0.5052887E+02  0.7816164E-02  0.1300439E+00
        -11   -1    0    0    0    0  0.00000000000E+00  0.00000000000E+00  0.45593999997E+02  0.45594000000E+02  0.51100000000E-03 0.  1.
         11   -1    0    0    0    0 -0.00000000000E+00 -0.00000000000E+00 -0.45593999997E+02  0.45594000000E+02  0.51100000000E-03 0. -1.
    9900012    2    1    2    0    0  0.18307590090E+02 -0.12552964268E+02 -0.34064940677E+02  0.50528868797E+02  0.30000027196E+02 0.  0.
        -12    1    1    2    0    0 -0.18307590090E+02  0.12552964268E+02  0.34064940677E+02  0.40659131203E+02  0.00000000000E+00 0.  1.
         11    1    3    3    0    0 -0.14412197577E+01 -0.20182663709E+01 -0.93416509110E+00  0.26501279616E+01  0.51100000000E-03 0. -1.
        -11    1    3    3    0    0 -0.23443330198E+01  0.60203215988E+01 -0.97746523886E+01  0.11716825468E+02  0.51100000000E-03 0.  1.
         12    1    3    3    0    0  0.22093142868E+02 -0.16555019496E+02 -0.23356123197E+02  0.36161915368E+02  0.00000000000E+00 0. -1.
</event>
<event>
 7    1  0.2903212E-011  0.5052886E+02  0.7816164E-02  0.1300439E+00
        -11   -1    0    0    0    0  0.00000000000E+00  0.00000000000E+00  0.45593999997E+02  0.45594000000E+02  0.51100000000E-03 0.  1.
         11   -1    0    0    0    0 -0.00000000000E+00 -0.00000000000E+00 -0.45593999997E+02  0.45594000000E+02  0.51100000000E-03 0. -1.
    9900012    2    1    2    0    0 -0.15725057671E+02 -0.37149650048E+02 -0.50785548715E+01  0.50528860104E+02  0.30000000774E+02 0.  0.
        -12    1    1    2    0    0  0.15725057671E+02  0.37149650048E+02  0.50785548715E+01  0.40659139896E+02  0.00000000000E+00 0.  1.
         11    1    3    3    0    0 -0.55081289269E+01 -0.10957715814E+02  0.27131095941E+01  0.12560731828E+02  0.51100000000E-03 0. -1.
        -11    1    3    3    0    0  0.54601786421E+01 -0.12214011698E+02 -0.10204409463E+02  0.16826336657E+02  0.51100000000E-03 0.  1.
         12    1    3    3    0    0 -0.15677107386E+02 -0.13977922536E+02  0.24127449971E+01  0.21141791619E+02  0.00000000000E+00 0. -1.
</event>
<event>
 7    1  0.2903212E-011  0.5052886E+02  0.7816164E-02  0.1300439E+00
        -11   -1    0    0    0    0  0.00000000000E+00  0.00000000000E+00  0.45593999997E+02  0.45594000000E+02  0.51100000000E-03 0.  1.
         11   -1    0    0    0    0 -0.00000000000E+00 -0.00000000000E+00 -0.45593999997E+02  0.45594000000E+02  0.51100000000E-03 0. -1.
    9900012    2    1    2    0    0  0.31584713827E+02  0.63328105976E+01 -0.24808604009E+02  0.50528862399E+02  0.30000007748E+02 0.  0.
        -12    1    1    2    0    0 -0.31584713827E+02 -0.63328105976E+01  0.24808604009E+02  0.40659137601E+02  0.00000000000E+00 0.  1.
         11    1    3    3    0    0  0.10213514501E+02  0.30918933441E+01 -0.61818512249E+01  0.12332516683E+02  0.51100000000E-03 0. -1.
        -11    1    3    3    0    0  0.16049243783E+02  0.12229768357E+02 -0.45800243385E+01  0.20691111214E+02  0.51100000000E-03 0.  1.
        -12    1    3    3    0    0  0.53219555429E+01 -0.89888511032E+01 -0.14046728445E+02  0.17505234502E+02  0.00000000000E+00 0.  1.
</event>
<event>
 7    1  0.2903212E-011  0.5052886E+02  0.7816164E-02  0.1300439E+00
        -11   -1    0    0    0    0  0.00000000000E+00  0.00000000000E+00  0.45593999997E+02  0.45594000000E+02  0.51100000000E-03 0.  1.
         11   -1    0    0    0    0 -0.00000000000E+00 -0.00000000000E+00 -0.45593999997E+02  0.45594000000E+02  0.51100000000E-03 0. -1.
    9900012    2    1    2    0    0 -0.38287260817E+01 -0.31460379840E+02  0.25470594115E+02  0.50528858253E+02  0.29999995144E+02 0.  0.
        -12    1    1    2    0    0  0.38287260817E+01  0.31460379840E+02 -0.25470594115E+02  0.40659141747E+02  0.00000000000E+00 0.  1.
         11    1    3    3    0    0 -0.65057700468E+01 -0.23503765528E+01 -0.28812016940E+01  0.74933728924E+01  0.51100000000E-03 0. -1.
        -11    1    3    3    0    0 -0.51629539099E+01 -0.80829566433E+01  0.57374626253E+01  0.11176258713E+02  0.51100000000E-03 0.  1.
        -12    1    3    3    0    0  0.78399978750E+01 -0.21027046644E+02  0.22614333184E+02  0.31859226648E+02  0.00000000000E+00 0.  1.
</event>
<event>
 7    1  0.2903212E-011  0.5052886E+02  0.7816164E-02  0.1300439E+00
        -11   -1    0    0    0    0  0.00000000000E+00  0.00000000000E+00  0.45593999997E+02  0.45594000000E+02  0.51100000000E-03 0.  1.
         11   -1    0    0    0    0 -0.00000000000E+00 -0.00000000000E+00 -0.45593999997E+02  0.45594000000E+02  0.51100000000E-03 0. -1.
    9900012    2    1    2    0    0  0.23833115466E+02 -0.29000530790E+02 -0.15624259533E+02  0.50528860008E+02  0.30000000479E+02 0.  0.
        -12    1    1    2    0    0 -0.23833115466E+02  0.29000530790E+02  0.15624259533E+02  0.40659139992E+02  0.00000000000E+00 0.  1.
         11    1    3    3    0    0  0.85557620061E+01 -0.15650305063E+02 -0.17702967177E+02  0.25130224018E+02  0.51100000000E-03 0. -1.
        -11    1    3    3    0    0 -0.19174644547E+01  0.11553111661E+01 -0.13924646113E+01  0.26363557766E+01  0.51100000000E-03 0.  1.
        -12    1    3    3    0    0  0.17194817915E+02 -0.14505536893E+02  0.34711722545E+01  0.22762280213E+02  0.00000000000E+00 0.  1.
</event>
<event>
 7    1  0.2903212E-011  0.5052886E+02  0.7816164E-02  0.1300439E+00
        -11   -1    0    0    0    0  0.00000000000E+00  0.00000000000E+00  0.45593999997E+02  0.45594000000E+02  0.51100000000E-03 0.  1.
         11   -1    0    0    0    0 -0.00000000000E+00 -0.00000000000E+00 -0.45593999997E+02  0.45594000000E+02  0.51100000000E-03 0. -1.
    9900012    2    1    2    0    0  0.22430597887E+02  0.25273870915E+02 -0.22611181427E+02  0.50528858370E+02  0.29999995500E+02 0.  0.
        -12    1    1    2    0    0 -0.22430597887E+02 -0.25273870915E+02  0.22611181427E+02  0.40659141630E+02  0.00000000000E+00 0.  1.
         11    1    3    3    0    0  0.97833773954E+01  0.73971970677E+01 -0.11586702353E+02  0.16872601145E+02  0.51100000000E-03 0. -1.
        -11    1    3    3    0    0  0.14612265835E+02  0.67779286006E+01 -0.14693570332E+02  0.21802743825E+02  0.51100000000E-03 0.  1.
        -12    1    3    3    0    0 -0.19650453433E+01  0.11098745247E+02  0.36690912578E+01  0.11853513400E+02  0.00000000000E+00 0.  1.
</event>
<event>
 7    1  0.2903212E-011  0.5052886E+02  0.7816164E-02  0.1300439E+00
        -11   -1    0    0    0    0  0.00000000000E+00  0.00000000000E+00  0.45593999997E+02  0.45594000000E+02  0.51100000000E-03 0. -1.
         11   -1    0    0    0    0 -0.00000000000E+00 -0.00000000000E+00 -0.45593999997E+02  0.45594000000E+02  0.51100000000E-03 0.  1.
    9900012    2    1    2    0    0  0.18345547529E+02 -0.35714504672E+02  0.64094165356E+01  0.50528861071E+02  0.30000003712E+02 0.  0.
        -12    1    1    2    0    0 -0.18345547529E+02  0.35714504672E+02 -0.64094165356E+01  0.40659138929E+02  0.00000000000E+00 0.  1.
         11    1    3    3    0    0 -0.20718065105E+01 -0.47587175075E+00 -0.28459350321E+01  0.35522081313E+01  0.51100000000E-03 0.  1.
        -11    1    3    3    0    0  0.56272383978E+01 -0.11957580541E+02  0.13704355876E+02  0.19038353779E+02  0.51100000000E-03 0. -1.
        -12    1    3    3    0    0  0.14790115642E+02 -0.23281052381E+02 -0.44490043086E+01  0.27938299161E+02  0.00000000000E+00 0.  1.
</event>
<event>
 7    1  0.2903212E-011  0.5052886E+02  0.7816164E-02  0.1300439E+00
        -11   -1    0    0    0    0  0.00000000000E+00  0.00000000000E+00  0.45593999997E+02  0.45594000000E+02  0.51100000000E-03 0. -1.
         11   -1    0    0    0    0 -0.00000000000E+00 -0.00000000000E+00 -0.45593999997E+02  0.45594000000E+02  0.51100000000E-03 0.  1.
    9900012    2    1    2    0    0  0.37529745479E+01 -0.40298153451E+02  0.38909915631E+01  0.50528858286E+02  0.29999995247E+02 0.  0.
        -12    1    1    2    0    0 -0.37529745479E+01  0.40298153451E+02 -0.38909915631E+01  0.40659141714E+02  0.00000000000E+00 0.  1.
         11    1    3    3    0    0  0.24361029408E+01 -0.12673800353E+02  0.13312815763E+02  0.18541598548E+02  0.51100000000E-03 0. -1.
        -11    1    3    3    0    0  0.50880888920E+01 -0.18591123203E+02 -0.13896780783E+01  0.19324847113E+02  0.51100000000E-03 0.  1.
        -12    1    3    3    0    0 -0.37712172849E+01 -0.90332298956E+01 -0.80321461219E+01  0.12662412625E+02  0.00000000000E+00 0.  1.
</event>
<event>
 7    1  0.2903212E-011  0.5052885E+02  0.7816164E-02  0.1300439E+00
        -11   -1    0    0    0    0  0.00000000000E+00  0.00000000000E+00  0.45593999997E+02  0.45594000000E+02  0.51100000000E-03 0.  1.
         11   -1    0    0    0    0 -0.00000000000E+00 -0.00000000000E+00 -0.45593999997E+02  0.45594000000E+02  0.51100000000E-03 0. -1.
    9900012    2    1    2    0    0 -0.37055482637E+02 -0.16383195285E+02 -0.34130338672E+01  0.50528847508E+02  0.29999962484E+02 0.  0.
        -12    1    1    2    0    0  0.37055482637E+02  0.16383195285E+02  0.34130338672E+01  0.40659152492E+02  0.00000000000E+00 0.  1.
         11    1    3    3    0    0 -0.44733449113E+01 -0.50692612075E+01  0.17299998651E+00  0.67629988275E+01  0.51100000000E-03 0. -1.
        -11    1    3    3    0    0 -0.89927074521E+00 -0.91857425442E+01  0.54912218707E+01  0.10739649522E+02  0.51100000000E-03 0.  1.
        -12    1    3    3    0    0 -0.31682866981E+02 -0.21281915329E+01 -0.90772557244E+01  0.33026199158E+02  0.00000000000E+00 0.  1.
</event>
<event>
 7    1  0.2903212E-011  0.5052885E+02  0.7816164E-02  0.1300439E+00
        -11   -1    0    0    0    0  0.00000000000E+00  0.00000000000E+00  0.45593999997E+02  0.45594000000E+02  0.51100000000E-03 0.  1.
         11   -1    0    0    0    0 -0.00000000000E+00 -0.00000000000E+00 -0.45593999997E+02  0.45594000000E+02  0.51100000000E-03 0. -1.
    9900012    2    1    2    0    0  0.31239720545E+02  0.20910093689E+02 -0.15492388015E+02  0.50528852884E+02  0.29999978826E+02 0.  0.
        -12    1    1    2    0    0 -0.31239720545E+02 -0.20910093689E+02  0.15492388015E+02  0.40659147116E+02  0.00000000000E+00 0.  1.
         11    1    3    3    0    0  0.18843656283E+02  0.47557326216E+00 -0.97806356012E+01  0.21236063314E+02  0.51100000000E-03 0. -1.
        -11    1    3    3    0    0  0.25147951908E+01 -0.17479409332E+01 -0.38757367977E+01  0.49397194600E+01  0.51100000000E-03 0.  1.
        -12    1    3    3    0    0  0.98812690708E+01  0.22182461360E+02 -0.18360156157E+01  0.24353070110E+02  0.00000000000E+00 0.  1.
</event>
<event>
 7    1  0.2903212E-011  0.5052886E+02  0.7816164E-02  0.1300439E+00
        -11   -1    0    0    0    0  0.00000000000E+00  0.00000000000E+00  0.45593999997E+02  0.45594000000E+02  0.51100000000E-03 0. -1.
         11   -1    0    0    0    0 -0.00000000000E+00 -0.00000000000E+00 -0.45593999997E+02  0.45594000000E+02  0.51100000000E-03 0.  1.
    9900012    2    1    2    0    0  0.53683832776E+01  0.24373867725E+02  0.32097676537E+02  0.50528858273E+02  0.29999995208E+02 0.  0.
        -12    1    1    2    0    0 -0.53683832776E+01 -0.24373867725E+02 -0.32097676537E+02  0.40659141727E+02  0.00000000000E+00 0.  1.
         11    1    3    3    0    0  0.25885162310E+01  0.66140296746E+01  0.70126336313E+01  0.99811239609E+01  0.51100000000E-03 0. -1.
        -11    1    3    3    0    0 -0.11214375531E+02  0.40777555020E+01  0.66474417562E+01  0.13659384710E+02  0.51100000000E-03 0.  1.
         12    1    3    3    0    0  0.13994242578E+02  0.13682082548E+02  0.18437601149E+02  0.26888349602E+02  0.00000000000E+00 0. -1.
</event>
<event>
 7    1  0.2903212E-011  0.5052887E+02  0.7816164E-02  0.1300439E+00
        -11   -1    0    0    0    0  0.00000000000E+00  0.00000000000E+00  0.45593999997E+02  0.45594000000E+02  0.51100000000E-03 0.  1.
         11   -1    0    0    0    0 -0.00000000000E+00 -0.00000000000E+00 -0.45593999997E+02  0.45594000000E+02  0.51100000000E-03 0. -1.
    9900012    2    1    2    0    0  0.30184219142E+01 -0.36170298584E+02 -0.18323846101E+02  0.50528871795E+02  0.30000036307E+02 0.  0.
        -12    1    1    2    0    0 -0.30184219142E+01  0.36170298584E+02  0.18323846101E+02  0.40659128205E+02  0.00000000000E+00 0.  1.
         11    1    3    3    0    0  0.75248287620E+01 -0.86174855702E+01 -0.50228037621E+01  0.12494505326E+02  0.51100000000E-03 0. -1.
        -11    1    3    3    0    0  0.84389767156E+01 -0.15228834470E+02 -0.39119582855E+01  0.17844807234E+02  0.51100000000E-03 0.  1.
         12    1    3    3    0    0 -0.12945383563E+02 -0.12323978543E+02 -0.93890840529E+01  0.20189559235E+02  0.00000000000E+00 0. -1.
</event>
<event>
 7    1  0.2903212E-011  0.5052886E+02  0.7816164E-02  0.1300439E+00
        -11   -1    0    0    0    0  0.00000000000E+00  0.00000000000E+00  0.45593999997E+02  0.45594000000E+02  0.51100000000E-03 0. -1.
         11   -1    0    0    0    0 -0.00000000000E+00 -0.00000000000E+00 -0.45593999997E+02  0.45594000000E+02  0.51100000000E-03 0.  1.
    9900012    2    1    2    0    0 -0.31737801464E+02 -0.21299477287E+02  0.13863976280E+02  0.50528860649E+02  0.30000002428E+02 0.  0.
        -12    1    1    2    0    0  0.31737801464E+02  0.21299477287E+02 -0.13863976280E+02  0.40659139351E+02  0.00000000000E+00 0.  1.
         11    1    3    3    0    0  0.11931803379E+01 -0.18471044741E+00 -0.82315058280E+00  0.14612920349E+01  0.51100000000E-03 0. -1.
        -11    1    3    3    0    0  0.62895211334E+00  0.29340200605E+01 -0.29163874516E+01  0.41844199723E+01  0.51100000000E-03 0.  1.
         12    1    3    3    0    0 -0.33559933916E+02 -0.24048786900E+02  0.17603514314E+02  0.44883148642E+02  0.00000000000E+00 0. -1.
</event>
<event>
 7    1  0.2903212E-011  0.5052886E+02  0.7816164E-02  0.1300439E+00
        -11   -1    0    0    0    0  0.00000000000E+00  0.00000000000E+00  0.45593999997E+02  0.45594000000E+02  0.51100000000E-03 0. -1.
         11   -1    0    0    0    0 -0.00000000000E+00 -0.00000000000E+00 -0.45593999997E+02  0.45594000000E+02  0.51100000000E-03 0.  1.
    9900012    2    1    2    0    0  0.77965165229E+01  0.16590082903E+02  0.36292548901E+02  0.50528860482E+02  0.30000001922E+02 0.  0.
        -12    1    1    2    0    0 -0.77965165229E+01 -0.16590082903E+02 -0.36292548901E+02  0.40659139518E+02  0.00000000000E+00 0.  1.
         11    1    3    3    0    0 -0.50736034796E+01  0.14060034466E+01  0.92077782788E+01  0.10606671441E+02  0.51100000000E-03 0.  1.
        -11    1    3    3    0    0  0.13216563183E+01 -0.41730872960E+00  0.18744475459E+02  0.18795645307E+02  0.51100000000E-03 0. -1.
        -12    1    3    3    0    0  0.11548463684E+02  0.15601388186E+02  0.83402951630E+01  0.21126543735E+02  0.00000000000E+00 0.  1.
</event>
<event>
 7    1  0.2903212E-011  0.5052886E+02  0.7816164E-02  0.1300439E+00
        -11   -1    0    0    0    0  0.00000000000E+00  0.00000000000E+00  0.45593999997E+02  0.45594000000E+02  0.51100000000E-03 0.  1.
         11   -1    0    0    0    0 -0.00000000000E+00 -0.00000000000E+00 -0.45593999997E+02  0.45594000000E+02  0.51100000000E-03 0. -1.
    9900012    2    1    2    0    0  0.17781954423E+01  0.16442065556E+02 -0.37143805218E+02  0.50528858779E+02  0.29999996745E+02 0.  0.
        -12    1    1    2    0    0 -0.17781954423E+01 -0.16442065556E+02  0.37143805218E+02  0.40659141221E+02  0.00000000000E+00 0.  1.
         11    1    3    3    0    0  0.79083787814E+01  0.79544791889E-01 -0.37767631993E+01  0.87642867850E+01  0.51100000000E-03 0. -1.
        -11    1    3    3    0    0  0.21508487036E+01 -0.31962140870E+01 -0.44611496792E+01  0.58943864275E+01  0.51100000000E-03 0.  1.
        -12    1    3    3    0    0 -0.82810320428E+01  0.19558734851E+02 -0.28905892339E+02  0.35870185567E+02  0.00000000000E+00 0.  1.
</event>
<event>
 7    1  0.2903212E-011  0.5052886E+02  0.7816164E-02  0.1300439E+00
        -11   -1    0    0    0    0  0.00000000000E+00  0.00000000000E+00  0.45593999997E+02  0.45594000000E+02  0.51100000000E-03 0. -1.
         11   -1    0    0    0    0 -0.00000000000E+00 -0.00000000000E+00 -0.45593999997E+02  0.45594000000E+02  0.51100000000E-03 0.  1.
    9900012    2    1    2    0    0  0.11552702248E+02 -0.58778485966E+01  0.38537669966E+02  0.50528855398E+02  0.29999986467E+02 0.  0.
        -12    1    1    2    0    0 -0.11552702248E+02  0.58778485966E+01 -0.38537669966E+02  0.40659144602E+02  0.00000000000E+00 0.  1.
         11    1    3    3    0    0  0.24168234037E+01 -0.28846932218E+01  0.78557808362E+00  0.38444275953E+01  0.51100000000E-03 0. -1.
        -11    1    3    3    0    0  0.45221895112E+01 -0.72469854993E+01  0.13064917943E+00  0.85431882966E+01  0.51100000000E-03 0.  1.
         12    1    3    3    0    0  0.46136893327E+01  0.42538301245E+01  0.37621442703E+02  0.38141239506E+02  0.00000000000E+00 0. -1.
</event>
<event>
 7    1  0.2903212E-011  0.5052886E+02  0.7816164E-02  0.1300439E+00
        -11   -1    0    0    0    0  0.00000000000E+00  0.00000000000E+00  0.45593999997E+02  0.45594000000E+02  0.51100000000E-03 0.  1.
         11   -1    0    0    0    0 -0.00000000000E+00 -0.00000000000E+00 -0.45593999997E+02  0.45594000000E+02  0.51100000000E-03 0. -1.
    9900012    2    1    2    0    0 -0.55818839672E+01 -0.33440231681E+02 -0.22444585930E+02  0.50528856366E+02  0.29999989409E+02 0.  0.
        -12    1    1    2    0    0  0.55818839672E+01  0.33440231681E+02  0.22444585930E+02  0.40659143634E+02  0.00000000000E+00 0.  1.
         11    1    3    3    0    0  0.91767946531E+01 -0.13649032477E+02 -0.39168420471E+01  0.16907137533E+02  0.51100000000E-03 0. -1.
        -11    1    3    3    0    0 -0.47381997733E+01 -0.61453122269E+01  0.94645696456E+00  0.78173640382E+01  0.51100000000E-03 0.  1.
         12    1    3    3    0    0 -0.10020478847E+02 -0.13645886977E+02 -0.19474200848E+02  0.25804354795E+02  0.00000000000E+00 0. -1.
</event>
<event>
 7    1  0.2903212E-011  0.5052885E+02  0.7816164E-02  0.1300439E+00
        -11   -1    0    0    0    0  0.00000000000E+00  0.00000000000E+00  0.45593999997E+02  0.45594000000E+02  0.51100000000E-03 0. -1.
         11   -1    0    0    0    0 -0.00000000000E+00 -0.00000000000E+00 -0.45593999997E+02  0.45594000000E+02  0.51100000000E-03 0.  1.
    9900012    2    1    2    0    0  0.80190801429E+01 -0.54612863645E+01  0.39484619637E+02  0.50528849948E+02  0.29999969901E+02 0.  0.
        -12    1    1    2    0    0 -0.80190801429E+01  0.54612863645E+01 -0.39484619637E+02  0.40659150052E+02  0.00000000000E+00 0.  1.
         11    1    3    3    0    0  0.19524422421E+01 -0.71687315192E+01  0.15072269505E+02  0.16804048637E+02  0.51100000000E-03 0. -1.
        -11    1    3    3    0    0  0.37762021958E+01 -0.98433407369E+01  0.16346972214E+02  0.19451852373E+02  0.51100000000E-03 0.  1.
        -12    1    3    3    0    0  0.22904357050E+01  0.11550785892E+02  0.80653779180E+01  0.14272948938E+02  0.00000000000E+00 0.  1.
</event>
<event>
 7    1  0.2903212E-011  0.5052886E+02  0.7816164E-02  0.1300439E+00
        -11   -1    0    0    0    0  0.00000000000E+00  0.00000000000E+00  0.45593999997E+02  0.45594000000E+02  0.51100000000E-03 0.  1.
         11   -1    0    0    0    0 -0.00000000000E+00 -0.00000000000E+00 -0.45593999997E+02  0.45594000000E+02  0.51100000000E-03 0. -1.
    9900012    2    1    2    0    0 -0.23045078500E+02  0.89566924294E+01 -0.32277975733E+02  0.50528859579E+02  0.29999999176E+02 0.  0.
        -12    1    1    2    0    0  0.23045078500E+02 -0.89566924294E+01  0.32277975733E+02  0.40659140421E+02  0.00000000000E+00 0.  1.
         11    1    3    3    0    0 -0.16126636860E+02 -0.17946755812E+01 -0.29267696231E+02  0.33464717536E+02  0.51100000000E-03 0.  1.
        -11    1    3    3    0    0 -0.86004936833E+01  0.35161126527E+01 -0.86118389578E+00  0.93313009675E+01  0.51100000000E-03 0. -1.
        -12    1    3    3    0    0  0.16820520429E+01  0.72352553579E+01 -0.21490956062E+01  0.77328410752E+01  0.00000000000E+00 0.  1.
</event>
<event>
 7    1  0.2903212E-011  0.5052890E+02  0.7816164E-02  0.1300439E+00
        -11   -1    0    0    0    0  0.00000000000E+00  0.00000000000E+00  0.45593999997E+02  0.45594000000E+02  0.51100000000E-03 0. -1.
         11   -1    0    0    0    0 -0.00000000000E+00 -0.00000000000E+00 -0.45593999997E+02  0.45594000000E+02  0.51100000000E-03 0.  1.
    9900012    2    1    2    0    0 -0.10304908672E+02  0.38844182912E+02  0.61725690960E+01  0.50528901411E+02  0.30000126329E+02 0.  0.
        -12    1    1    2    0    0  0.10304908672E+02 -0.38844182912E+02 -0.61725690960E+01  0.40659098589E+02  0.00000000000E+00 0.  1.
         11    1    3    3    0    0  0.66445578347E+01  0.82894985000E+01  0.15105968037E+01  0.10730696024E+02  0.51100000000E-03 0. -1.
        -11    1    3    3    0    0 -0.96801955951E+01  0.18433646913E+01  0.20574710408E+01  0.10066646288E+02  0.51100000000E-03 0.  1.
         12    1    3    3    0    0 -0.72692709113E+01  0.28711319720E+02  0.26045012516E+01  0.29731559099E+02  0.00000000000E+00 0. -1.
</event>
<event>
 7    1  0.2903212E-011  0.5052888E+02  0.7816164E-02  0.1300439E+00
        -11   -1    0    0    0    0  0.00000000000E+00  0.00000000000E+00  0.45593999997E+02  0.45594000000E+02  0.51100000000E-03 0.  1.
         11   -1    0    0    0    0 -0.00000000000E+00 -0.00000000000E+00 -0.45593999997E+02  0.45594000000E+02  0.51100000000E-03 0. -1.
    9900012    2    1    2    0    0 -0.14720772839E+02 -0.19367130147E+02 -0.32578785541E+02  0.50528878631E+02  0.30000057088E+02 0.  0.
        -12    1    1    2    0    0  0.14720772839E+02  0.19367130147E+02  0.32578785541E+02  0.40659121369E+02  0.00000000000E+00 0.  1.
         11    1    3    3    0    0  0.45551792529E+01 -0.45826058474E+01 -0.92329864323E+00  0.65270525526E+01  0.51100000000E-03 0. -1.
        -11    1    3    3    0    0 -0.31515441420E+00 -0.72128532924E+01 -0.11741609945E+01  0.73145901611E+01  0.51100000000E-03 0.  1.
         12    1    3    3    0    0 -0.18960797678E+02 -0.75716710073E+01 -0.30481325904E+02  0.36687235918E+02  0.00000000000E+00 0. -1.
</event>
<event>
 7    1  0.2903212E-011  0.5052886E+02  0.7816164E-02  0.1300439E+00
        -11   -1    0    0    0    0  0.00000000000E+00  0.00000000000E+00  0.45593999997E+02  0.45594000000E+02  0.51100000000E-03 0. -1.
         11   -1    0    0    0    0 -0.00000000000E+00 -0.00000000000E+00 -0.45593999997E+02  0.45594000000E+02  0.51100000000E-03 0.  1.
    9900012    2    1    2    0    0 -0.35431471822E+02  0.78343479142E+01  0.18341189201E+02  0.50528862970E+02  0.30000009483E+02 0.  0.
        -12    1    1    2    0    0  0.35431471822E+02 -0.78343479142E+01 -0.18341189201E+02  0.40659137030E+02  0.00000000000E+00 0.  1.
         11    1    3    3    0    0 -0.22638289915E+02  0.16861573417E+02  0.64465279325E+01  0.28954491034E+02  0.51100000000E-03 0.  1.
        -11    1    3    3    0    0 -0.67689654167E+01 -0.54308260763E+00  0.79275910762E+01  0.10438416166E+02  0.51100000000E-03 0. -1.
        -12    1    3    3    0    0 -0.60242164903E+01 -0.84841428953E+01  0.39670701928E+01  0.11135955770E+02  0.00000000000E+00 0.  1.
</event>
<event>
 7    1  0.2903212E-011  0.5052886E+02  0.7816164E-02  0.1300439E+00
        -11   -1    0    0    0    0  0.00000000000E+00  0.00000000000E+00  0.45593999997E+02  0.45594000000E+02  0.51100000000E-03 0.  1.
         11   -1    0    0    0    0 -0.00000000000E+00 -0.00000000000E+00 -0.45593999997E+02  0.45594000000E+02  0.51100000000E-03 0. -1.
    9900012    2    1    2    0    0  0.95844692620E+01  0.22770025186E+02 -0.32292865665E+02  0.50528864854E+02  0.30000015210E+02 0.  0.
        -12    1    1    2    0    0 -0.95844692620E+01 -0.22770025186E+02  0.32292865665E+02  0.40659135146E+02  0.00000000000E+00 0.  1.
         11    1    3    3    0    0  0.18370149937E+01  0.26356767625E+02 -0.19435316054E+02  0.32799166668E+02  0.51100000000E-03 0. -1.
        -11    1    3    3    0    0 -0.11674738085E+01 -0.97152233263E+00 -0.59815836814E+01  0.61714013267E+01  0.51100000000E-03 0.  1.
        -12    1    3    3    0    0  0.89149280768E+01 -0.26152201068E+01 -0.68759659295E+01  0.11558296859E+02  0.00000000000E+00 0.  1.
</event>
<event>
 7    1  0.2903212E-011  0.5052885E+02  0.7816164E-02  0.1300439E+00
        -11   -1    0    0    0    0  0.00000000000E+00  0.00000000000E+00  0.45593999997E+02  0.45594000000E+02  0.51100000000E-03 0. -1.
         11   -1    0    0    0    0 -0.00000000000E+00 -0.00000000000E+00 -0.45593999997E+02  0.45594000000E+02  0.51100000000E-03 0.  1.
    9900012    2    1    2    0    0  0.36643001590E+02  0.15544335268E+02  0.82964270790E+01  0.50528848180E+02  0.29999964527E+02 0.  0.
        -12    1    1    2    0    0 -0.36643001590E+02 -0.15544335268E+02 -0.82964270790E+01  0.40659151820E+02  0.00000000000E+00 0.  1.
         11    1    3    3    0    0  0.23996199524E+02  0.19358095825E+02  0.10518425511E+02  0.32575922720E+02  0.51100000000E-03 0. -1.
        -11    1    3    3    0    0  0.14262552670E+02 -0.10012136793E+01 -0.56075829125E+00  0.14308643808E+02  0.51100000000E-03 0.  1.
        -12    1    3    3    0    0 -0.16157506040E+01 -0.28125468778E+01 -0.16612401406E+01  0.36442816519E+01  0.00000000000E+00 0.  1.
</event>
<event>
 7    1  0.2903212E-011  0.5052886E+02  0.7816164E-02  0.1300439E+00
        -11   -1    0    0    0    0  0.00000000000E+00  0.00000000000E+00  0.45593999997E+02  0.45594000000E+02  0.51100000000E-03 0.  1.
         11   -1    0    0    0    0 -0.00000000000E+00 -0.00000000000E+00 -0.45593999997E+02  0.45594000000E+02  0.51100000000E-03 0. -1.
    9900012    2    1    2    0    0 -0.33396440994E+02  0.83543959398E+01 -0.21634395593E+02  0.50528864799E+02  0.30000015043E+02 0.  0.
        -12    1    1    2    0    0  0.33396440994E+02 -0.83543959398E+01  0.21634395593E+02  0.40659135201E+02  0.00000000000E+00 0.  1.
         11    1    3    3    0    0 -0.14976063104E+01  0.83020563783E+01  0.24675713565E+01  0.87895320370E+01  0.51100000000E-03 0. -1.
        -11    1    3    3    0    0 -0.57444591407E+01  0.47956258731E+01 -0.57819424885E+01  0.94566218882E+01  0.51100000000E-03 0.  1.
         12    1    3    3    0    0 -0.26154375543E+02 -0.47432863116E+01 -0.18320024461E+02  0.32282710874E+02  0.00000000000E+00 0. -1.
</event>
<event>
 7    1  0.2903212E-011  0.5052886E+02  0.7816164E-02  0.1300439E+00
        -11   -1    0    0    0    0  0.00000000000E+00  0.00000000000E+00  0.45593999997E+02  0.45594000000E+02  0.51100000000E-03 0.  1.
         11   -1    0    0    0    0 -0.00000000000E+00 -0.00000000000E+00 -0.45593999997E+02  0.45594000000E+02  0.51100000000E-03 0. -1.
    9900012    2    1    2    0    0 -0.21675092039E+02 -0.47396793051E+01 -0.34071860051E+02  0.50528858074E+02  0.29999994603E+02 0.  0.
        -12    1    1    2    0    0  0.21675092039E+02  0.47396793051E+01  0.34071860051E+02  0.40659141926E+02  0.00000000000E+00 0.  1.
         11    1    3    3    0    0 -0.12211706226E+02  0.41100029660E+01 -0.58384873872E+01  0.14145876733E+02  0.51100000000E-03 0.  1.
        -11    1    3    3    0    0 -0.10206054262E+02  0.16341136243E+01 -0.21624426610E+02  0.23967680268E+02  0.51100000000E-03 0. -1.
         12    1    3    3    0    0  0.74266844947E+00 -0.10483795895E+02 -0.66089460534E+01  0.12415301073E+02  0.00000000000E+00 0. -1.
</event>
<event>
 7    1  0.2903212E-011  0.5052886E+02  0.7816164E-02  0.1300439E+00
        -11   -1    0    0    0    0  0.00000000000E+00  0.00000000000E+00  0.45593999997E+02  0.45594000000E+02  0.51100000000E-03 0. -1.
         11   -1    0    0    0    0 -0.00000000000E+00 -0.00000000000E+00 -0.45593999997E+02  0.45594000000E+02  0.51100000000E-03 0.  1.
    9900012    2    1    2    0    0  0.29962263354E+02  0.52344454468E+01  0.26982006067E+02  0.50528864547E+02  0.30000014276E+02 0.  0.
        -12    1    1    2    0    0 -0.29962263354E+02 -0.52344454468E+01 -0.26982006067E+02  0.40659135453E+02  0.00000000000E+00 0.  1.
         11    1    3    3    0    0  0.23898548130E+02  0.40645673001E+01  0.72651239005E+01  0.25306981953E+02  0.51100000000E-03 0.  1.
        -11    1    3    3    0    0  0.97524806214E+01  0.22794167961E+01  0.77894898019E+01  0.12687898598E+02  0.51100000000E-03 0. -1.
        -12    1    3    3    0    0 -0.36887653973E+01 -0.11095386494E+01  0.11927392365E+02  0.12533983995E+02  0.00000000000E+00 0.  1.
</event>
<event>
 7    1  0.2937334E-011  0.5052886E+02  0.7816164E-02  0.1300439E+00
        -11   -1    0    0    0    0  0.00000000000E+00  0.00000000000E+00  0.45593999997E+02  0.45594000000E+02  0.51100000000E-03 0. -1.
         11   -1    0    0    0    0 -0.00000000000E+00 -0.00000000000E+00 -0.45593999997E+02  0.45594000000E+02  0.51100000000E-03 0.  1.
    9900012    2    1    2    0    0 -0.15140916006E+01  0.39563051105E+02  0.92540900676E+01  0.50528859957E+02  0.30000000325E+02 0.  0.
        -12    1    1    2    0    0  0.15140916006E+01 -0.39563051105E+02 -0.92540900676E+01  0.40659140043E+02  0.00000000000E+00 0.  1.
         11    1    3    3    0    0 -0.10470439424E+00 -0.21111661050E+01  0.51815067148E+01  0.55960698199E+01  0.51100000000E-03 0. -1.
        -11    1    3    3    0    0 -0.18670316471E+01  0.19883926335E+01 -0.35928177965E+01  0.45108593877E+01  0.51100000000E-03 0.  1.
         12    1    3    3    0    0  0.45764444069E+00  0.39685824576E+02  0.76654011493E+01  0.40421930749E+02  0.00000000000E+00 0. -1.
</event>
<event>
 7    1  0.2903212E-011  0.5052885E+02  0.7816164E-02  0.1300439E+00
        -11   -1    0    0    0    0  0.00000000000E+00  0.00000000000E+00  0.45593999997E+02  0.45594000000E+02  0.51100000000E-03 0.  1.
         11   -1    0    0    0    0 -0.00000000000E+00 -0.00000000000E+00 -0.45593999997E+02  0.45594000000E+02  0.51100000000E-03 0. -1.
    9900012    2    1    2    0    0 -0.13046885235E+02 -0.24310216268E+02  0.29865681920E+02  0.50528846223E+02  0.29999958579E+02 0.  0.
        -12    1    1    2    0    0  0.13046885235E+02  0.24310216268E+02 -0.29865681920E+02  0.40659153777E+02  0.00000000000E+00 0.  1.
         11    1    3    3    0    0  0.47803630443E+01 -0.48749265644E+01  0.65941550675E+00  0.68594175347E+01  0.51100000000E-03 0. -1.
        -11    1    3    3    0    0  0.20572430132E+01  0.22441244772E+01  0.25505641164E+01  0.39716144145E+01  0.51100000000E-03 0.  1.
         12    1    3    3    0    0 -0.19884491292E+02 -0.21679414181E+02  0.26655702297E+02  0.39697814274E+02  0.00000000000E+00 0. -1.
</event>
<event>
 7    1  0.2903212E-011  0.5052888E+02  0.7816164E-02  0.1300439E+00
        -11   -1    0    0    0    0  0.00000000000E+00  0.00000000000E+00  0.45593999997E+02  0.45594000000E+02  0.51100000000E-03 0.  1.
         11   -1    0    0    0    0 -0.00000000000E+00 -0.00000000000E+00 -0.45593999997E+02  0.45594000000E+02  0.51100000000E-03 0. -1.
    9900012    2    1    2    0    0 -0.61451954195E+01 -0.23285746393E+02 -0.32759341398E+02  0.50528882195E+02  0.30000067921E+02 0.  0.
        -12    1    1    2    0    0  0.61451954195E+01  0.23285746393E+02  0.32759341398E+02  0.40659117805E+02  0.00000000000E+00 0.  1.
         11    1    3    3    0    0  0.15254063512E+01 -0.16203449402E+02 -0.22091353612E+02  0.27439142511E+02  0.51100000000E-03 0. -1.
        -11    1    3    3    0    0 -0.93253041283E+01 -0.87688880916E+01 -0.67188879647E+00  0.12818195281E+02  0.51100000000E-03 0.  1.
         12    1    3    3    0    0  0.16547023576E+01  0.16865911001E+01 -0.99960989894E+01  0.10271544404E+02  0.00000000000E+00 0. -1.
</event>
<event>
 7    1  0.2903212E-011  0.5052886E+02  0.7816164E-02  0.1300439E+00
        -11   -1    0    0    0    0  0.00000000000E+00  0.00000000000E+00  0.45593999997E+02  0.45594000000E+02  0.51100000000E-03 0.  1.
         11   -1    0    0    0    0 -0.00000000000E+00 -0.00000000000E+00 -0.45593999997E+02  0.45594000000E+02  0.51100000000E-03 0. -1.
    9900012    2    1    2    0    0  0.71140116742E+00  0.29044693609E+02 -0.28444070359E+02  0.50528862563E+02  0.30000008248E+02 0.  0.
        -12    1    1    2    0    0 -0.71140116742E+00 -0.29044693609E+02  0.28444070359E+02  0.40659137437E+02  0.00000000000E+00 0.  1.
         11    1    3    3    0    0  0.71681119068E+01  0.25790951158E+01 -0.29930730759E+01  0.81848669276E+01  0.51100000000E-03 0. -1.
        -11    1    3    3    0    0  0.58205864840E+01  0.13207017766E+02 -0.17274429767E+02  0.22510230326E+02  0.51100000000E-03 0.  1.
        -12    1    3    3    0    0 -0.12277297223E+02  0.13258580728E+02 -0.81765675163E+01  0.19833765310E+02  0.00000000000E+00 0.  1.
</event>
<event>
 7    1  0.2903212E-011  0.5052886E+02  0.7816164E-02  0.1300439E+00
        -11   -1    0    0    0    0  0.00000000000E+00  0.00000000000E+00  0.45593999997E+02  0.45594000000E+02  0.51100000000E-03 0.  1.
         11   -1    0    0    0    0 -0.00000000000E+00 -0.00000000000E+00 -0.45593999997E+02  0.45594000000E+02  0.51100000000E-03 0. -1.
    9900012    2    1    2    0    0 -0.34358187574E+02  0.31829385610E+01 -0.21506967887E+02  0.50528858113E+02  0.29999994721E+02 0.  0.
        -12    1    1    2    0    0  0.34358187574E+02 -0.31829385610E+01  0.21506967887E+02  0.40659141887E+02  0.00000000000E+00 0.  1.
         11    1    3    3    0    0 -0.10109038899E+00  0.47879029570E+01  0.23873856325E+01  0.53510601203E+01  0.51100000000E-03 0. -1.
        -11    1    3    3    0    0 -0.13296263193E+01 -0.40459188897E+01  0.26199330368E+00  0.42668497236E+01  0.51100000000E-03 0.  1.
         12    1    3    3    0    0 -0.32927470866E+02  0.24409544937E+01 -0.24156346823E+02  0.40910948269E+02  0.00000000000E+00 0. -1.
</event>
<event>
 7    1  0.2903212E-011  0.5052885E+02  0.7816164E-02  0.1300439E+00
        -11   -1    0    0    0    0  0.00000000000E+00  0.00000000000E+00  0.45593999997E+02  0.45594000000E+02  0.51100000000E-03 0.  1.
         11   -1    0    0    0    0 -0.00000000000E+00 -0.00000000000E+00 -0.45593999997E+02  0.45594000000E+02  0.51100000000E-03 0. -1.
    9900012    2    1    2    0    0  0.36261796425E+02  0.16854544293E+02 -0.73602476463E+01  0.50528846188E+02  0.29999958472E+02 0.  0.
        -12    1    1    2    0    0 -0.36261796425E+02 -0.16854544293E+02  0.73602476463E+01  0.40659153812E+02  0.00000000000E+00 0.  1.
         11    1    3    3    0    0  0.14905829362E+02 -0.29909579395E+00 -0.60984427190E+01  0.16107892820E+02  0.51100000000E-03 0. -1.
        -11    1    3    3    0    0 -0.20032933101E+01  0.41299870380E+01  0.51702178181E+01  0.69138360964E+01  0.51100000000E-03 0.  1.
         12    1    3    3    0    0  0.23359260374E+02  0.13023653049E+02 -0.64320227454E+01  0.27507117271E+02  0.00000000000E+00 0. -1.
</event>
<event>
 7    1  0.2903212E-011  0.5052888E+02  0.7816164E-02  0.1300439E+00
        -11   -1    0    0    0    0  0.00000000000E+00  0.00000000000E+00  0.45593999997E+02  0.45594000000E+02  0.51100000000E-03 0.  1.
         11   -1    0    0    0    0 -0.00000000000E+00 -0.00000000000E+00 -0.45593999997E+02  0.45594000000E+02  0.51100000000E-03 0. -1.
    9900012    2    1    2    0    0  0.26596098461E+02  0.20331620078E+02 -0.23074590538E+02  0.50528881013E+02  0.30000064326E+02 0.  0.
        -12    1    1    2    0    0 -0.26596098461E+02 -0.20331620078E+02  0.23074590538E+02  0.40659118987E+02  0.00000000000E+00 0.  1.
         11    1    3    3    0    0  0.10671360267E+02  0.11345399091E+02 -0.22441404215E+02  0.27316892830E+02  0.51100000000E-03 0. -1.
        -11    1    3    3    0    0  0.13743238351E+01 -0.23666276294E+01 -0.35973925430E+01  0.45200581533E+01  0.51100000000E-03 0.  1.
         12    1    3    3    0    0  0.14550414358E+02  0.11352848616E+02  0.29642062199E+01  0.18691930029E+02  0.00000000000E+00 0. -1.
</event>
<event>
 7    1  0.2903212E-011  0.5052885E+02  0.7816164E-02  0.1300439E+00
        -11   -1    0    0    0    0  0.00000000000E+00  0.00000000000E+00  0.45593999997E+02  0.45594000000E+02  0.51100000000E-03 0. -1.
         11   -1    0    0    0    0 -0.00000000000E+00 -0.00000000000E+00 -0.45593999997E+02  0.45594000000E+02  0.51100000000E-03 0.  1.
    9900012    2    1    2    0    0  0.20215952254E+02  0.18505495260E+02  0.30033781309E+02  0.50528854656E+02  0.29999984213E+02 0.  0.
        -12    1    1    2    0    0 -0.20215952254E+02 -0.18505495260E+02 -0.30033781309E+02  0.40659145344E+02  0.00000000000E+00 0.  1.
         11    1    3    3    0    0 -0.60040478530E+01  0.40795535507E+01  0.12095452129E+02  0.14106427977E+02  0.51100000000E-03 0. -1.
        -11    1    3    3    0    0  0.78658660395E+01  0.79847431022E+00  0.99654209028E+00  0.79688459751E+01  0.51100000000E-03 0.  1.
        -12    1    3    3    0    0  0.18354134068E+02  0.13627467399E+02  0.16941787089E+02  0.28453580704E+02  0.00000000000E+00 0.  1.
</event>
<event>
 7    1  0.2903212E-011  0.5052887E+02  0.7816164E-02  0.1300439E+00
        -11   -1    0    0    0    0  0.00000000000E+00  0.00000000000E+00  0.45593999997E+02  0.45594000000E+02  0.51100000000E-03 0.  1.
         11   -1    0    0    0    0 -0.00000000000E+00 -0.00000000000E+00 -0.45593999997E+02  0.45594000000E+02  0.51100000000E-03 0. -1.
    9900012    2    1    2    0    0  0.14644955851E+02  0.62394151857E+00 -0.37924936757E+02  0.50528869870E+02  0.30000030457E+02 0.  0.
        -12    1    1    2    0    0 -0.14644955851E+02 -0.62394151857E+00  0.37924936757E+02  0.40659130130E+02  0.00000000000E+00 0.  1.
         11    1    3    3    0    0  0.14099890719E+02  0.53510265570E+01 -0.18025886662E+02  0.23502616742E+02  0.51100000000E-03 0. -1.
        -11    1    3    3    0    0  0.38591221711E+01  0.45583964457E+01 -0.15092893824E+01  0.61603373925E+01  0.51100000000E-03 0.  1.
         12    1    3    3    0    0 -0.33140570385E+01 -0.92854814842E+01 -0.18389760712E+02  0.20865915736E+02  0.00000000000E+00 0. -1.
</event>
<event>
 7    1  0.2903212E-011  0.5052888E+02  0.7816164E-02  0.1300439E+00
        -11   -1    0    0    0    0  0.00000000000E+00  0.00000000000E+00  0.45593999997E+02  0.45594000000E+02  0.51100000000E-03 0. -1.
         11   -1    0    0    0    0 -0.00000000000E+00 -0.00000000000E+00 -0.45593999997E+02  0.45594000000E+02  0.51100000000E-03 0.  1.
    9900012    2    1    2    0    0  0.23763482682E+01 -0.18166800711E+02  0.36297164254E+02  0.50528882793E+02  0.30000069739E+02 0.  0.
        -12    1    1    2    0    0 -0.23763482682E+01  0.18166800711E+02 -0.36297164254E+02  0.40659117207E+02  0.00000000000E+00 0.  1.
         11    1    3    3    0    0 -0.37085281078E+01 -0.81148694882E+01  0.20804182905E+02  0.22636658635E+02  0.51100000000E-03 0. -1.
        -11    1    3    3    0    0  0.93595170335E+00 -0.12539326429E+02  0.17743322387E+02  0.21747096415E+02  0.51100000000E-03 0.  1.
        -12    1    3    3    0    0  0.51489246726E+01  0.24873952060E+01 -0.22503410388E+01  0.61451277436E+01  0.00000000000E+00 0.  1.
</event>
<event>
 7    1  0.2903212E-011  0.5052887E+02  0.7816164E-02  0.1300439E+00
        -11   -1    0    0    0    0  0.00000000000E+00  0.00000000000E+00  0.45593999997E+02  0.45594000000E+02  0.51100000000E-03 0. -1.
         11   -1    0    0    0    0 -0.00000000000E+00 -0.00000000000E+00 -0.45593999997E+02  0.45594000000E+02  0.51100000000E-03 0.  1.
    9900012    2    1    2    0    0  0.39065841636E+01  0.40097042006E+02 -0.54891760504E+01  0.50528865341E+02  0.30000016692E+02 0.  0.
        -12    1    1    2    0    0 -0.39065841636E+01 -0.40097042006E+02  0.54891760504E+01  0.40659134659E+02  0.00000000000E+00 0.  1.
         11    1    3    3    0    0  0.87018048887E+00  0.64450446989E+01 -0.88749860887E+01  0.11002781175E+02  0.51100000000E-03 0. -1.
        -11    1    3    3    0    0 -0.85894767357E+01  0.11399421827E+02  0.10913874234E+01  0.14314924217E+02  0.51100000000E-03 0.  1.
         12    1    3    3    0    0  0.11625880410E+02  0.22252575481E+02  0.22944226149E+01  0.25211159949E+02  0.00000000000E+00 0. -1.
</event>
<event>
 7    1  0.2903212E-011  0.5052886E+02  0.7816164E-02  0.1300439E+00
        -11   -1    0    0    0    0  0.00000000000E+00  0.00000000000E+00  0.45593999997E+02  0.45594000000E+02  0.51100000000E-03 0.  1.
         11   -1    0    0    0    0 -0.00000000000E+00 -0.00000000000E+00 -0.45593999997E+02  0.45594000000E+02  0.51100000000E-03 0. -1.
    9900012    2    1    2    0    0  0.38710370185E+02  0.27161476269E+00 -0.12433788372E+02  0.50528860465E+02  0.30000001868E+02 0.  0.
        -12    1    1    2    0    0 -0.38710370185E+02 -0.27161476269E+00  0.12433788372E+02  0.40659139535E+02  0.00000000000E+00 0.  1.
         11    1    3    3    0    0  0.31864771570E+01 -0.19066756250E+01 -0.82983486118E+01  0.90912946578E+01  0.51100000000E-03 0. -1.
        -11    1    3    3    0    0  0.11054016613E+02 -0.65919893911E+01  0.51108247710E+01  0.13847965104E+02  0.51100000000E-03 0.  1.
         12    1    3    3    0    0  0.24469876415E+02  0.87702797787E+01 -0.92462645315E+01  0.27589600703E+02  0.00000000000E+00 0. -1.
</event>
<event>
 7    1  0.2903212E-011  0.5052886E+02  0.7816164E-02  0.1300439E+00
        -11   -1    0    0    0    0  0.00000000000E+00  0.00000000000E+00  0.45593999997E+02  0.45594000000E+02  0.51100000000E-03 0.  1.
         11   -1    0    0    0    0 -0.00000000000E+00 -0.00000000000E+00 -0.45593999997E+02  0.45594000000E+02  0.51100000000E-03 0. -1.
    9900012    2    1    2    0    0  0.38696933568E+02  0.14611211453E+01 -0.12392650610E+02  0.50528864105E+02  0.30000012933E+02 0.  0.
        -12    1    1    2    0    0 -0.38696933568E+02 -0.14611211453E+01  0.12392650610E+02  0.40659135895E+02  0.00000000000E+00 0.  1.
         11    1    3    3    0    0  0.88754379350E+01 -0.15427331846E+01 -0.59585864578E+01  0.10800841497E+02  0.51100000000E-03 0. -1.
        -11    1    3    3    0    0  0.54771009627E+01  0.68155161694E+01 -0.11625049458E+02  0.14546190937E+02  0.51100000000E-03 0.  1.
        -12    1    3    3    0    0  0.24344394671E+02 -0.38116618394E+01  0.51909853053E+01  0.25181831671E+02  0.00000000000E+00 0.  1.
</event>
<event>
 7    1  0.2903212E-011  0.5052887E+02  0.7816164E-02  0.1300439E+00
        -11   -1    0    0    0    0  0.00000000000E+00  0.00000000000E+00  0.45593999997E+02  0.45594000000E+02  0.51100000000E-03 0. -1.
         11   -1    0    0    0    0 -0.00000000000E+00 -0.00000000000E+00 -0.45593999997E+02  0.45594000000E+02  0.51100000000E-03 0.  1.
    9900012    2    1    2    0    0  0.95091350378E+01 -0.20175287278E+02  0.33995577881E+02  0.50528865954E+02  0.30000018553E+02 0.  0.
        -12    1    1    2    0    0 -0.95091350378E+01  0.20175287278E+02 -0.33995577881E+02  0.40659134046E+02  0.00000000000E+00 0.  1.
         11    1    3    3    0    0  0.27273319343E+01 -0.18623180658E+02  0.31227260983E+02  0.36460979499E+02  0.51100000000E-03 0. -1.
        -11    1    3    3    0    0 -0.16639910726E+01 -0.15930290105E+01  0.48499664246E+01  0.53692441087E+01  0.51100000000E-03 0.  1.
        -12    1    3    3    0    0  0.84457941761E+01  0.40922390117E-01 -0.20816495264E+01  0.86986423457E+01  0.00000000000E+00 0.  1.
</event>
<event>
 7    1  0.2903212E-011  0.5052881E+02  0.7816164E-02  0.1300439E+00
        -11   -1    0    0    0    0  0.00000000000E+00  0.00000000000E+00  0.45593999997E+02  0.45594000000E+02  0.51100000000E-03 0. -1.
         11   -1    0    0    0    0 -0.00000000000E+00 -0.00000000000E+00 -0.45593999997E+02  0.45594000000E+02  0.51100000000E-03 0.  1.
    9900012    2    1    2    0    0 -0.14465516508E+02  0.57011493731E+00  0.37994646782E+02  0.50528814286E+02  0.29999861502E+02 0.  0.
        -12    1    1    2    0    0  0.14465516508E+02 -0.57011493731E+00 -0.37994646782E+02  0.40659185714E+02  0.00000000000E+00 0.  1.
         11    1    3    3    0    0 -0.50035807347E+00  0.69490774347E+01  0.56821302481E+01  0.89903637197E+01  0.51100000000E-03 0. -1.
        -11    1    3    3    0    0 -0.43121384379E-01  0.62192271105E+01  0.34670910995E+01  0.71204891868E+01  0.51100000000E-03 0.  1.
        -12    1    3    3    0    0 -0.13922037050E+02 -0.12598189608E+02  0.28845425434E+02  0.34417961379E+02  0.00000000000E+00 0.  1.
</event>
<event>
 7    1  0.2903212E-011  0.5052886E+02  0.7816164E-02  0.1300439E+00
        -11   -1    0    0    0    0  0.00000000000E+00  0.00000000000E+00  0.45593999997E+02  0.45594000000E+02  0.51100000000E-03 0.  1.
         11   -1    0    0    0    0 -0.00000000000E+00 -0.00000000000E+00 -0.45593999997E+02  0.45594000000E+02  0.51100000000E-03 0. -1.
    9900012    2    1    2    0    0  0.13099110653E+02  0.62118360285E+01 -0.37986735977E+02  0.50528859368E+02  0.29999998535E+02 0.  0.
        -12    1    1    2    0    0 -0.13099110653E+02 -0.62118360285E+01  0.37986735977E+02  0.40659140632E+02  0.00000000000E+00 0.  1.
         11    1    3    3    0    0  0.11494592120E+01  0.57696314449E+01 -0.10853859609E+02  0.12345694479E+02  0.51100000000E-03 0. -1.
        -11    1    3    3    0    0 -0.26820728197E+01 -0.78972144314E+00 -0.22662399547E+02  0.22834218359E+02  0.51100000000E-03 0.  1.
        -12    1    3    3    0    0  0.14631724261E+02  0.12319260268E+01 -0.44704768212E+01  0.15348946531E+02  0.00000000000E+00 0.  1.
</event>
<event>
 7    1  0.2903212E-011  0.5052886E+02  0.7816164E-02  0.1300439E+00
        -11   -1    0    0    0    0  0.00000000000E+00  0.00000000000E+00  0.45593999997E+02  0.45594000000E+02  0.51100000000E-03 0.  1.
         11   -1    0    0    0    0 -0.00000000000E+00 -0.00000000000E+00 -0.45593999997E+02  0.45594000000E+02  0.51100000000E-03 0. -1.
    9900012    2    1    2    0    0  0.26462018996E+01  0.69857311802E+01 -0.39967026448E+02  0.50528855547E+02  0.29999986919E+02 0.  0.
        -12    1    1    2    0    0 -0.26462018996E+01 -0.69857311802E+01  0.39967026448E+02  0.40659144453E+02  0.00000000000E+00 0.  1.
         11    1    3    3    0    0 -0.61875176805E+01  0.27639057326E+01 -0.37529085670E+01  0.77465394156E+01  0.51100000000E-03 0. -1.
        -11    1    3    3    0    0 -0.66321659616E+01  0.26591643253E+01 -0.97046983276E+01  0.12051470870E+02  0.51100000000E-03 0.  1.
         12    1    3    3    0    0  0.15465885542E+02  0.15626611222E+01 -0.26509419553E+02  0.30730845260E+02  0.00000000000E+00 0. -1.
</event>
<event>
 7    1  0.2903212E-011  0.5052885E+02  0.7816164E-02  0.1300439E+00
        -11   -1    0    0    0    0  0.00000000000E+00  0.00000000000E+00  0.45593999997E+02  0.45594000000E+02  0.51100000000E-03 0. -1.
         11   -1    0    0    0    0 -0.00000000000E+00 -0.00000000000E+00 -0.45593999997E+02  0.45594000000E+02  0.51100000000E-03 0.  1.
    9900012    2    1    2    0    0  0.48113908687E+01 -0.38409121092E+02 -0.12440101410E+02  0.50528853572E+02  0.29999980918E+02 0.  0.
        -12    1    1    2    0    0 -0.48113908687E+01  0.38409121092E+02  0.12440101410E+02  0.40659146428E+02  0.00000000000E+00 0.  1.
         11    1    3    3    0    0  0.33270880409E+01 -0.22870532459E+02 -0.17024267803E+02  0.28704641860E+02  0.51100000000E-03 0. -1.
        -11    1    3    3    0    0 -0.22101244324E+01 -0.11453594846E+02 -0.33766644056E+01  0.12143778147E+02  0.51100000000E-03 0.  1.
        -12    1    3    3    0    0  0.36944272602E+01 -0.40849937867E+01  0.79608307985E+01  0.96804335658E+01  0.00000000000E+00 0.  1.
</event>
<event>
 7    1  0.2903212E-011  0.5052885E+02  0.7816164E-02  0.1300439E+00
        -11   -1    0    0    0    0  0.00000000000E+00  0.00000000000E+00  0.45593999997E+02  0.45594000000E+02  0.51100000000E-03 0.  1.
         11   -1    0    0    0    0 -0.00000000000E+00 -0.00000000000E+00 -0.45593999997E+02  0.45594000000E+02  0.51100000000E-03 0. -1.
    9900012    2    1    2    0    0 -0.21323305154E+01  0.24402154238E+01 -0.40529798920E+02  0.50528854839E+02  0.29999984769E+02 0.  0.
        -12    1    1    2    0    0  0.21323305154E+01 -0.24402154238E+01  0.40529798920E+02  0.40659145161E+02  0.00000000000E+00 0.  1.
         11    1    3    3    0    0 -0.96525844847E+01  0.28785894906E+01 -0.38759068947E+02  0.40046524076E+02  0.51100000000E-03 0. -1.
        -11    1    3    3    0    0  0.25535194731E+00 -0.27078279780E+01 -0.52079938756E+00  0.27692542748E+01  0.51100000000E-03 0.  1.
        -12    1    3    3    0    0  0.72649020221E+01  0.22694539112E+01 -0.12499305852E+01  0.77130764882E+01  0.00000000000E+00 0.  1.
</event>
<event>
 7    1  0.2903212E-011  0.5052885E+02  0.7816164E-02  0.1300439E+00
        -11   -1    0    0    0    0  0.00000000000E+00  0.00000000000E+00  0.45593999997E+02  0.45594000000E+02  0.51100000000E-03 0. -1.
         11   -1    0    0    0    0 -0.00000000000E+00 -0.00000000000E+00 -0.45593999997E+02  0.45594000000E+02  0.51100000000E-03 0.  1.
    9900012    2    1    2    0    0  0.40248875517E+02  0.56057811239E+01 -0.13303292580E+01  0.50528849267E+02  0.29999967832E+02 0.  0.
        -12    1    1    2    0    0 -0.40248875517E+02 -0.56057811239E+01  0.13303292580E+01  0.40659150733E+02  0.00000000000E+00 0.  1.
         11    1    3    3    0    0  0.84238116162E+01 -0.80225258730E+01  0.69620308396E+01  0.13556968585E+02  0.51100000000E-03 0.  1.
        -11    1    3    3    0    0  0.17567808216E+02  0.26512012161E+01 -0.18626771123E+01  0.17864107022E+02  0.51100000000E-03 0. -1.
        -12    1    3    3    0    0  0.14257255685E+02  0.10977105781E+02 -0.64296829854E+01  0.19107773661E+02  0.00000000000E+00 0.  1.
</event>
<event>
 7    1  0.2903212E-011  0.5052886E+02  0.7816164E-02  0.1300439E+00
        -11   -1    0    0    0    0  0.00000000000E+00  0.00000000000E+00  0.45593999997E+02  0.45594000000E+02  0.51100000000E-03 0.  1.
         11   -1    0    0    0    0 -0.00000000000E+00 -0.00000000000E+00 -0.45593999997E+02  0.45594000000E+02  0.51100000000E-03 0. -1.
    9900012    2    1    2    0    0  0.26316804862E+02 -0.30988886111E+02  0.52955987824E+00  0.50528859401E+02  0.29999998636E+02 0.  0.
        -12    1    1    2    0    0 -0.26316804862E+02  0.30988886111E+02 -0.52955987824E+00  0.40659140599E+02  0.00000000000E+00 0.  1.
         11    1    3    3    0    0  0.89935381407E+01 -0.69939826921E+01 -0.12843134413E+01  0.11465120299E+02  0.51100000000E-03 0. -1.
        -11    1    3    3    0    0  0.42818809139E+01 -0.25436135133E+02  0.25665077892E+01  0.25921389568E+02  0.51100000000E-03 0.  1.
         12    1    3    3    0    0  0.13041385807E+02  0.14412317140E+01 -0.75263446967E+00  0.13142349534E+02  0.00000000000E+00 0. -1.
</event>
<event>
 7    1  0.2903212E-011  0.5052886E+02  0.7816164E-02  0.1300439E+00
        -11   -1    0    0    0    0  0.00000000000E+00  0.00000000000E+00  0.45593999997E+02  0.45594000000E+02  0.51100000000E-03 0.  1.
         11   -1    0    0    0    0 -0.00000000000E+00 -0.00000000000E+00 -0.45593999997E+02  0.45594000000E+02  0.51100000000E-03 0. -1.
    9900012    2    1    2    0    0  0.27363711741E+02  0.22342834539E+02 -0.20129352357E+02  0.50528858324E+02  0.29999995363E+02 0.  0.
        -12    1    1    2    0    0 -0.27363711741E+02 -0.22342834539E+02  0.20129352357E+02  0.40659141676E+02  0.00000000000E+00 0.  1.
         11    1    3    3    0    0  0.85789317333E+01  0.25879480633E+01 -0.79096407389E+01  0.11952320350E+02  0.51100000000E-03 0. -1.
        -11    1    3    3    0    0  0.11123633660E+01  0.46065233990E+01  0.69572665238E+01  0.84178956889E+01  0.51100000000E-03 0.  1.
         12    1    3    3    0    0  0.17672416642E+02  0.15148363077E+02 -0.19176978142E+02  0.30158642286E+02  0.00000000000E+00 0. -1.
</event>
<event>
 7    1  0.2903212E-011  0.5052886E+02  0.7816164E-02  0.1300439E+00
        -11   -1    0    0    0    0  0.00000000000E+00  0.00000000000E+00  0.45593999997E+02  0.45594000000E+02  0.51100000000E-03 0.  1.
         11   -1    0    0    0    0 -0.00000000000E+00 -0.00000000000E+00 -0.45593999997E+02  0.45594000000E+02  0.51100000000E-03 0. -1.
    9900012    2    1    2    0    0  0.13645580876E+02  0.39555981677E+01 -0.38096157552E+02  0.50528857676E+02  0.29999993391E+02 0.  0.
        -12    1    1    2    0    0 -0.13645580876E+02 -0.39555981677E+01  0.38096157552E+02  0.40659142324E+02  0.00000000000E+00 0.  1.
         11    1    3    3    0    0 -0.27322837360E+01 -0.47166270392E+01 -0.48906770724E+01  0.73232962202E+01  0.51100000000E-03 0. -1.
        -11    1    3    3    0    0 -0.46356601659E+00 -0.52741495348E+01 -0.10037233284E+02  0.11348021811E+02  0.51100000000E-03 0.  1.
         12    1    3    3    0    0  0.16841430629E+02  0.13946374742E+02 -0.23168247196E+02  0.31857539644E+02  0.00000000000E+00 0. -1.
</event>
<event>
 7    1  0.2903212E-011  0.5052885E+02  0.7816164E-02  0.1300439E+00
        -11   -1    0    0    0    0  0.00000000000E+00  0.00000000000E+00  0.45593999997E+02  0.45594000000E+02  0.51100000000E-03 0.  1.
         11   -1    0    0    0    0 -0.00000000000E+00 -0.00000000000E+00 -0.45593999997E+02  0.45594000000E+02  0.51100000000E-03 0. -1.
    9900012    2    1    2    0    0 -0.17572212280E+02  0.14914520460E+02 -0.33495391865E+02  0.50528845543E+02  0.29999956512E+02 0.  0.
        -12    1    1    2    0    0  0.17572212280E+02 -0.14914520460E+02  0.33495391865E+02  0.40659154457E+02  0.00000000000E+00 0.  1.
         11    1    3    3    0    0 -0.70336326426E+01 -0.20725511744E+01 -0.11861541938E+02  0.13945021833E+02  0.51100000000E-03 0. -1.
        -11    1    3    3    0    0  0.36386619025E+01  0.45648518828E+01  0.21635051865E+01  0.62256315427E+01  0.51100000000E-03 0.  1.
         12    1    3    3    0    0 -0.14177241540E+02  0.12422219752E+02 -0.23797355113E+02  0.30358192167E+02  0.00000000000E+00 0. -1.
</event>
<event>
 7    1  0.2903212E-011  0.5052886E+02  0.7816164E-02  0.1300439E+00
        -11   -1    0    0    0    0  0.00000000000E+00  0.00000000000E+00  0.45593999997E+02  0.45594000000E+02  0.51100000000E-03 0.  1.
         11   -1    0    0    0    0 -0.00000000000E+00 -0.00000000000E+00 -0.45593999997E+02  0.45594000000E+02  0.51100000000E-03 0. -1.
    9900012    2    1    2    0    0  0.72233430742E+01 -0.31104678706E+02 -0.25169178783E+02  0.50528864702E+02  0.30000014748E+02 0.  0.
        -12    1    1    2    0    0 -0.72233430742E+01  0.31104678706E+02  0.25169178783E+02  0.40659135298E+02  0.00000000000E+00 0.  1.
         11    1    3    3    0    0  0.57080248713E+01 -0.54369641653E+01 -0.43122274668E+01  0.89854011181E+01  0.51100000000E-03 0.  1.
        -11    1    3    3    0    0  0.54028017499E+01 -0.29739220988E+02 -0.18517963689E+02  0.35447517701E+02  0.51100000000E-03 0. -1.
        -12    1    3    3    0    0 -0.38874835471E+01  0.40715064475E+01 -0.23389876272E+01  0.60959458823E+01  0.00000000000E+00 0.  1.
</event>
<event>
 7    1  0.3082059E-011  0.5052881E+02  0.7816164E-02  0.1300439E+00
        -11   -1    0    0    0    0  0.00000000000E+00  0.00000000000E+00  0.45593999997E+02  0.45594000000E+02  0.51100000000E-03 0.  1.
         11   -1    0    0    0    0 -0.00000000000E+00 -0.00000000000E+00 -0.45593999997E+02  0.45594000000E+02  0.51100000000E-03 0. -1.
    9900012    2    1    2    0    0  0.10841525891E+02  0.38215814387E+02 -0.86707766282E+01  0.50528812597E+02  0.29999856370E+02 0.  0.
        -12    1    1    2    0    0 -0.10841525891E+02 -0.38215814387E+02  0.86707766282E+01  0.40659187403E+02  0.00000000000E+00 0.  1.
         11    1    3    3    0    0  0.86160323489E+01  0.12880537935E+02  0.45454802228E+01  0.16149478681E+02  0.51100000000E-03 0.  1.
        -11    1    3    3    0    0 -0.13445537743E+01 -0.29416726609E+01 -0.14549741935E+01  0.35465776547E+01  0.51100000000E-03 0. -1.
         12    1    3    3    0    0  0.35700473162E+01  0.28276949113E+02 -0.11761282657E+02  0.30832756262E+02  0.00000000000E+00 0. -1.
</event>
<event>
 7    1  0.2903212E-011  0.5052888E+02  0.7816164E-02  0.1300439E+00
        -11   -1    0    0    0    0  0.00000000000E+00  0.00000000000E+00  0.45593999997E+02  0.45594000000E+02  0.51100000000E-03 0. -1.
         11   -1    0    0    0    0 -0.00000000000E+00 -0.00000000000E+00 -0.45593999997E+02  0.45594000000E+02  0.51100000000E-03 0.  1.
    9900012    2    1    2    0    0 -0.37413562226E+01  0.30689657419E+00  0.40485459398E+02  0.50528876122E+02  0.30000049459E+02 0.  0.
        -12    1    1    2    0    0  0.37413562226E+01 -0.30689657419E+00 -0.40485459398E+02  0.40659123878E+02  0.00000000000E+00 0.  1.
         11    1    3    3    0    0 -0.51171437465E+01  0.62598559088E+01  0.11802037358E+02  0.14305909344E+02  0.51100000000E-03 0. -1.
        -11    1    3    3    0    0  0.96758848518E+01 -0.20594189625E+01  0.55591283755E+01  0.11347592815E+02  0.51100000000E-03 0.  1.
         12    1    3    3    0    0 -0.83000973280E+01 -0.38935403721E+01  0.23124293665E+02  0.24875373963E+02  0.00000000000E+00 0. -1.
</event>
<event>
 7    1  0.2903212E-011  0.5052886E+02  0.7816164E-02  0.1300439E+00
        -11   -1    0    0    0    0  0.00000000000E+00  0.00000000000E+00  0.45593999997E+02  0.45594000000E+02  0.51100000000E-03 0.  1.
         11   -1    0    0    0    0 -0.00000000000E+00 -0.00000000000E+00 -0.45593999997E+02  0.45594000000E+02  0.51100000000E-03 0. -1.
    9900012    2    1    2    0    0 -0.27331788529E+02 -0.27459354127E+02 -0.12333821214E+02  0.50528856637E+02  0.29999990234E+02 0.  0.
        -12    1    1    2    0    0  0.27331788529E+02  0.27459354127E+02  0.12333821214E+02  0.40659143363E+02  0.00000000000E+00 0.  1.
         11    1    3    3    0    0 -0.29764739062E+00 -0.14356874627E+01  0.23503903904E+01  0.27702215991E+01  0.51100000000E-03 0. -1.
        -11    1    3    3    0    0 -0.22233593658E+01 -0.68487637668E+01  0.66747884177E+01  0.98184363666E+01  0.51100000000E-03 0.  1.
         12    1    3    3    0    0 -0.24810781772E+02 -0.19174902898E+02 -0.21359000022E+02  0.37940198671E+02  0.00000000000E+00 0. -1.
</event>
<event>
 7    1  0.2903212E-011  0.5052882E+02  0.7816164E-02  0.1300439E+00
        -11   -1    0    0    0    0  0.00000000000E+00  0.00000000000E+00  0.45593999997E+02  0.45594000000E+02  0.51100000000E-03 0.  1.
         11   -1    0    0    0    0 -0.00000000000E+00 -0.00000000000E+00 -0.45593999997E+02  0.45594000000E+02  0.51100000000E-03 0. -1.
    9900012    2    1    2    0    0  0.78672846707E+01 -0.35605609383E+02 -0.17986537303E+02  0.50528817620E+02  0.29999871638E+02 0.  0.
        -12    1    1    2    0    0 -0.78672846707E+01  0.35605609383E+02  0.17986537303E+02  0.40659182380E+02  0.00000000000E+00 0.  1.
         11    1    3    3    0    0  0.48380780191E+01 -0.75939830594E+01  0.14122548553E+01  0.91142768041E+01  0.51100000000E-03 0. -1.
        -11    1    3    3    0    0  0.41340269446E+01  0.25578361003E+01  0.55420789114E+00  0.48928366969E+01  0.51100000000E-03 0.  1.
         12    1    3    3    0    0 -0.11048202930E+01 -0.30569462424E+02 -0.19953000050E+02  0.36521704119E+02  0.00000000000E+00 0. -1.
</event>
<event>
 7    1  0.2903212E-011  0.5052885E+02  0.7816164E-02  0.1300439E+00
        -11   -1    0    0    0    0  0.00000000000E+00  0.00000000000E+00  0.45593999997E+02  0.45594000000E+02  0.51100000000E-03 0.  1.
         11   -1    0    0    0    0 -0.00000000000E+00 -0.00000000000E+00 -0.45593999997E+02  0.45594000000E+02  0.51100000000E-03 0. -1.
    9900012    2    1    2    0    0 -0.18354015112E+02 -0.36176929231E+02 -0.27433601771E+01  0.50528854604E+02  0.29999984053E+02 0.  0.
        -12    1    1    2    0    0  0.18354015112E+02  0.36176929231E+02  0.27433601771E+01  0.40659145396E+02  0.00000000000E+00 0.  1.
         11    1    3    3    0    0  0.25522899266E+00 -0.49064664833E+01  0.17843375374E+01  0.52270848376E+01  0.51100000000E-03 0. -1.
        -11    1    3    3    0    0 -0.10221469201E+02 -0.20060868556E+02  0.10430706708E+02  0.24813635819E+02  0.51100000000E-03 0.  1.
         12    1    3    3    0    0 -0.83877749033E+01 -0.11209594191E+02 -0.14958404423E+02  0.20488133947E+02  0.00000000000E+00 0. -1.
</event>
<event>
 7    1  0.2903212E-011  0.5052886E+02  0.7816164E-02  0.1300439E+00
        -11   -1    0    0    0    0  0.00000000000E+00  0.00000000000E+00  0.45593999997E+02  0.45594000000E+02  0.51100000000E-03 0.  1.
         11   -1    0    0    0    0 -0.00000000000E+00 -0.00000000000E+00 -0.45593999997E+02  0.45594000000E+02  0.51100000000E-03 0. -1.
    9900012    2    1    2    0    0  0.35647020183E+02 -0.17383863106E+02  0.89586264899E+01  0.50528859171E+02  0.29999997936E+02 0.  0.
        -12    1    1    2    0    0 -0.35647020183E+02  0.17383863106E+02 -0.89586264899E+01  0.40659140829E+02  0.00000000000E+00 0.  1.
         11    1    3    3    0    0  0.78146935121E+01 -0.15407064767E+02 -0.11989819715E+01  0.17317177525E+02  0.51100000000E-03 0. -1.
        -11    1    3    3    0    0  0.12574674953E+01  0.65306708657E+00  0.60247145833E+01  0.61890958300E+01  0.51100000000E-03 0.  1.
         12    1    3    3    0    0  0.26574859175E+02 -0.26298654255E+01  0.41328938781E+01  0.27022585815E+02  0.00000000000E+00 0. -1.
</event>
<event>
 7    1  0.2903212E-011  0.5052886E+02  0.7816164E-02  0.1300439E+00
        -11   -1    0    0    0    0  0.00000000000E+00  0.00000000000E+00  0.45593999997E+02  0.45594000000E+02  0.51100000000E-03 0. -1.
         11   -1    0    0    0    0 -0.00000000000E+00 -0.00000000000E+00 -0.45593999997E+02  0.45594000000E+02  0.51100000000E-03 0.  1.
    9900012    2    1    2    0    0 -0.48524736595E+01 -0.38261853891E+02  0.12870483517E+02  0.50528864375E+02  0.30000013755E+02 0.  0.
        -12    1    1    2    0    0  0.48524736595E+01  0.38261853891E+02 -0.12870483517E+02  0.40659135625E+02  0.00000000000E+00 0.  1.
         11    1    3    3    0    0 -0.93390180499E-01 -0.53528995535E+01 -0.77948651186E+01  0.94563300404E+01  0.51100000000E-03 0. -1.
        -11    1    3    3    0    0 -0.31584977806E+01 -0.69779788159E+00  0.16151677082E+01  0.36154940327E+01  0.51100000000E-03 0.  1.
         12    1    3    3    0    0 -0.16005856984E+01 -0.32211156456E+02  0.19050180928E+02  0.37457040302E+02  0.00000000000E+00 0. -1.
</event>
<event>
 7    1  0.2903212E-011  0.5052887E+02  0.7816164E-02  0.1300439E+00
        -11   -1    0    0    0    0  0.00000000000E+00  0.00000000000E+00  0.45593999997E+02  0.45594000000E+02  0.51100000000E-03 0.  1.
         11   -1    0    0    0    0 -0.00000000000E+00 -0.00000000000E+00 -0.45593999997E+02  0.45594000000E+02  0.51100000000E-03 0. -1.
    9900012    2    1    2    0    0  0.30490556338E+02  0.13550949635E+02 -0.23234938389E+02  0.50528872812E+02  0.30000039398E+02 0.  0.
        -12    1    1    2    0    0 -0.30490556338E+02 -0.13550949635E+02  0.23234938389E+02  0.40659127188E+02  0.00000000000E+00 0.  1.
         11    1    3    3    0    0  0.21426012064E+02  0.15051047938E+02 -0.45705176122E+01  0.26580023862E+02  0.51100000000E-03 0. -1.
        -11    1    3    3    0    0  0.53103405551E+01  0.37091476440E+01 -0.15481931343E+02  0.16782362510E+02  0.51100000000E-03 0.  1.
        -12    1    3    3    0    0  0.37542037188E+01 -0.52092459470E+01 -0.31824894341E+01  0.71664864401E+01  0.00000000000E+00 0.  1.
</event>
<event>
 7    1  0.2903212E-011  0.5052887E+02  0.7816164E-02  0.1300439E+00
        -11   -1    0    0    0    0  0.00000000000E+00  0.00000000000E+00  0.45593999997E+02  0.45594000000E+02  0.51100000000E-03 0.  1.
         11   -1    0    0    0    0 -0.00000000000E+00 -0.00000000000E+00 -0.45593999997E+02  0.45594000000E+02  0.51100000000E-03 0. -1.
    9900012    2    1    2    0    0  0.82293453108E+01 -0.39229045498E+02 -0.68209272146E+01  0.50528865934E+02  0.30000018492E+02 0.  0.
        -12    1    1    2    0    0 -0.82293453108E+01  0.39229045498E+02  0.68209272146E+01  0.40659134066E+02  0.00000000000E+00 0.  1.
         11    1    3    3    0    0 -0.11301937304E+01 -0.28102796246E+02 -0.85328838273E-01  0.28125642677E+02  0.51100000000E-03 0. -1.
        -11    1    3    3    0    0  0.46745745432E+01  0.43309783380E+00  0.38286464275E+01  0.60578671677E+01  0.51100000000E-03 0.  1.
         12    1    3    3    0    0  0.46849644979E+01 -0.11559347086E+02 -0.10564244804E+02  0.16345356089E+02  0.00000000000E+00 0. -1.
</event>
<event>
 7    1  0.2903212E-011  0.5052887E+02  0.7816164E-02  0.1300439E+00
        -11   -1    0    0    0    0  0.00000000000E+00  0.00000000000E+00  0.45593999997E+02  0.45594000000E+02  0.51100000000E-03 0.  1.
         11   -1    0    0    0    0 -0.00000000000E+00 -0.00000000000E+00 -0.45593999997E+02  0.45594000000E+02  0.51100000000E-03 0. -1.
    9900012    2    1    2    0    0 -0.88349359118E+01 -0.23060702637E+02 -0.32300346376E+02  0.50528874644E+02  0.30000044969E+02 0.  0.
        -12    1    1    2    0    0  0.88349359118E+01  0.23060702637E+02  0.32300346376E+02  0.40659125356E+02  0.00000000000E+00 0.  1.
         11    1    3    3    0    0 -0.65154208062E+01 -0.90688665697E+01 -0.13742474972E+02  0.17707361965E+02  0.51100000000E-03 0. -1.
        -11    1    3    3    0    0 -0.76525744049E+01  0.19719908568E+01 -0.18505589351E+00  0.79047383832E+01  0.51100000000E-03 0.  1.
        -12    1    3    3    0    0  0.53330592993E+01 -0.15963826924E+02 -0.18372815510E+02  0.24916774296E+02  0.00000000000E+00 0.  1.
</event>
<event>
 7    1  0.2903212E-011  0.5052885E+02  0.7816164E-02  0.1300439E+00
        -11   -1    0    0    0    0  0.00000000000E+00  0.00000000000E+00  0.45593999997E+02  0.45594000000E+02  0.51100000000E-03 0. -1.
         11   -1    0    0    0    0 -0.00000000000E+00 -0.00000000000E+00 -0.45593999997E+02  0.45594000000E+02  0.51100000000E-03 0.  1.
    9900012    2    1    2    0    0  0.39587086388E+02 -0.73337814766E+01 -0.56784499301E+01  0.50528849086E+02  0.29999967283E+02 0.  0.
        -12    1    1    2    0    0 -0.39587086388E+02  0.73337814766E+01  0.56784499301E+01  0.40659150914E+02  0.00000000000E+00 0.  1.
         11    1    3    3    0    0  0.25198108444E+02 -0.11477084253E+02 -0.44986400289E+01  0.28051842978E+02  0.51100000000E-03 0. -1.
        -11    1    3    3    0    0  0.13192768689E+02 -0.32832203056E+01  0.29270235986E+01  0.13906694383E+02  0.51100000000E-03 0.  1.
        -12    1    3    3    0    0  0.11962092551E+01  0.74265230822E+01 -0.41068334997E+01  0.85703117252E+01  0.00000000000E+00 0.  1.
</event>
<event>
 7    1  0.2903212E-011  0.5052886E+02  0.7816164E-02  0.1300439E+00
        -11   -1    0    0    0    0  0.00000000000E+00  0.00000000000E+00  0.45593999997E+02  0.45594000000E+02  0.51100000000E-03 0. -1.
         11   -1    0    0    0    0 -0.00000000000E+00 -0.00000000000E+00 -0.45593999997E+02  0.45594000000E+02  0.51100000000E-03 0.  1.
    9900012    2    1    2    0    0  0.83504573039E+01 -0.29106803722E+02  0.27133548015E+02  0.50528860954E+02  0.30000003356E+02 0.  0.
        -12    1    1    2    0    0 -0.83504573039E+01  0.29106803722E+02 -0.27133548015E+02  0.40659139046E+02  0.00000000000E+00 0.  1.
         11    1    3    3    0    0  0.12959361041E+02 -0.81351607568E+01  0.44209171166E+01  0.15927033231E+02  0.51100000000E-03 0. -1.
        -11    1    3    3    0    0  0.23774119985E+01 -0.46134515705E+01  0.13723012926E+02  0.14671642963E+02  0.51100000000E-03 0.  1.
        -12    1    3    3    0    0 -0.69863157360E+01 -0.16358191395E+02  0.89896179723E+01  0.19930184760E+02  0.00000000000E+00 0.  1.
</event>
<event>
 7    1  0.2903212E-011  0.5052886E+02  0.7816164E-02  0.1300439E+00
        -11   -1    0    0    0    0  0.00000000000E+00  0.00000000000E+00  0.45593999997E+02  0.45594000000E+02  0.51100000000E-03 0.  1.
         11   -1    0    0    0    0 -0.00000000000E+00 -0.00000000000E+00 -0.45593999997E+02  0.45594000000E+02  0.51100000000E-03 0. -1.
    9900012    2    1    2    0    0 -0.63767374266E+01 -0.24221281994E+02 -0.32028620095E+02  0.50528858508E+02  0.29999995921E+02 0.  0.
        -12    1    1    2    0    0  0.63767374266E+01  0.24221281994E+02  0.32028620095E+02  0.40659141492E+02  0.00000000000E+00 0.  1.
         11    1    3    3    0    0 -0.89414364410E+01 -0.13770426339E+02 -0.18255517033E+02  0.24552756049E+02  0.51100000000E-03 0. -1.
        -11    1    3    3    0    0  0.10843726201E+01  0.23830229753E+01 -0.12750719926E+02  0.13016740044E+02  0.51100000000E-03 0.  1.
        -12    1    3    3    0    0  0.14803263943E+01 -0.12833878631E+02 -0.10223831364E+01  0.12959362416E+02  0.00000000000E+00 0.  1.
</event>
<event>
 7    1  0.2903212E-011  0.5052887E+02  0.7816164E-02  0.1300439E+00
        -11   -1    0    0    0    0  0.00000000000E+00  0.00000000000E+00  0.45593999997E+02  0.45594000000E+02  0.51100000000E-03 0.  1.
         11   -1    0    0    0    0 -0.00000000000E+00 -0.00000000000E+00 -0.45593999997E+02  0.45594000000E+02  0.51100000000E-03 0. -1.
    9900012    2    1    2    0    0  0.29903604740E+01 -0.28125518330E+02 -0.29209207131E+02  0.50528870419E+02  0.30000032125E+02 0.  0.
        -12    1    1    2    0    0 -0.29903604740E+01  0.28125518330E+02  0.29209207131E+02  0.40659129581E+02  0.00000000000E+00 0.  1.
         11    1    3    3    0    0  0.50381391895E+01  0.35656146212E+01 -0.24348241608E+00  0.61770331121E+01  0.51100000000E-03 0. -1.
        -11    1    3    3    0    0 -0.44639692789E+01 -0.70215340644E+01 -0.42315728402E+01  0.93346221832E+01  0.51100000000E-03 0.  1.
        -12    1    3    3    0    0  0.24161905634E+01 -0.24669598887E+02 -0.24734151874E+02  0.35017215124E+02  0.00000000000E+00 0.  1.
</event>
<event>
 7    1  0.2903212E-011  0.5052886E+02  0.7816164E-02  0.1300439E+00
        -11   -1    0    0    0    0  0.00000000000E+00  0.00000000000E+00  0.45593999997E+02  0.45594000000E+02  0.51100000000E-03 0.  1.
         11   -1    0    0    0    0 -0.00000000000E+00 -0.00000000000E+00 -0.45593999997E+02  0.45594000000E+02  0.51100000000E-03 0. -1.
    9900012    2    1    2    0    0  0.31447860850E+02  0.17930934167E+02 -0.18511605242E+02  0.50528857353E+02  0.29999992409E+02 0.  0.
        -12    1    1    2    0    0 -0.31447860850E+02 -0.17930934167E+02  0.18511605242E+02  0.40659142647E+02  0.00000000000E+00 0.  1.
         11    1    3    3    0    0  0.60295456304E+01  0.58188080493E+01 -0.38272836897E+01  0.92120599394E+01  0.51100000000E-03 0. -1.
        -11    1    3    3    0    0  0.22443035241E+02  0.19986011765E+02 -0.12945512774E+02  0.32721809216E+02  0.51100000000E-03 0.  1.
         12    1    3    3    0    0  0.29752799788E+01 -0.78738856475E+01 -0.17388087781E+01  0.85949881971E+01  0.00000000000E+00 0. -1.
</event>
<event>
 7    1  0.2903212E-011  0.5052886E+02  0.7816164E-02  0.1300439E+00
        -11   -1    0    0    0    0  0.00000000000E+00  0.00000000000E+00  0.45593999997E+02  0.45594000000E+02  0.51100000000E-03 0.  1.
         11   -1    0    0    0    0 -0.00000000000E+00 -0.00000000000E+00 -0.45593999997E+02  0.45594000000E+02  0.51100000000E-03 0. -1.
    9900012    2    1    2    0    0 -0.94603040533E+01  0.33139847430E+02 -0.21573573827E+02  0.50528856771E+02  0.29999990640E+02 0.  0.
        -12    1    1    2    0    0  0.94603040533E+01 -0.33139847430E+02  0.21573573827E+02  0.40659143229E+02  0.00000000000E+00 0.  1.
         11    1    3    3    0    0 -0.14685590233E+01  0.22381675158E+02 -0.25149706933E+02  0.33698721156E+02  0.51100000000E-03 0. -1.
        -11    1    3    3    0    0 -0.41269963177E+01  0.33455204561E+01 -0.30829677017E+01  0.61424177520E+01  0.51100000000E-03 0.  1.
        -12    1    3    3    0    0 -0.38647487123E+01  0.74126518159E+01  0.66591008072E+01  0.10687717863E+02  0.00000000000E+00 0.  1.
</event>
<event>
 7    1  0.2903212E-011  0.5052885E+02  0.7816164E-02  0.1300439E+00
        -11   -1    0    0    0    0  0.00000000000E+00  0.00000000000E+00  0.45593999997E+02  0.45594000000E+02  0.51100000000E-03 0.  1.
         11   -1    0    0    0    0 -0.00000000000E+00 -0.00000000000E+00 -0.45593999997E+02  0.45594000000E+02  0.51100000000E-03 0. -1.
    9900012    2    1    2    0    0  0.40416399814E+02  0.30063433662E+01  0.32623005511E+01  0.50528854912E+02  0.29999984991E+02 0.  0.
        -12    1    1    2    0    0 -0.40416399814E+02 -0.30063433662E+01 -0.32623005511E+01  0.40659145088E+02  0.00000000000E+00 0.  1.
         11    1    3    3    0    0  0.32407369890E+02  0.11967302432E+02 -0.50270022361E+00  0.34550060180E+02  0.51100000000E-03 0. -1.
        -11    1    3    3    0    0  0.50597154253E+01 -0.22564043894E+00  0.44385958340E+01  0.67344463048E+01  0.51100000000E-03 0.  1.
        -12    1    3    3    0    0  0.29493144993E+01 -0.87353186272E+01 -0.67359505937E+00  0.92443484269E+01  0.00000000000E+00 0.  1.
</event>
<event>
 7    1  0.2903212E-011  0.5052887E+02  0.7816164E-02  0.1300439E+00
        -11   -1    0    0    0    0  0.00000000000E+00  0.00000000000E+00  0.45593999997E+02  0.45594000000E+02  0.51100000000E-03 0. -1.
         11   -1    0    0    0    0 -0.00000000000E+00 -0.00000000000E+00 -0.45593999997E+02  0.45594000000E+02  0.51100000000E-03 0.  1.
    9900012    2    1    2    0    0 -0.26621575304E+02 -0.11638413507E+01  0.30709970999E+02  0.50528866744E+02  0.30000020956E+02 0.  0.
        -12    1    1    2    0    0  0.26621575304E+02  0.11638413507E+01 -0.30709970999E+02  0.40659133256E+02  0.00000000000E+00 0.  1.
         11    1    3    3    0    0 -0.93737332512E+00  0.16991788721E+01 -0.10842075189E+01  0.22229223548E+01  0.51100000000E-03 0. -1.
        -11    1    3    3    0    0 -0.62052031858E+01  0.72739145305E+01 -0.12620083708E+00  0.95619195817E+01  0.51100000000E-03 0.  1.
         12    1    3    3    0    0 -0.19478998793E+02 -0.10136934753E+02  0.31920379355E+02  0.38744024808E+02  0.00000000000E+00 0. -1.
</event>
<event>
 7    1  0.2903212E-011  0.5052886E+02  0.7816164E-02  0.1300439E+00
        -11   -1    0    0    0    0  0.00000000000E+00  0.00000000000E+00  0.45593999997E+02  0.45594000000E+02  0.51100000000E-03 0.  1.
         11   -1    0    0    0    0 -0.00000000000E+00 -0.00000000000E+00 -0.45593999997E+02  0.45594000000E+02  0.51100000000E-03 0. -1.
    9900012    2    1    2    0    0 -0.19503644649E-01  0.12699683889E+02 -0.38624906265E+02  0.50528859143E+02  0.29999997851E+02 0.  0.
        -12    1    1    2    0    0  0.19503644649E-01 -0.12699683889E+02  0.38624906265E+02  0.40659140857E+02  0.00000000000E+00 0.  1.
         11    1    3    3    0    0  0.10571165029E+02  0.27503243011E+00 -0.90975247491E+01  0.13949556614E+02  0.51100000000E-03 0. -1.
        -11    1    3    3    0    0 -0.41121935505E+01  0.59328118633E+01 -0.18929241080E+01  0.74626774245E+01  0.51100000000E-03 0.  1.
         12    1    3    3    0    0 -0.64784751232E+01  0.64918395954E+01 -0.27634457408E+02  0.29116625104E+02  0.00000000000E+00 0. -1.
</event>
<event>
 7    1  0.2903212E-011  0.5052885E+02  0.7816164E-02  0.1300439E+00
        -11   -1    0    0    0    0  0.00000000000E+00  0.00000000000E+00  0.45593999997E+02  0.45594000000E+02  0.51100000000E-03 0. -1.
         11   -1    0    0    0    0 -0.00000000000E+00 -0.00000000000E+00 -0.45593999997E+02  0.45594000000E+02  0.51100000000E-03 0.  1.
    9900012    2    1    2    0    0  0.35056254017E+02 -0.16672570411E+02  0.12093421206E+02  0.50528851136E+02  0.29999973514E+02 0.  0.
        -12    1    1    2    0    0 -0.35056254017E+02  0.16672570411E+02 -0.12093421206E+02  0.40659148864E+02  0.00000000000E+00 0.  1.
         11    1    3    3    0    0  0.21275245018E+02 -0.13479180703E+02  0.36568985819E+01  0.25449897259E+02  0.51100000000E-03 0. -1.
        -11    1    3    3    0    0  0.14996543804E+02 -0.43521035814E+01 -0.85328320073E+00  0.15638581270E+02  0.51100000000E-03 0.  1.
        -12    1    3    3    0    0 -0.12155348049E+01  0.11587138725E+01  0.92898058249E+01  0.94403726073E+01  0.00000000000E+00 0.  1.
</event>
<event>
 7    1  0.2903212E-011  0.5052885E+02  0.7816164E-02  0.1300439E+00
        -11   -1    0    0    0    0  0.00000000000E+00  0.00000000000E+00  0.45593999997E+02  0.45594000000E+02  0.51100000000E-03 0. -1.
         11   -1    0    0    0    0 -0.00000000000E+00 -0.00000000000E+00 -0.45593999997E+02  0.45594000000E+02  0.51100000000E-03 0.  1.
    9900012    2    1    2    0    0  0.29488036390E+01  0.23651419215E+02  0.32940574796E+02  0.50528849226E+02  0.29999967706E+02 0.  0.
        -12    1    1    2    0    0 -0.29488036390E+01 -0.23651419215E+02 -0.32940574796E+02  0.40659150774E+02  0.00000000000E+00 0.  1.
         11    1    3    3    0    0 -0.26778897324E+00 -0.46099473540E+01  0.47117292315E+00  0.46416947040E+01  0.51100000000E-03 0. -1.
        -11    1    3    3    0    0 -0.60842198070E+01  0.12313325423E+02  0.11195231580E+02  0.17719168266E+02  0.51100000000E-03 0.  1.
         12    1    3    3    0    0  0.93008124193E+01  0.15948041146E+02  0.21274170292E+02  0.28167986256E+02  0.00000000000E+00 0. -1.
</event>
<event>
 7    1  0.2903212E-011  0.5052899E+02  0.7816164E-02  0.1300438E+00
        -11   -1    0    0    0    0  0.00000000000E+00  0.00000000000E+00  0.45593999997E+02  0.45594000000E+02  0.51100000000E-03 0. -1.
         11   -1    0    0    0    0 -0.00000000000E+00 -0.00000000000E+00 -0.45593999997E+02  0.45594000000E+02  0.51100000000E-03 0.  1.
    9900012    2    1    2    0    0 -0.22660880790E+02  0.79142777174E+01  0.32817735029E+02  0.50528990636E+02  0.30000397535E+02 0.  0.
        -12    1    1    2    0    0  0.22660880790E+02 -0.79142777174E+01 -0.32817735029E+02  0.40659009364E+02  0.00000000000E+00 0.  1.
         11    1    3    3    0    0  0.32358589727E+01  0.36812387741E+00  0.64445460143E+01  0.72206974782E+01  0.51100000000E-03 0. -1.
        -11    1    3    3    0    0  0.22905499397E+00  0.61253507742E+01  0.11953534033E+02  0.13433516459E+02  0.51100000000E-03 0.  1.
         12    1    3    3    0    0 -0.26125794757E+02  0.14208030658E+01  0.14419654982E+02  0.29874776699E+02  0.00000000000E+00 0. -1.
</event>
<event>
 7    1  0.2903212E-011  0.5052886E+02  0.7816164E-02  0.1300439E+00
        -11   -1    0    0    0    0  0.00000000000E+00  0.00000000000E+00  0.45593999997E+02  0.45594000000E+02  0.51100000000E-03 0.  1.
         11   -1    0    0    0    0 -0.00000000000E+00 -0.00000000000E+00 -0.45593999997E+02  0.45594000000E+02  0.51100000000E-03 0. -1.
    9900012    2    1    2    0    0  0.38072991007E+02  0.39414224018E+01  0.13714174274E+02  0.50528855509E+02  0.29999986804E+02 0.  0.
        -12    1    1    2    0    0 -0.38072991007E+02 -0.39414224018E+01 -0.13714174274E+02  0.40659144491E+02  0.00000000000E+00 0.  1.
         11    1    3    3    0    0  0.27328067288E+01  0.92816360506E+01 -0.19521309485E+01  0.98705529680E+01  0.51100000000E-03 0. -1.
        -11    1    3    3    0    0  0.26243357789E+00 -0.11052387169E+01 -0.10716821643E+01  0.15617064149E+01  0.51100000000E-03 0.  1.
        -12    1    3    3    0    0  0.35077750700E+02 -0.42349749320E+01  0.16737987387E+02  0.39096596126E+02  0.00000000000E+00 0.  1.
</event>
<event>
 7    1  0.2903212E-011  0.5052887E+02  0.7816164E-02  0.1300439E+00
        -11   -1    0    0    0    0  0.00000000000E+00  0.00000000000E+00  0.45593999997E+02  0.45594000000E+02  0.51100000000E-03 0. -1.
         11   -1    0    0    0    0 -0.00000000000E+00 -0.00000000000E+00 -0.45593999997E+02  0.45594000000E+02  0.51100000000E-03 0.  1.
    9900012    2    1    2    0    0  0.28030184909E+02  0.13151355452E+02  0.26353667851E+02  0.50528865412E+02  0.30000016906E+02 0.  0.
        -12    1    1    2    0    0 -0.28030184909E+02 -0.13151355452E+02 -0.26353667851E+02  0.40659134588E+02  0.00000000000E+00 0.  1.
         11    1    3    3    0    0  0.94411457918E+01  0.18072421568E-01  0.16360496281E+02  0.18889187365E+02  0.51100000000E-03 0. -1.
        -11    1    3    3    0    0  0.17464314122E+02  0.17720583335E+02  0.10251664983E+02  0.26909440289E+02  0.51100000000E-03 0.  1.
         12    1    3    3    0    0  0.11247249945E+01 -0.45873003047E+01 -0.25849341295E+00  0.47302377576E+01  0.00000000000E+00 0. -1.
</event>
<event>
 7    1  0.2903212E-011  0.5052886E+02  0.7816164E-02  0.1300439E+00
        -11   -1    0    0    0    0  0.00000000000E+00  0.00000000000E+00  0.45593999997E+02  0.45594000000E+02  0.51100000000E-03 0.  1.
         11   -1    0    0    0    0 -0.00000000000E+00 -0.00000000000E+00 -0.45593999997E+02  0.45594000000E+02  0.51100000000E-03 0. -1.
    9900012    2    1    2    0    0 -0.18814444309E+02 -0.23522810130E+02 -0.27310439951E+02  0.50528855378E+02  0.29999986408E+02 0.  0.
        -12    1    1    2    0    0  0.18814444309E+02  0.23522810130E+02  0.27310439951E+02  0.40659144622E+02  0.00000000000E+00 0.  1.
         11    1    3    3    0    0 -0.43195289578E+01 -0.13803366817E+01 -0.14538722687E+02  0.15229514681E+02  0.51100000000E-03 0. -1.
        -11    1    3    3    0    0  0.24238447936E+01 -0.50524518458E+01 -0.95000685744E+01  0.11029668917E+02  0.51100000000E-03 0.  1.
         12    1    3    3    0    0 -0.16918760144E+02 -0.17090021602E+02 -0.32716486897E+01  0.24269671781E+02  0.00000000000E+00 0. -1.
</event>
<event>
 7    1  0.2903212E-011  0.5052886E+02  0.7816164E-02  0.1300439E+00
        -11   -1    0    0    0    0  0.00000000000E+00  0.00000000000E+00  0.45593999997E+02  0.45594000000E+02  0.51100000000E-03 0.  1.
         11   -1    0    0    0    0 -0.00000000000E+00 -0.00000000000E+00 -0.45593999997E+02  0.45594000000E+02  0.51100000000E-03 0. -1.
    9900012    2    1    2    0    0 -0.39690364887E+02 -0.70019551177E+01 -0.53678063984E+01  0.50528858520E+02  0.29999995959E+02 0.  0.
        -12    1    1    2    0    0  0.39690364887E+02  0.70019551177E+01  0.53678063984E+01  0.40659141480E+02  0.00000000000E+00 0.  1.
         11    1    3    3    0    0 -0.76439942990E+01 -0.48446751182E+01 -0.91768738342E+01  0.12888620542E+02  0.51100000000E-03 0. -1.
        -11    1    3    3    0    0 -0.54627043586E+01 -0.44321589882E+01 -0.59673514791E+01  0.92246656385E+01  0.51100000000E-03 0.  1.
        -12    1    3    3    0    0 -0.26583666229E+02  0.22748789888E+01  0.97764189149E+01  0.28415572340E+02  0.00000000000E+00 0.  1.
</event>
<event>
 7    1  0.2903212E-011  0.5052886E+02  0.7816164E-02  0.1300439E+00
        -11   -1    0    0    0    0  0.00000000000E+00  0.00000000000E+00  0.45593999997E+02  0.45594000000E+02  0.51100000000E-03 0. -1.
         11   -1    0    0    0    0 -0.00000000000E+00 -0.00000000000E+00 -0.45593999997E+02  0.45594000000E+02  0.51100000000E-03 0.  1.
    9900012    2    1    2    0    0 -0.44213948559E+01  0.29475103983E+02  0.27655647176E+02  0.50528864397E+02  0.30000013820E+02 0.  0.
        -12    1    1    2    0    0  0.44213948559E+01 -0.29475103983E+02 -0.27655647176E+02  0.40659135603E+02  0.00000000000E+00 0.  1.
         11    1    3    3    0    0 -0.75552068477E+01  0.23341999223E+00  0.69801476405E+01  0.10288736402E+02  0.51100000000E-03 0. -1.
        -11    1    3    3    0    0 -0.12700463655E+01  0.20245705749E+02  0.22240891836E+02  0.30102473138E+02  0.51100000000E-03 0.  1.
        -12    1    3    3    0    0  0.44038583572E+01  0.89959782413E+01 -0.15653923005E+01  0.10137654857E+02  0.00000000000E+00 0.  1.
</event>
<event>
 7    1  0.2903212E-011  0.5052886E+02  0.7816164E-02  0.1300439E+00
        -11   -1    0    0    0    0  0.00000000000E+00  0.00000000000E+00  0.45593999997E+02  0.45594000000E+02  0.51100000000E-03 0. -1.
         11   -1    0    0    0    0 -0.00000000000E+00 -0.00000000000E+00 -0.45593999997E+02  0.45594000000E+02  0.51100000000E-03 0.  1.
    9900012    2    1    2    0    0  0.17813478778E+02 -0.35427087709E+02 -0.89870591297E+01  0.50528858328E+02  0.29999995374E+02 0.  0.
        -12    1    1    2    0    0 -0.17813478778E+02  0.35427087709E+02  0.89870591297E+01  0.40659141672E+02  0.00000000000E+00 0.  1.
         11    1    3    3    0    0  0.92900420694E+01 -0.19604905993E+02  0.78609238742E+01  0.23074907260E+02  0.51100000000E-03 0. -1.
        -11    1    3    3    0    0 -0.26611919722E+01 -0.59350973874E+01 -0.32955384039E+01  0.72916320083E+01  0.51100000000E-03 0.  1.
         12    1    3    3    0    0  0.11184628681E+02 -0.98870843283E+01 -0.13552444600E+02  0.20162319060E+02  0.00000000000E+00 0. -1.
</event>
<event>
 7    1  0.2903212E-011  0.5052886E+02  0.7816164E-02  0.1300439E+00
        -11   -1    0    0    0    0  0.00000000000E+00  0.00000000000E+00  0.45593999997E+02  0.45594000000E+02  0.51100000000E-03 0.  1.
         11   -1    0    0    0    0 -0.00000000000E+00 -0.00000000000E+00 -0.45593999997E+02  0.45594000000E+02  0.51100000000E-03 0. -1.
    9900012    2    1    2    0    0 -0.13047356223E+02  0.33353039068E+02 -0.19248566196E+02  0.50528855640E+02  0.29999987202E+02 0.  0.
        -12    1    1    2    0    0  0.13047356223E+02 -0.33353039068E+02  0.19248566196E+02  0.40659144360E+02  0.00000000000E+00 0.  1.
         11    1    3    3    0    0 -0.86044446057E+01  0.18869186987E+02 -0.11245754695E+02  0.23591305251E+02  0.51100000000E-03 0. -1.
        -11    1    3    3    0    0 -0.96056314194E+01  0.23665272794E+01  0.23692639969E+01  0.10172611193E+02  0.51100000000E-03 0.  1.
        -12    1    3    3    0    0  0.51627198019E+01  0.12117324802E+02 -0.10372075498E+02  0.16764939196E+02  0.00000000000E+00 0.  1.
</event>
<event>
 7    1  0.2903212E-011  0.5052898E+02  0.7816164E-02  0.1300438E+00
        -11   -1    0    0    0    0  0.00000000000E+00  0.00000000000E+00  0.45593999997E+02  0.45594000000E+02  0.51100000000E-03 0.  1.
         11   -1    0    0    0    0 -0.00000000000E+00 -0.00000000000E+00 -0.45593999997E+02  0.45594000000E+02  0.51100000000E-03 0. -1.
    9900012    2    1    2    0    0 -0.15893770919E+02  0.23891622499E+02 -0.28805109130E+02  0.50528980193E+02  0.30000365792E+02 0.  0.
        -12    1    1    2    0    0  0.15893770919E+02 -0.23891622499E+02  0.28805109130E+02  0.40659019807E+02  0.00000000000E+00 0.  1.
         11    1    3    3    0    0 -0.85310634448E+01  0.62016048978E+01 -0.18816720288E+02  0.21570996952E+02  0.51100000000E-03 0. -1.
        -11    1    3    3    0    0 -0.46796882873E+01  0.16748089994E+02 -0.15150998525E+02  0.23064057697E+02  0.51100000000E-03 0.  1.
        -12    1    3    3    0    0 -0.26830191874E+01  0.94192760786E+00  0.51626096833E+01  0.58939255442E+01  0.00000000000E+00 0.  1.
</event>
<event>
 7    1  0.2903212E-011  0.5052885E+02  0.7816164E-02  0.1300439E+00
        -11   -1    0    0    0    0  0.00000000000E+00  0.00000000000E+00  0.45593999997E+02  0.45594000000E+02  0.51100000000E-03 0.  1.
         11   -1    0    0    0    0 -0.00000000000E+00 -0.00000000000E+00 -0.45593999997E+02  0.45594000000E+02  0.51100000000E-03 0. -1.
    9900012    2    1    2    0    0 -0.38804083937E+02 -0.58265032255E+01 -0.10651843401E+02  0.50528845583E+02  0.29999956635E+02 0.  0.
        -12    1    1    2    0    0  0.38804083937E+02  0.58265032255E+01  0.10651843401E+02  0.40659154417E+02  0.00000000000E+00 0.  1.
         11    1    3    3    0    0 -0.21700892542E+02 -0.61675878535E+01 -0.61176280820E+01  0.23375056164E+02  0.51100000000E-03 0.  1.
        -11    1    3    3    0    0 -0.20723292764E+02 -0.40046151430E+01 -0.38761437030E+01  0.21459643419E+02  0.51100000000E-03 0. -1.
        -12    1    3    3    0    0  0.36201013686E+01  0.43456997710E+01 -0.65807161583E+00  0.56941460001E+01  0.00000000000E+00 0.  1.
</event>
<event>
 7    1  0.2903212E-011  0.5052885E+02  0.7816164E-02  0.1300439E+00
        -11   -1    0    0    0    0  0.00000000000E+00  0.00000000000E+00  0.45593999997E+02  0.45594000000E+02  0.51100000000E-03 0. -1.
         11   -1    0    0    0    0 -0.00000000000E+00 -0.00000000000E+00 -0.45593999997E+02  0.45594000000E+02  0.51100000000E-03 0.  1.
    9900012    2    1    2    0    0  0.42980305026E+01 -0.40320083046E+02  0.29974523220E+01  0.50528845022E+02  0.29999954930E+02 0.  0.
        -12    1    1    2    0    0 -0.42980305026E+01  0.40320083046E+02 -0.29974523220E+01  0.40659154978E+02  0.00000000000E+00 0.  1.
         11    1    3    3    0    0 -0.45345783531E+01 -0.22403417554E+02 -0.10398285143E+01  0.22881362778E+02  0.51100000000E-03 0. -1.
        -11    1    3    3    0    0  0.66021216394E+01 -0.78709871284E+01 -0.70969570616E+01  0.12486282406E+02  0.51100000000E-03 0.  1.
         12    1    3    3    0    0  0.22304872163E+01 -0.10045678363E+02  0.11134237898E+02  0.15161199839E+02  0.00000000000E+00 0. -1.
</event>
<event>
 7    1  0.2903212E-011  0.5052880E+02  0.7816164E-02  0.1300439E+00
        -11   -1    0    0    0    0  0.00000000000E+00  0.00000000000E+00  0.45593999997E+02  0.45594000000E+02  0.51100000000E-03 0. -1.
         11   -1    0    0    0    0 -0.00000000000E+00 -0.00000000000E+00 -0.45593999997E+02  0.45594000000E+02  0.51100000000E-03 0.  1.
    9900012    2    1    2    0    0 -0.26302179609E+02  0.10430065551E+02  0.29198967868E+02  0.50528798776E+02  0.29999814359E+02 0.  0.
        -12    1    1    2    0    0  0.26302179609E+02 -0.10430065551E+02 -0.29198967868E+02  0.40659201224E+02  0.00000000000E+00 0.  1.
         11    1    3    3    0    0 -0.22573957634E+02  0.83792927876E+01  0.14165618043E+02  0.27936729331E+02  0.51100000000E-03 0. -1.
        -11    1    3    3    0    0 -0.76978298625E+01  0.35713292134E+01  0.17758639576E+01  0.86697560519E+01  0.51100000000E-03 0.  1.
         12    1    3    3    0    0  0.39696078875E+01 -0.15205564502E+01  0.13257485867E+02  0.13922313393E+02  0.00000000000E+00 0. -1.
</event>
<event>
 7    1  0.2903212E-011  0.5052881E+02  0.7816164E-02  0.1300439E+00
        -11   -1    0    0    0    0  0.00000000000E+00  0.00000000000E+00  0.45593999997E+02  0.45594000000E+02  0.51100000000E-03 0.  1.
         11   -1    0    0    0    0 -0.00000000000E+00 -0.00000000000E+00 -0.45593999997E+02  0.45594000000E+02  0.51100000000E-03 0. -1.
    9900012    2    1    2    0    0 -0.20588356993E+02  0.18966659710E+02 -0.29488226400E+02  0.50528805217E+02  0.29999833936E+02 0.  0.
        -12    1    1    2    0    0  0.20588356993E+02 -0.18966659710E+02  0.29488226400E+02  0.40659194783E+02  0.00000000000E+00 0.  1.
         11    1    3    3    0    0 -0.11126428959E+02  0.82228205686E+01 -0.22685843806E+02  0.26571784076E+02  0.51100000000E-03 0. -1.
        -11    1    3    3    0    0  0.45177469844E+01  0.26950460600E+00 -0.44216073319E+01  0.63271859627E+01  0.51100000000E-03 0.  1.
        -12    1    3    3    0    0 -0.13979675018E+02  0.10474334535E+02 -0.23807752618E+01  0.17629835178E+02  0.00000000000E+00 0.  1.
</event>
<event>
 7    1  0.2903212E-011  0.5052884E+02  0.7816164E-02  0.1300439E+00
        -11   -1    0    0    0    0  0.00000000000E+00  0.00000000000E+00  0.45593999997E+02  0.45594000000E+02  0.51100000000E-03 0. -1.
         11   -1    0    0    0    0 -0.00000000000E+00 -0.00000000000E+00 -0.45593999997E+02  0.45594000000E+02  0.51100000000E-03 0.  1.
    9900012    2    1    2    0    0 -0.12294769174E+02 -0.33939435225E+02  0.18711504000E+02  0.50528843659E+02  0.29999950785E+02 0.  0.
        -12    1    1    2    0    0  0.12294769174E+02  0.33939435225E+02 -0.18711504000E+02  0.40659156341E+02  0.00000000000E+00 0.  1.
         11    1    3    3    0    0 -0.10026111099E+02 -0.18823180809E+02  0.13388498053E+02  0.25181082581E+02  0.51100000000E-03 0. -1.
        -11    1    3    3    0    0  0.84350514055E+01 -0.58889924786E+01  0.43904129894E+01  0.11185081632E+02  0.51100000000E-03 0.  1.
         12    1    3    3    0    0 -0.10703709480E+02 -0.92272619370E+01  0.93259295809E+00  0.14162679447E+02  0.00000000000E+00 0. -1.
</event>
<event>
 7    1  0.2903212E-011  0.5052892E+02  0.7816164E-02  0.1300439E+00
        -11   -1    0    0    0    0  0.00000000000E+00  0.00000000000E+00  0.45593999997E+02  0.45594000000E+02  0.51100000000E-03 0.  1.
         11   -1    0    0    0    0 -0.00000000000E+00 -0.00000000000E+00 -0.45593999997E+02  0.45594000000E+02  0.51100000000E-03 0. -1.
    9900012    2    1    2    0    0 -0.38930127545E+02  0.98450857354E+01 -0.63781119598E+01  0.50528919145E+02  0.30000180234E+02 0.  0.
        -12    1    1    2    0    0  0.38930127545E+02 -0.98450857354E+01  0.63781119598E+01  0.40659080855E+02  0.00000000000E+00 0.  1.
         11    1    3    3    0    0 -0.14987747086E+02  0.13619802225E+02 -0.70942696945E+01  0.21458337264E+02  0.51100000000E-03 0. -1.
        -11    1    3    3    0    0  0.14147342665E+01  0.23897486171E+01 -0.91503944069E+00  0.29239816923E+01  0.51100000000E-03 0.  1.
         12    1    3    3    0    0 -0.25357114725E+02 -0.61644651069E+01  0.16311971753E+01  0.26146600189E+02  0.00000000000E+00 0. -1.
</event>
<event>
 7    1  0.2903212E-011  0.5052899E+02  0.7816164E-02  0.1300438E+00
        -11   -1    0    0    0    0  0.00000000000E+00  0.00000000000E+00  0.45593999997E+02  0.45594000000E+02  0.51100000000E-03 0.  1.
         11   -1    0    0    0    0 -0.00000000000E+00 -0.00000000000E+00 -0.45593999997E+02  0.45594000000E+02  0.51100000000E-03 0. -1.
    9900012    2    1    2    0    0  0.91049360424E+01  0.13427143775E+02 -0.37282257584E+02  0.50528993853E+02  0.30000407312E+02 0.  0.
        -12    1    1    2    0    0 -0.91049360424E+01 -0.13427143775E+02  0.37282257584E+02  0.40659006147E+02  0.00000000000E+00 0.  1.
         11    1    3    3    0    0  0.90583363421E+01  0.14517214603E+02 -0.30349722949E+02  0.34841192007E+02  0.51100000000E-03 0. -1.
        -11    1    3    3    0    0 -0.44535124370E+01  0.44124842097E+01 -0.83913554885E+00  0.63251828952E+01  0.51100000000E-03 0.  1.
        -12    1    3    3    0    0  0.45001121373E+01 -0.55025550373E+01 -0.60933990864E+01  0.93626189505E+01  0.00000000000E+00 0.  1.
</event>
<event>
 7    1  0.2903212E-011  0.5052888E+02  0.7816164E-02  0.1300439E+00
        -11   -1    0    0    0    0  0.00000000000E+00  0.00000000000E+00  0.45593999997E+02  0.45594000000E+02  0.51100000000E-03 0.  1.
         11   -1    0    0    0    0 -0.00000000000E+00 -0.00000000000E+00 -0.45593999997E+02  0.45594000000E+02  0.51100000000E-03 0. -1.
    9900012    2    1    2    0    0 -0.21608283964E+02  0.27374860394E+02 -0.20901266604E+02  0.50528882165E+02  0.30000067830E+02 0.  0.
        -12    1    1    2    0    0  0.21608283964E+02 -0.27374860394E+02  0.20901266604E+02  0.40659117835E+02  0.00000000000E+00 0.  1.
         11    1    3    3    0    0 -0.22969256741E+01  0.82497934057E+01  0.11335745912E+01  0.86382839965E+01  0.51100000000E-03 0. -1.
        -11    1    3    3    0    0 -0.56588207622E+01  0.20407135535E+02 -0.17422972691E+02  0.27423227579E+02  0.51100000000E-03 0.  1.
        -12    1    3    3    0    0 -0.13652537528E+02 -0.12820685470E+01 -0.46118685039E+01  0.14467370590E+02  0.00000000000E+00 0.  1.
</event>
<event>
 7    1  0.2903212E-011  0.5052886E+02  0.7816164E-02  0.1300439E+00
        -11   -1    0    0    0    0  0.00000000000E+00  0.00000000000E+00  0.45593999997E+02  0.45594000000E+02  0.51100000000E-03 0. -1.
         11   -1    0    0    0    0 -0.00000000000E+00 -0.00000000000E+00 -0.45593999997E+02  0.45594000000E+02  0.51100000000E-03 0.  1.
    9900012    2    1    2    0    0  0.35349152545E+02 -0.35936045248E+01  0.19765856964E+02  0.50528859814E+02  0.29999999892E+02 0.  0.
        -12    1    1    2    0    0 -0.35349152545E+02  0.35936045248E+01 -0.19765856964E+02  0.40659140186E+02  0.00000000000E+00 0.  1.
         11    1    3    3    0    0  0.73981533248E+01  0.79951580716E+01  0.59068635827E+01  0.12391378570E+02  0.51100000000E-03 0. -1.
        -11    1    3    3    0    0  0.26272011651E+01 -0.22085974260E+01 -0.43691838986E+01  0.55560648622E+01  0.51100000000E-03 0.  1.
         12    1    3    3    0    0  0.25323798055E+02 -0.93801651705E+01  0.18228177280E+02  0.32581416383E+02  0.00000000000E+00 0. -1.
</event>
<event>
 7    1  0.2903212E-011  0.5052886E+02  0.7816164E-02  0.1300439E+00
        -11   -1    0    0    0    0  0.00000000000E+00  0.00000000000E+00  0.45593999997E+02  0.45594000000E+02  0.51100000000E-03 0. -1.
         11   -1    0    0    0    0 -0.00000000000E+00 -0.00000000000E+00 -0.45593999997E+02  0.45594000000E+02  0.51100000000E-03 0.  1.
    9900012    2    1    2    0    0  0.33572626571E+02 -0.19045954769E+02  0.12778743729E+02  0.50528856634E+02  0.29999990225E+02 0.  0.
        -12    1    1    2    0    0 -0.33572626571E+02  0.19045954769E+02 -0.12778743729E+02  0.40659143366E+02  0.00000000000E+00 0.  1.
         11    1    3    3    0    0  0.10682208911E+01 -0.60723244495E+00  0.35651985290E+01  0.37710035703E+01  0.51100000000E-03 0. -1.
        -11    1    3    3    0    0  0.18028657007E+02  0.26171811406E+01  0.10762200157E+02  0.21159089373E+02  0.51100000000E-03 0.  1.
         12    1    3    3    0    0  0.14475748673E+02 -0.21055903465E+02 -0.15486549565E+01  0.25598763691E+02  0.00000000000E+00 0. -1.
</event>
<event>
 7    1  0.2903212E-011  0.5052885E+02  0.7816164E-02  0.1300439E+00
        -11   -1    0    0    0    0  0.00000000000E+00  0.00000000000E+00  0.45593999997E+02  0.45594000000E+02  0.51100000000E-03 0.  1.
         11   -1    0    0    0    0 -0.00000000000E+00 -0.00000000000E+00 -0.45593999997E+02  0.45594000000E+02  0.51100000000E-03 0. -1.
    9900012    2    1    2    0    0 -0.94980226264E+00 -0.18996203602E+02 -0.35936177682E+02  0.50528846762E+02  0.29999960218E+02 0.  0.
        -12    1    1    2    0    0  0.94980226264E+00  0.18996203602E+02  0.35936177682E+02  0.40659153238E+02  0.00000000000E+00 0.  1.
         11    1    3    3    0    0 -0.16720927432E+01  0.15768373447E+01 -0.36550869733E+01  0.43176349078E+01  0.51100000000E-03 0. -1.
        -11    1    3    3    0    0 -0.42472089352E+01  0.52575494345E+01 -0.68791789850E+01  0.96438432984E+01  0.51100000000E-03 0.  1.
        -12    1    3    3    0    0  0.49694994158E+01 -0.25830590382E+02 -0.25401911723E+02  0.36567368556E+02  0.00000000000E+00 0.  1.
</event>
<event>
 7    1  0.2903212E-011  0.5052895E+02  0.7816164E-02  0.1300438E+00
        -11   -1    0    0    0    0  0.00000000000E+00  0.00000000000E+00  0.45593999997E+02  0.45594000000E+02  0.51100000000E-03 0. -1.
         11   -1    0    0    0    0 -0.00000000000E+00 -0.00000000000E+00 -0.45593999997E+02  0.45594000000E+02  0.51100000000E-03 0.  1.
    9900012    2    1    2    0    0 -0.59366009972E+01 -0.13740138361E+02  0.37803752242E+02  0.50528950366E+02  0.30000275130E+02 0.  0.
        -12    1    1    2    0    0  0.59366009972E+01  0.13740138361E+02 -0.37803752242E+02  0.40659049634E+02  0.00000000000E+00 0.  1.
         11    1    3    3    0    0 -0.48688524752E+01  0.27808164917E+01  0.11065068557E+02  0.12404612336E+02  0.51100000000E-03 0. -1.
        -11    1    3    3    0    0 -0.68021975308E+01  0.16049718075E+01  0.27377368083E+01  0.75060661364E+01  0.51100000000E-03 0.  1.
        -12    1    3    3    0    0  0.57344490089E+01 -0.18125926660E+02  0.24000946877E+02  0.30618271893E+02  0.00000000000E+00 0.  1.
</event>
<event>
 7    1  0.2903212E-011  0.5052884E+02  0.7816164E-02  0.1300439E+00
        -11   -1    0    0    0    0  0.00000000000E+00  0.00000000000E+00  0.45593999997E+02  0.45594000000E+02  0.51100000000E-03 0.  1.
         11   -1    0    0    0    0 -0.00000000000E+00 -0.00000000000E+00 -0.45593999997E+02  0.45594000000E+02  0.51100000000E-03 0. -1.
    9900012    2    1    2    0    0 -0.31884333739E+02 -0.22146603913E+02 -0.12086528575E+02  0.50528843886E+02  0.29999951477E+02 0.  0.
        -12    1    1    2    0    0  0.31884333739E+02  0.22146603913E+02  0.12086528575E+02  0.40659156114E+02  0.00000000000E+00 0.  1.
         11    1    3    3    0    0 -0.29569464266E+02 -0.66757233225E+01 -0.57415828590E+01  0.30852621814E+02  0.51100000000E-03 0. -1.
        -11    1    3    3    0    0 -0.22416199200E+01 -0.32856676516E+00  0.14048660876E+01  0.26657953729E+01  0.51100000000E-03 0.  1.
        -12    1    3    3    0    0 -0.73249553557E-01 -0.15142313825E+02 -0.77498118038E+01  0.17010426699E+02  0.00000000000E+00 0.  1.
</event>
<event>
 7    1  0.2903212E-011  0.5052885E+02  0.7816164E-02  0.1300439E+00
        -11   -1    0    0    0    0  0.00000000000E+00  0.00000000000E+00  0.45593999997E+02  0.45594000000E+02  0.51100000000E-03 0. -1.
         11   -1    0    0    0    0 -0.00000000000E+00 -0.00000000000E+00 -0.45593999997E+02  0.45594000000E+02  0.51100000000E-03 0.  1.
    9900012    2    1    2    0    0  0.54298585585E+01 -0.39265440566E+02 -0.90503349350E+01  0.50528846673E+02  0.29999959947E+02 0.  0.
        -12    1    1    2    0    0 -0.54298585585E+01  0.39265440566E+02  0.90503349350E+01  0.40659153327E+02  0.00000000000E+00 0.  1.
         11    1    3    3    0    0  0.30561852934E+01 -0.13393229638E+02  0.45143680161E+01  0.14460234698E+02  0.51100000000E-03 0. -1.
        -11    1    3    3    0    0  0.15053389458E+01 -0.16261651110E+02  0.32785007586E+01  0.16657007824E+02  0.51100000000E-03 0.  1.
        -12    1    3    3    0    0  0.86833431924E+00 -0.96105598189E+01 -0.16843203710E+02  0.19411604151E+02  0.00000000000E+00 0.  1.
</event>
<event>
 7    1  0.2903212E-011  0.5052887E+02  0.7816164E-02  0.1300439E+00
        -11   -1    0    0    0    0  0.00000000000E+00  0.00000000000E+00  0.45593999997E+02  0.45594000000E+02  0.51100000000E-03 0. -1.
         11   -1    0    0    0    0 -0.00000000000E+00 -0.00000000000E+00 -0.45593999997E+02  0.45594000000E+02  0.51100000000E-03 0.  1.
    9900012    2    1    2    0    0 -0.73035091932E+01 -0.38590764249E+02  0.10515534029E+02  0.50528870794E+02  0.30000033265E+02 0.  0.
        -12    1    1    2    0    0  0.73035091932E+01  0.38590764249E+02 -0.10515534029E+02  0.40659129206E+02  0.00000000000E+00 0.  1.
         11    1    3    3    0    0 -0.51956969903E+01  0.56484661832E+00  0.45697449437E+01  0.69423978587E+01  0.51100000000E-03 0. -1.
        -11    1    3    3    0    0 -0.10571187155E+01 -0.11997849834E+02 -0.65088596809E+01  0.13690549851E+02  0.51100000000E-03 0.  1.
         12    1    3    3    0    0 -0.10506934875E+01 -0.27157761034E+02  0.12454648766E+02  0.29895923084E+02  0.00000000000E+00 0. -1.
</event>
<event>
 7    1  0.2903212E-011  0.5052886E+02  0.7816164E-02  0.1300439E+00
        -11   -1    0    0    0    0  0.00000000000E+00  0.00000000000E+00  0.45593999997E+02  0.45594000000E+02  0.51100000000E-03 0. -1.
         11   -1    0    0    0    0 -0.00000000000E+00 -0.00000000000E+00 -0.45593999997E+02  0.45594000000E+02  0.51100000000E-03 0.  1.
    9900012    2    1    2    0    0 -0.14921093839E+02 -0.34642055886E+02  0.15180727662E+02  0.50528861178E+02  0.30000004038E+02 0.  0.
        -12    1    1    2    0    0  0.14921093839E+02  0.34642055886E+02 -0.15180727662E+02  0.40659138822E+02  0.00000000000E+00 0.  1.
         11    1    3    3    0    0 -0.55762641448E+01 -0.11233122647E+02  0.11452148153E+02  0.16983211234E+02  0.51100000000E-03 0. -1.
        -11    1    3    3    0    0  0.36081543191E+00 -0.17923206201E+02  0.10229431063E+02  0.20640076754E+02  0.51100000000E-03 0.  1.
        -12    1    3    3    0    0 -0.97056451257E+01 -0.54857270379E+01 -0.65008515542E+01  0.12905573190E+02  0.00000000000E+00 0.  1.
</event>
<event>
 7    1  0.2903212E-011  0.5052885E+02  0.7816164E-02  0.1300439E+00
        -11   -1    0    0    0    0  0.00000000000E+00  0.00000000000E+00  0.45593999997E+02  0.45594000000E+02  0.51100000000E-03 0. -1.
         11   -1    0    0    0    0 -0.00000000000E+00 -0.00000000000E+00 -0.45593999997E+02  0.45594000000E+02  0.51100000000E-03 0.  1.
    9900012    2    1    2    0    0 -0.31121157287E+01 -0.30978328319E+02  0.26150036610E+02  0.50528849684E+02  0.29999969099E+02 0.  0.
        -12    1    1    2    0    0  0.31121157287E+01  0.30978328319E+02 -0.26150036610E+02  0.40659150316E+02  0.00000000000E+00 0.  1.
         11    1    3    3    0    0  0.27830176859E+01  0.52612367049E+00  0.73879283893E+01  0.79122360748E+01  0.51100000000E-03 0. -1.
        -11    1    3    3    0    0 -0.57705019035E+01 -0.30686604585E+01  0.11564842343E+02  0.13283860429E+02  0.51100000000E-03 0.  1.
         12    1    3    3    0    0 -0.12463151112E+00 -0.28435791531E+02  0.71972658779E+01  0.29332753180E+02  0.00000000000E+00 0. -1.
</event>
<event>
 7    1  0.2903212E-011  0.5052887E+02  0.7816164E-02  0.1300439E+00
        -11   -1    0    0    0    0  0.00000000000E+00  0.00000000000E+00  0.45593999997E+02  0.45594000000E+02  0.51100000000E-03 0. -1.
         11   -1    0    0    0    0 -0.00000000000E+00 -0.00000000000E+00 -0.45593999997E+02  0.45594000000E+02  0.51100000000E-03 0.  1.
    9900012    2    1    2    0    0  0.10132040804E+02  0.39373605429E+02  0.47495977717E+00  0.50528872585E+02  0.30000038709E+02 0.  0.
        -12    1    1    2    0    0 -0.10132040804E+02 -0.39373605429E+02 -0.47495977717E+00  0.40659127415E+02  0.00000000000E+00 0.  1.
         11    1    3    3    0    0  0.72625026534E+01  0.18659803718E+02  0.12988179161E+02  0.23866818342E+02  0.51100000000E-03 0. -1.
        -11    1    3    3    0    0  0.14064704914E+01  0.18226281608E+01 -0.63225137922E+01  0.67286189943E+01  0.51100000000E-03 0.  1.
        -12    1    3    3    0    0  0.14630676591E+01  0.18891173551E+02 -0.61907055918E+01  0.19933435249E+02  0.00000000000E+00 0.  1.
</event>
<event>
 7    1  0.2903212E-011  0.5052885E+02  0.7816164E-02  0.1300439E+00
        -11   -1    0    0    0    0  0.00000000000E+00  0.00000000000E+00  0.45593999997E+02  0.45594000000E+02  0.51100000000E-03 0. -1.
         11   -1    0    0    0    0 -0.00000000000E+00 -0.00000000000E+00 -0.45593999997E+02  0.45594000000E+02  0.51100000000E-03 0.  1.
    9900012    2    1    2    0    0  0.34658529562E+02 -0.67728364794E+01  0.20151453803E+02  0.50528854956E+02  0.29999985123E+02 0.  0.
        -12    1    1    2    0    0 -0.34658529562E+02  0.67728364794E+01 -0.20151453803E+02  0.40659145044E+02  0.00000000000E+00 0.  1.
         11    1    3    3    0    0  0.18074901077E+01 -0.37279249944E+01  0.70980282131E+01  0.82186647351E+01  0.51100000000E-03 0.  1.
        -11    1    3    3    0    0  0.53008204429E+01 -0.10118153352E+02  0.64202911506E+01  0.13103276817E+02  0.51100000000E-03 0. -1.
         12    1    3    3    0    0  0.27550219011E+02  0.70732418668E+01  0.66331344390E+01  0.29206913404E+02  0.00000000000E+00 0. -1.
</event>
<event>
 7    1  0.2903212E-011  0.5052887E+02  0.7816164E-02  0.1300439E+00
        -11   -1    0    0    0    0  0.00000000000E+00  0.00000000000E+00  0.45593999997E+02  0.45594000000E+02  0.51100000000E-03 0.  1.
         11   -1    0    0    0    0 -0.00000000000E+00 -0.00000000000E+00 -0.45593999997E+02  0.45594000000E+02  0.51100000000E-03 0. -1.
    9900012    2    1    2    0    0 -0.66907423166E+01 -0.29969907737E+02 -0.26649639845E+02  0.50528871795E+02  0.30000036309E+02 0.  0.
        -12    1    1    2    0    0  0.66907423166E+01  0.29969907737E+02  0.26649639845E+02  0.40659128205E+02  0.00000000000E+00 0.  1.
         11    1    3    3    0    0 -0.76092252639E+01 -0.56200236123E+01 -0.73384130981E+01  0.11972354889E+02  0.51100000000E-03 0. -1.
        -11    1    3    3    0    0 -0.10311436542E+02 -0.15102795798E+02 -0.72957491540E+01  0.19688781589E+02  0.51100000000E-03 0.  1.
        -12    1    3    3    0    0  0.11229919489E+02 -0.92470883269E+01 -0.12015477593E+02  0.18867735318E+02  0.00000000000E+00 0.  1.
</event>
<event>
 7    1  0.2903212E-011  0.5052886E+02  0.7816164E-02  0.1300439E+00
        -11   -1    0    0    0    0  0.00000000000E+00  0.00000000000E+00  0.45593999997E+02  0.45594000000E+02  0.51100000000E-03 0.  1.
         11   -1    0    0    0    0 -0.00000000000E+00 -0.00000000000E+00 -0.45593999997E+02  0.45594000000E+02  0.51100000000E-03 0. -1.
    9900012    2    1    2    0    0 -0.33379687492E+02  0.13674464460E+02 -0.18760893215E+02  0.50528860443E+02  0.30000001801E+02 0.  0.
        -12    1    1    2    0    0  0.33379687492E+02 -0.13674464460E+02  0.18760893215E+02  0.40659139557E+02  0.00000000000E+00 0.  1.
         11    1    3    3    0    0 -0.49675671243E+01  0.34302077066E+01  0.16677962936E+01  0.62629539982E+01  0.51100000000E-03 0. -1.
        -11    1    3    3    0    0 -0.25846436511E+02  0.14665491803E+02 -0.79222246645E+01  0.30755106471E+02  0.51100000000E-03 0.  1.
         12    1    3    3    0    0 -0.25656838561E+01 -0.44212350495E+01 -0.12506464844E+02  0.13510799973E+02  0.00000000000E+00 0. -1.
</event>
<event>
 7    1  0.2903212E-011  0.5052886E+02  0.7816164E-02  0.1300439E+00
        -11   -1    0    0    0    0  0.00000000000E+00  0.00000000000E+00  0.45593999997E+02  0.45594000000E+02  0.51100000000E-03 0.  1.
         11   -1    0    0    0    0 -0.00000000000E+00 -0.00000000000E+00 -0.45593999997E+02  0.45594000000E+02  0.51100000000E-03 0. -1.
    9900012    2    1    2    0    0  0.29006661463E+02  0.22708746121E+02 -0.17207325169E+02  0.50528860817E+02  0.30000002939E+02 0.  0.
        -12    1    1    2    0    0 -0.29006661463E+02 -0.22708746121E+02  0.17207325169E+02  0.40659139183E+02  0.00000000000E+00 0.  1.
         11    1    3    3    0    0  0.26268524927E+02  0.84364219010E+01 -0.47767223309E+01  0.28000458796E+02  0.51100000000E-03 0. -1.
        -11    1    3    3    0    0  0.22266014997E+01  0.77831006631E+00  0.17574037251E+01  0.29414263397E+01  0.51100000000E-03 0.  1.
         12    1    3    3    0    0  0.51153503669E+00  0.13494014154E+02 -0.14188006564E+02  0.19586975681E+02  0.00000000000E+00 0. -1.
</event>
<event>
 7    1  0.2903212E-011  0.5052885E+02  0.7816164E-02  0.1300439E+00
        -11   -1    0    0    0    0  0.00000000000E+00  0.00000000000E+00  0.45593999997E+02  0.45594000000E+02  0.51100000000E-03 0.  1.
         11   -1    0    0    0    0 -0.00000000000E+00 -0.00000000000E+00 -0.45593999997E+02  0.45594000000E+02  0.51100000000E-03 0. -1.
    9900012    2    1    2    0    0 -0.30463988195E+02 -0.23863343610E+02 -0.12476077129E+02  0.50528852868E+02  0.29999978777E+02 0.  0.
        -12    1    1    2    0    0  0.30463988195E+02  0.23863343610E+02  0.12476077129E+02  0.40659147132E+02  0.00000000000E+00 0.  1.
         11    1    3    3    0    0 -0.14641108256E+01 -0.81187851229E+01 -0.92653368265E+01  0.12405835689E+02  0.51100000000E-03 0. -1.
        -11    1    3    3    0    0 -0.37910108689E+01 -0.98593416697E+01 -0.58963927000E+01  0.12097348003E+02  0.51100000000E-03 0.  1.
         12    1    3    3    0    0 -0.25208866501E+02 -0.58852168171E+01  0.26856523979E+01  0.26025669176E+02  0.00000000000E+00 0. -1.
</event>
<event>
 7    1  0.2903212E-011  0.5052887E+02  0.7816164E-02  0.1300439E+00
        -11   -1    0    0    0    0  0.00000000000E+00  0.00000000000E+00  0.45593999997E+02  0.45594000000E+02  0.51100000000E-03 0.  1.
         11   -1    0    0    0    0 -0.00000000000E+00 -0.00000000000E+00 -0.45593999997E+02  0.45594000000E+02  0.51100000000E-03 0. -1.
    9900012    2    1    2    0    0 -0.46464923320E+01 -0.26477816217E+02 -0.30504106390E+02  0.50528866348E+02  0.30000019753E+02 0.  0.
        -12    1    1    2    0    0  0.46464923320E+01  0.26477816217E+02  0.30504106390E+02  0.40659133652E+02  0.00000000000E+00 0.  1.
         11    1    3    3    0    0 -0.26945435011E+01  0.43781375526E+01 -0.38764246713E+01  0.64385807133E+01  0.51100000000E-03 0. -1.
        -11    1    3    3    0    0  0.17680772151E+01  0.16484505937E+01 -0.16061022885E+01  0.29022493382E+01  0.51100000000E-03 0.  1.
         12    1    3    3    0    0 -0.37200260460E+01 -0.32504404363E+02 -0.25021579431E+02  0.41188036297E+02  0.00000000000E+00 0. -1.
</event>
<event>
 7    1  0.2903212E-011  0.5052875E+02  0.7816164E-02  0.1300439E+00
        -11   -1    0    0    0    0  0.00000000000E+00  0.00000000000E+00  0.45593999997E+02  0.45594000000E+02  0.51100000000E-03 0.  1.
         11   -1    0    0    0    0 -0.00000000000E+00 -0.00000000000E+00 -0.45593999997E+02  0.45594000000E+02  0.51100000000E-03 0. -1.
    9900012    2    1    2    0    0 -0.13496347078E+02 -0.24128457128E+02 -0.29813428504E+02  0.50528753241E+02  0.29999675948E+02 0.  0.
        -12    1    1    2    0    0  0.13496347078E+02  0.24128457128E+02  0.29813428504E+02  0.40659246759E+02  0.00000000000E+00 0.  1.
         11    1    3    3    0    0  0.19044528826E+01 -0.52512967966E+01 -0.10093699468E+02  0.11536283112E+02  0.51100000000E-03 0. -1.
        -11    1    3    3    0    0  0.32521917814E+01 -0.33250564629E+01 -0.12980931243E+02  0.13789029265E+02  0.51100000000E-03 0.  1.
        -12    1    3    3    0    0 -0.18652991742E+02 -0.15552103869E+02 -0.67387977935E+01  0.25203440864E+02  0.00000000000E+00 0.  1.
</event>
<event>
 7    1  0.2903212E-011  0.5052886E+02  0.7816164E-02  0.1300439E+00
        -11   -1    0    0    0    0  0.00000000000E+00  0.00000000000E+00  0.45593999997E+02  0.45594000000E+02  0.51100000000E-03 0. -1.
         11   -1    0    0    0    0 -0.00000000000E+00 -0.00000000000E+00 -0.45593999997E+02  0.45594000000E+02  0.51100000000E-03 0.  1.
    9900012    2    1    2    0    0 -0.40555755954E+02  0.28897541099E+01 -0.21368684214E+00  0.50528859799E+02  0.29999999846E+02 0.  0.
        -12    1    1    2    0    0  0.40555755954E+02 -0.28897541099E+01  0.21368684214E+00  0.40659140201E+02  0.00000000000E+00 0.  1.
         11    1    3    3    0    0 -0.30111535226E+02 -0.86682554718E+01  0.57921813687E+01  0.31865225119E+02  0.51100000000E-03 0. -1.
        -11    1    3    3    0    0 -0.68145703660E+01  0.17493351810E+01 -0.11356523655E+01  0.71265875007E+01  0.51100000000E-03 0.  1.
         12    1    3    3    0    0 -0.36296503614E+01  0.98086744007E+01 -0.48702158453E+01  0.11537047180E+02  0.00000000000E+00 0. -1.
</event>
<event>
 7    1  0.2903212E-011  0.5052887E+02  0.7816164E-02  0.1300439E+00
        -11   -1    0    0    0    0  0.00000000000E+00  0.00000000000E+00  0.45593999997E+02  0.45594000000E+02  0.51100000000E-03 0. -1.
         11   -1    0    0    0    0 -0.00000000000E+00 -0.00000000000E+00 -0.45593999997E+02  0.45594000000E+02  0.51100000000E-03 0.  1.
    9900012    2    1    2    0    0  0.32779101603E+02  0.65775343855E+01 -0.23139397488E+02  0.50528866013E+02  0.30000018733E+02 0.  0.
        -12    1    1    2    0    0 -0.32779101603E+02 -0.65775343855E+01  0.23139397488E+02  0.40659133987E+02  0.00000000000E+00 0.  1.
         11    1    3    3    0    0 -0.57937151274E+00  0.12607504056E+01 -0.71594214372E+01  0.72926317960E+01  0.51100000000E-03 0. -1.
        -11    1    3    3    0    0 -0.25719110110E+01  0.15004483473E+01  0.12211744959E+01  0.32182819799E+01  0.51100000000E-03 0.  1.
         12    1    3    3    0    0  0.35930384126E+02  0.38163356326E+01 -0.17201150546E+02  0.40017952237E+02  0.00000000000E+00 0. -1.
</event>
<event>
 7    1  0.2903212E-011  0.5052886E+02  0.7816164E-02  0.1300439E+00
        -11   -1    0    0    0    0  0.00000000000E+00  0.00000000000E+00  0.45593999997E+02  0.45594000000E+02  0.51100000000E-03 0. -1.
         11   -1    0    0    0    0 -0.00000000000E+00 -0.00000000000E+00 -0.45593999997E+02  0.45594000000E+02  0.51100000000E-03 0.  1.
    9900012    2    1    2    0    0 -0.34589620004E+02 -0.20203096741E+02  0.69683961875E+01  0.50528862339E+02  0.30000007565E+02 0.  0.
        -12    1    1    2    0    0  0.34589620004E+02  0.20203096741E+02 -0.69683961875E+01  0.40659137661E+02  0.00000000000E+00 0.  1.
         11    1    3    3    0    0 -0.19059471499E+01 -0.11627717809E+01 -0.41315830060E+01  0.46962379783E+01  0.51100000000E-03 0. -1.
        -11    1    3    3    0    0 -0.11171531848E+02 -0.28311262840E+01 -0.69038572426E+01  0.13434345721E+02  0.51100000000E-03 0.  1.
         12    1    3    3    0    0 -0.21512141006E+02 -0.16209198676E+02  0.18003836436E+02  0.32398278640E+02  0.00000000000E+00 0. -1.
</event>
<event>
 7    1  0.2903212E-011  0.5052885E+02  0.7816164E-02  0.1300439E+00
        -11   -1    0    0    0    0  0.00000000000E+00  0.00000000000E+00  0.45593999997E+02  0.45594000000E+02  0.51100000000E-03 0.  1.
         11   -1    0    0    0    0 -0.00000000000E+00 -0.00000000000E+00 -0.45593999997E+02  0.45594000000E+02  0.51100000000E-03 0. -1.
    9900012    2    1    2    0    0 -0.19971006631E+02 -0.17294367157E+01 -0.35374201362E+02  0.50528853683E+02  0.29999981256E+02 0.  0.
        -12    1    1    2    0    0  0.19971006631E+02  0.17294367157E+01  0.35374201362E+02  0.40659146317E+02  0.00000000000E+00 0.  1.
         11    1    3    3    0    0  0.73219209399E+00 -0.19099798653E+01  0.74638221894E+00  0.21774331278E+01  0.51100000000E-03 0. -1.
        -11    1    3    3    0    0 -0.38353523771E+01 -0.64187736112E+01  0.50233100978E+00  0.74941923669E+01  0.51100000000E-03 0.  1.
         12    1    3    3    0    0 -0.16867846348E+02  0.65993167608E+01 -0.36622914591E+02  0.40857228188E+02  0.00000000000E+00 0. -1.
</event>
<event>
 7    1  0.2903212E-011  0.5052886E+02  0.7816164E-02  0.1300439E+00
        -11   -1    0    0    0    0  0.00000000000E+00  0.00000000000E+00  0.45593999997E+02  0.45594000000E+02  0.51100000000E-03 0. -1.
         11   -1    0    0    0    0 -0.00000000000E+00 -0.00000000000E+00 -0.45593999997E+02  0.45594000000E+02  0.51100000000E-03 0.  1.
    9900012    2    1    2    0    0 -0.57515877988E+01 -0.39262474147E+02  0.88624629936E+01  0.50528857256E+02  0.29999992115E+02 0.  0.
        -12    1    1    2    0    0  0.57515877988E+01  0.39262474147E+02 -0.88624629936E+01  0.40659142744E+02  0.00000000000E+00 0.  1.
         11    1    3    3    0    0 -0.14495015315E+01 -0.64735086995E+01 -0.41851712371E+01  0.78436616524E+01  0.51100000000E-03 0. -1.
        -11    1    3    3    0    0 -0.90910900279E+01 -0.12949876360E+02 -0.37406138978E+01  0.16258518021E+02  0.51100000000E-03 0.  1.
         12    1    3    3    0    0  0.47890037605E+01 -0.19839089088E+02  0.16788248128E+02  0.26426677583E+02  0.00000000000E+00 0. -1.
</event>
<event>
 7    1  0.2903212E-011  0.5052887E+02  0.7816164E-02  0.1300439E+00
        -11   -1    0    0    0    0  0.00000000000E+00  0.00000000000E+00  0.45593999997E+02  0.45594000000E+02  0.51100000000E-03 0.  1.
         11   -1    0    0    0    0 -0.00000000000E+00 -0.00000000000E+00 -0.45593999997E+02  0.45594000000E+02  0.51100000000E-03 0. -1.
    9900012    2    1    2    0    0 -0.40436298215E+02 -0.10692122568E+01  0.41142692388E+01  0.50528872617E+02  0.30000038807E+02 0.  0.
        -12    1    1    2    0    0  0.40436298215E+02  0.10692122568E+01 -0.41142692388E+01  0.40659127383E+02  0.00000000000E+00 0.  1.
         11    1    3    3    0    0 -0.11297024149E+02 -0.63212011536E+01 -0.71052036776E+01  0.14766998957E+02  0.51100000000E-03 0. -1.
        -11    1    3    3    0    0 -0.61445195773E+01  0.13460166474E+01 -0.44127829687E+01  0.76837188549E+01  0.51100000000E-03 0.  1.
        -12    1    3    3    0    0 -0.22994754488E+02  0.39059722495E+01  0.15632255885E+02  0.28078154805E+02  0.00000000000E+00 0.  1.
</event>
<event>
 7    1  0.2903212E-011  0.5052886E+02  0.7816164E-02  0.1300439E+00
        -11   -1    0    0    0    0  0.00000000000E+00  0.00000000000E+00  0.45593999997E+02  0.45594000000E+02  0.51100000000E-03 0.  1.
         11   -1    0    0    0    0 -0.00000000000E+00 -0.00000000000E+00 -0.45593999997E+02  0.45594000000E+02  0.51100000000E-03 0. -1.
    9900012    2    1    2    0    0  0.39183659599E+02  0.94191349901E+01  0.53931629061E+01  0.50528862163E+02  0.30000007031E+02 0.  0.
        -12    1    1    2    0    0 -0.39183659599E+02 -0.94191349901E+01 -0.53931629061E+01  0.40659137837E+02  0.00000000000E+00 0.  1.
         11    1    3    3    0    0  0.15044357910E+02 -0.20478529384E+01 -0.76597365136E+01  0.17005821659E+02  0.51100000000E-03 0. -1.
        -11    1    3    3    0    0  0.15307194859E+02 -0.78081412995E-01  0.10984139776E+02  0.18840584864E+02  0.51100000000E-03 0.  1.
        -12    1    3    3    0    0  0.88321068301E+01  0.11545069341E+02  0.20687596442E+01  0.14682455640E+02  0.00000000000E+00 0.  1.
</event>
<event>
 7    1  0.2903212E-011  0.5052888E+02  0.7816164E-02  0.1300439E+00
        -11   -1    0    0    0    0  0.00000000000E+00  0.00000000000E+00  0.45593999997E+02  0.45594000000E+02  0.51100000000E-03 0.  1.
         11   -1    0    0    0    0 -0.00000000000E+00 -0.00000000000E+00 -0.45593999997E+02  0.45594000000E+02  0.51100000000E-03 0. -1.
    9900012    2    1    2    0    0 -0.37789791264E+02  0.13118296915E+02 -0.72805369373E+01  0.50528877336E+02  0.30000053151E+02 0.  0.
        -12    1    1    2    0    0  0.37789791264E+02 -0.13118296915E+02  0.72805369373E+01  0.40659122664E+02  0.00000000000E+00 0.  1.
         11    1    3    3    0    0 -0.25622545516E+02  0.17752953736E+02  0.46564213023E+00  0.31175295154E+02  0.51100000000E-03 0.  1.
        -11    1    3    3    0    0 -0.43717472362E+01  0.38047066124E+01 -0.60681471763E+00  0.58271940646E+01  0.51100000000E-03 0. -1.
         12    1    3    3    0    0 -0.77954985110E+01 -0.84393634328E+01 -0.71393643499E+01  0.13526388118E+02  0.00000000000E+00 0. -1.
</event>
<event>
 7    1  0.2903212E-011  0.5052896E+02  0.7816164E-02  0.1300438E+00
        -11   -1    0    0    0    0  0.00000000000E+00  0.00000000000E+00  0.45593999997E+02  0.45594000000E+02  0.51100000000E-03 0.  1.
         11   -1    0    0    0    0 -0.00000000000E+00 -0.00000000000E+00 -0.45593999997E+02  0.45594000000E+02  0.51100000000E-03 0. -1.
    9900012    2    1    2    0    0 -0.21649469333E+02  0.64590076673E+01 -0.33804420938E+02  0.50528964381E+02  0.30000317732E+02 0.  0.
        -12    1    1    2    0    0  0.21649469333E+02 -0.64590076673E+01  0.33804420938E+02  0.40659035619E+02  0.00000000000E+00 0.  1.
         11    1    3    3    0    0 -0.15570449682E+02 -0.27049347752E+00 -0.28618371516E+02  0.32581026051E+02  0.51100000000E-03 0. -1.
        -11    1    3    3    0    0 -0.80618913735E+01  0.45315197107E+01 -0.91440001944E+01  0.13005441293E+02  0.51100000000E-03 0.  1.
        -12    1    3    3    0    0  0.19828717223E+01  0.21979814341E+01  0.39579507723E+01  0.49424970377E+01  0.00000000000E+00 0.  1.
</event>
<event>
 7    1  0.2903212E-011  0.5052891E+02  0.7816164E-02  0.1300439E+00
        -11   -1    0    0    0    0  0.00000000000E+00  0.00000000000E+00  0.45593999997E+02  0.45594000000E+02  0.51100000000E-03 0. -1.
         11   -1    0    0    0    0 -0.00000000000E+00 -0.00000000000E+00 -0.45593999997E+02  0.45594000000E+02  0.51100000000E-03 0.  1.
    9900012    2    1    2    0    0  0.14004806209E+02 -0.33229072096E+02  0.18784463044E+02  0.50528906538E+02  0.30000141912E+02 0.  0.
        -12    1    1    2    0    0 -0.14004806209E+02  0.33229072096E+02 -0.18784463044E+02  0.40659093462E+02  0.00000000000E+00 0.  1.
         11    1    3    3    0    0  0.42336097935E+01 -0.16604039450E+02  0.77191552075E+01  0.18793694031E+02  0.51100000000E-03 0. -1.
        -11    1    3    3    0    0  0.51884538432E+00 -0.19844615862E+02  0.61999689369E+01  0.20797057348E+02  0.51100000000E-03 0.  1.
        -12    1    3    3    0    0  0.92523510307E+01  0.32195832162E+01  0.48653388997E+01  0.10938155159E+02  0.00000000000E+00 0.  1.
</event>
<event>
 7    1  0.2903212E-011  0.5052887E+02  0.7816164E-02  0.1300439E+00
        -11   -1    0    0    0    0  0.00000000000E+00  0.00000000000E+00  0.45593999997E+02  0.45594000000E+02  0.51100000000E-03 0.  1.
         11   -1    0    0    0    0 -0.00000000000E+00 -0.00000000000E+00 -0.45593999997E+02  0.45594000000E+02  0.51100000000E-03 0. -1.
    9900012    2    1    2    0    0 -0.18521924625E+02  0.35674805246E+02 -0.61164807080E+01  0.50528871168E+02  0.30000034402E+02 0.  0.
        -12    1    1    2    0    0  0.18521924625E+02 -0.35674805246E+02  0.61164807080E+01  0.40659128832E+02  0.00000000000E+00 0.  1.
         11    1    3    3    0    0 -0.48538828853E+01  0.35628945649E+01 -0.60175070428E-01  0.60214631150E+01  0.51100000000E-03 0. -1.
        -11    1    3    3    0    0  0.62003240991E+00  0.26006875509E+01  0.82956141782E+01  0.87158035075E+01  0.51100000000E-03 0.  1.
         12    1    3    3    0    0 -0.14288074150E+02  0.29511223130E+02 -0.14351919816E+02  0.35791604545E+02  0.00000000000E+00 0. -1.
</event>
<event>
 7    1  0.2903212E-011  0.5052885E+02  0.7816164E-02  0.1300439E+00
        -11   -1    0    0    0    0  0.00000000000E+00  0.00000000000E+00  0.45593999997E+02  0.45594000000E+02  0.51100000000E-03 0.  1.
         11   -1    0    0    0    0 -0.00000000000E+00 -0.00000000000E+00 -0.45593999997E+02  0.45594000000E+02  0.51100000000E-03 0. -1.
    9900012    2    1    2    0    0  0.17304166202E+02  0.60152407155E+01 -0.36298054904E+02  0.50528854920E+02  0.29999985014E+02 0.  0.
        -12    1    1    2    0    0 -0.17304166202E+02 -0.60152407155E+01  0.36298054904E+02  0.40659145080E+02  0.00000000000E+00 0.  1.
         11    1    3    3    0    0 -0.42432757620E+01  0.27802005083E+01  0.27032606021E+01  0.57482625377E+01  0.51100000000E-03 0.  1.
        -11    1    3    3    0    0  0.46133602651E+01  0.16926313510E+01 -0.10483202494E+02  0.11577807591E+02  0.51100000000E-03 0. -1.
        -12    1    3    3    0    0  0.16934081699E+02  0.15424088562E+01 -0.28518113013E+02  0.33202784791E+02  0.00000000000E+00 0.  1.
</event>
<event>
 7    1  0.2903212E-011  0.5052886E+02  0.7816164E-02  0.1300439E+00
        -11   -1    0    0    0    0  0.00000000000E+00  0.00000000000E+00  0.45593999997E+02  0.45594000000E+02  0.51100000000E-03 0.  1.
         11   -1    0    0    0    0 -0.00000000000E+00 -0.00000000000E+00 -0.45593999997E+02  0.45594000000E+02  0.51100000000E-03 0. -1.
    9900012    2    1    2    0    0 -0.21658087608E+02  0.17740564682E+02 -0.29484994008E+02  0.50528864916E+02  0.30000015400E+02 0.  0.
        -12    1    1    2    0    0  0.21658087608E+02 -0.17740564682E+02  0.29484994008E+02  0.40659135084E+02  0.00000000000E+00 0.  1.
         11    1    3    3    0    0 -0.20651065073E+01  0.15848486617E+01 -0.22584660758E+01  0.34463138922E+01  0.51100000000E-03 0. -1.
        -11    1    3    3    0    0 -0.26221040731E+02  0.14143098992E+02 -0.15805582443E+02  0.33725163643E+02  0.51100000000E-03 0.  1.
         12    1    3    3    0    0  0.66280596306E+01  0.20126170289E+01 -0.11420945490E+02  0.13357387381E+02  0.00000000000E+00 0. -1.
</event>
<event>
 7    1  0.2903212E-011  0.5052884E+02  0.7816164E-02  0.1300439E+00
        -11   -1    0    0    0    0  0.00000000000E+00  0.00000000000E+00  0.45593999997E+02  0.45594000000E+02  0.51100000000E-03 0.  1.
         11   -1    0    0    0    0 -0.00000000000E+00 -0.00000000000E+00 -0.45593999997E+02  0.45594000000E+02  0.51100000000E-03 0. -1.
    9900012    2    1    2    0    0 -0.19096643588E+02 -0.75765298687E+01 -0.35086768078E+02  0.50528844877E+02  0.29999954488E+02 0.  0.
        -12    1    1    2    0    0  0.19096643588E+02  0.75765298687E+01  0.35086768078E+02  0.40659155123E+02  0.00000000000E+00 0.  1.
         11    1    3    3    0    0  0.66538001661E+00  0.31580296685E+01 -0.54528724476E+01  0.63363791036E+01  0.51100000000E-03 0. -1.
        -11    1    3    3    0    0 -0.65311363589E+01  0.76417278577E+01 -0.76482649757E+01  0.12631219426E+02  0.51100000000E-03 0.  1.
         12    1    3    3    0    0 -0.13230887246E+02 -0.18376287395E+02 -0.21985630654E+02  0.31561246347E+02  0.00000000000E+00 0. -1.
</event>
<event>
 7    1  0.2903212E-011  0.5052887E+02  0.7816164E-02  0.1300439E+00
        -11   -1    0    0    0    0  0.00000000000E+00  0.00000000000E+00  0.45593999997E+02  0.45594000000E+02  0.51100000000E-03 0. -1.
         11   -1    0    0    0    0 -0.00000000000E+00 -0.00000000000E+00 -0.45593999997E+02  0.45594000000E+02  0.51100000000E-03 0.  1.
    9900012    2    1    2    0    0 -0.25023387246E+00  0.36508534544E+02  0.17894936509E+02  0.50528874774E+02  0.30000045362E+02 0.  0.
        -12    1    1    2    0    0  0.25023387246E+00 -0.36508534544E+02 -0.17894936509E+02  0.40659125226E+02  0.00000000000E+00 0.  1.
         11    1    3    3    0    0  0.31550402792E-01  0.11469208622E+02  0.36841535476E+01  0.12046440531E+02  0.51100000000E-03 0. -1.
        -11    1    3    3    0    0  0.12141685786E+02  0.15138124137E+02  0.47002817667E+01  0.19966872190E+02  0.51100000000E-03 0.  1.
         12    1    3    3    0    0 -0.12423470062E+02  0.99012017852E+01  0.95105011942E+01  0.18515562053E+02  0.00000000000E+00 0. -1.
</event>
<event>
 7    1  0.2903212E-011  0.5052886E+02  0.7816164E-02  0.1300439E+00
        -11   -1    0    0    0    0  0.00000000000E+00  0.00000000000E+00  0.45593999997E+02  0.45594000000E+02  0.51100000000E-03 0.  1.
         11   -1    0    0    0    0 -0.00000000000E+00 -0.00000000000E+00 -0.45593999997E+02  0.45594000000E+02  0.51100000000E-03 0. -1.
    9900012    2    1    2    0    0 -0.14324952271E+01  0.15744147697E+01 -0.40603383693E+02  0.50528860908E+02  0.30000003214E+02 0.  0.
        -12    1    1    2    0    0  0.14324952271E+01 -0.15744147697E+01  0.40603383693E+02  0.40659139092E+02  0.00000000000E+00 0.  1.
         11    1    3    3    0    0  0.38183896497E+01 -0.58563020135E+01 -0.91866485195E+01  0.11544300935E+02  0.51100000000E-03 0.  1.
        -11    1    3    3    0    0  0.37307749350E+01 -0.14938450010E+01 -0.23950856306E+02  0.24285670107E+02  0.51100000000E-03 0. -1.
        -12    1    3    3    0    0 -0.89816598119E+01  0.89245617842E+01 -0.74658788669E+01  0.14698889865E+02  0.00000000000E+00 0.  1.
</event>
<event>
 7    1  0.2903212E-011  0.5052887E+02  0.7816164E-02  0.1300439E+00
        -11   -1    0    0    0    0  0.00000000000E+00  0.00000000000E+00  0.45593999997E+02  0.45594000000E+02  0.51100000000E-03 0. -1.
         11   -1    0    0    0    0 -0.00000000000E+00 -0.00000000000E+00 -0.45593999997E+02  0.45594000000E+02  0.51100000000E-03 0.  1.
    9900012    2    1    2    0    0 -0.46526164244E+01  0.39281256298E+02 -0.94074819171E+01  0.50528872465E+02  0.30000038343E+02 0.  0.
        -12    1    1    2    0    0  0.46526164244E+01 -0.39281256298E+02  0.94074819171E+01  0.40659127535E+02  0.00000000000E+00 0.  1.
         11    1    3    3    0    0 -0.25540108261E+01  0.35798254364E+02 -0.64353382790E+01  0.36461645134E+02  0.51100000000E-03 0. -1.
        -11    1    3    3    0    0  0.33417853797E+01  0.91854637180E+00 -0.63022669557E+01  0.71923449586E+01  0.51100000000E-03 0.  1.
        -12    1    3    3    0    0 -0.54403909780E+01  0.25644555617E+01  0.33301233176E+01  0.68748823722E+01  0.00000000000E+00 0.  1.
</event>
<event>
 7    1  0.2903212E-011  0.5052887E+02  0.7816164E-02  0.1300439E+00
        -11   -1    0    0    0    0  0.00000000000E+00  0.00000000000E+00  0.45593999997E+02  0.45594000000E+02  0.51100000000E-03 0. -1.
         11   -1    0    0    0    0 -0.00000000000E+00 -0.00000000000E+00 -0.45593999997E+02  0.45594000000E+02  0.51100000000E-03 0.  1.
    9900012    2    1    2    0    0  0.75310619633E+01 -0.32784510564E+02  0.22839090137E+02  0.50528867379E+02  0.30000022884E+02 0.  0.
        -12    1    1    2    0    0 -0.75310619633E+01  0.32784510564E+02 -0.22839090137E+02  0.40659132621E+02  0.00000000000E+00 0.  1.
         11    1    3    3    0    0  0.28636919091E+01 -0.18809818711E+02  0.19171094418E+01  0.19122900411E+02  0.51100000000E-03 0. -1.
        -11    1    3    3    0    0  0.33332178316E+01 -0.28536941040E+01 -0.27773912997E+01  0.51930543850E+01  0.51100000000E-03 0.  1.
         12    1    3    3    0    0  0.13341522226E+01 -0.11120997750E+02  0.23699371995E+02  0.26212912582E+02  0.00000000000E+00 0. -1.
</event>
<event>
 7    1  0.2903212E-011  0.5052886E+02  0.7816164E-02  0.1300439E+00
        -11   -1    0    0    0    0  0.00000000000E+00  0.00000000000E+00  0.45593999997E+02  0.45594000000E+02  0.51100000000E-03 0. -1.
         11   -1    0    0    0    0 -0.00000000000E+00 -0.00000000000E+00 -0.45593999997E+02  0.45594000000E+02  0.51100000000E-03 0.  1.
    9900012    2    1    2    0    0  0.27280152424E+02  0.13198772082E+02  0.27106299782E+02  0.50528858487E+02  0.29999995856E+02 0.  0.
        -12    1    1    2    0    0 -0.27280152424E+02 -0.13198772082E+02 -0.27106299782E+02  0.40659141513E+02  0.00000000000E+00 0.  1.
         11    1    3    3    0    0  0.54840919942E+01  0.11670253478E+02  0.15921682451E+02  0.20488290646E+02  0.51100000000E-03 0. -1.
        -11    1    3    3    0    0  0.14966667759E+02  0.92277570925E+01  0.73648224143E+01  0.19062876337E+02  0.51100000000E-03 0.  1.
         12    1    3    3    0    0  0.68293926706E+01 -0.76992384889E+01  0.38197949159E+01  0.10977691504E+02  0.00000000000E+00 0. -1.
</event>
<event>
 7    1  0.2903212E-011  0.5052886E+02  0.7816164E-02  0.1300439E+00
        -11   -1    0    0    0    0  0.00000000000E+00  0.00000000000E+00  0.45593999997E+02  0.45594000000E+02  0.51100000000E-03 0.  1.
         11   -1    0    0    0    0 -0.00000000000E+00 -0.00000000000E+00 -0.45593999997E+02  0.45594000000E+02  0.51100000000E-03 0. -1.
    9900012    2    1    2    0    0 -0.33474519855E+02  0.44469367799E+01 -0.22646129987E+02  0.50528856752E+02  0.29999990584E+02 0.  0.
        -12    1    1    2    0    0  0.33474519855E+02 -0.44469367799E+01  0.22646129987E+02  0.40659143248E+02  0.00000000000E+00 0.  1.
         11    1    3    3    0    0 -0.17847804756E+02 -0.30433261551E+01 -0.39056961644E+01  0.18521890602E+02  0.51100000000E-03 0. -1.
        -11    1    3    3    0    0 -0.98700724010E+01 -0.28786954582E+01 -0.55529529382E+00  0.10296289131E+02  0.51100000000E-03 0.  1.
         12    1    3    3    0    0 -0.57566426985E+01  0.10368958393E+02 -0.18185138529E+02  0.21710677019E+02  0.00000000000E+00 0. -1.
</event>
<event>
 7    1  0.2903212E-011  0.5052886E+02  0.7816164E-02  0.1300439E+00
        -11   -1    0    0    0    0  0.00000000000E+00  0.00000000000E+00  0.45593999997E+02  0.45594000000E+02  0.51100000000E-03 0. -1.
         11   -1    0    0    0    0 -0.00000000000E+00 -0.00000000000E+00 -0.45593999997E+02  0.45594000000E+02  0.51100000000E-03 0.  1.
    9900012    2    1    2    0    0 -0.20569337968E+02 -0.33245837916E+02 -0.11170589949E+02  0.50528862245E+02  0.30000007279E+02 0.  0.
        -12    1    1    2    0    0  0.20569337968E+02  0.33245837916E+02  0.11170589949E+02  0.40659137755E+02  0.00000000000E+00 0.  1.
         11    1    3    3    0    0 -0.95653558348E+01 -0.67515877131E+01 -0.38435843372E+01  0.12322869378E+02  0.51100000000E-03 0. -1.
        -11    1    3    3    0    0 -0.95834769168E+01 -0.20144063404E+01  0.47364865205E+01  0.10878196888E+02  0.51100000000E-03 0.  1.
         12    1    3    3    0    0 -0.14205052163E+01 -0.24479843863E+02 -0.12063492132E+02  0.27327795978E+02  0.00000000000E+00 0. -1.
</event>
<event>
 7    1  0.2903212E-011  0.5052887E+02  0.7816164E-02  0.1300439E+00
        -11   -1    0    0    0    0  0.00000000000E+00  0.00000000000E+00  0.45593999997E+02  0.45594000000E+02  0.51100000000E-03 0. -1.
         11   -1    0    0    0    0 -0.00000000000E+00 -0.00000000000E+00 -0.45593999997E+02  0.45594000000E+02  0.51100000000E-03 0.  1.
    9900012    2    1    2    0    0  0.27260250514E+01 -0.24242014642E+01  0.40495144611E+02  0.50528871844E+02  0.30000036457E+02 0.  0.
        -12    1    1    2    0    0 -0.27260250514E+01  0.24242014642E+01 -0.40495144611E+02  0.40659128156E+02  0.00000000000E+00 0.  1.
         11    1    3    3    0    0 -0.70656445844E+01  0.42499526917E+00  0.81209992426E+01  0.10772863284E+02  0.51100000000E-03 0.  1.
        -11    1    3    3    0    0 -0.48002347670E+01 -0.61453082761E+01  0.81081823263E+01  0.11249430587E+02  0.51100000000E-03 0. -1.
         12    1    3    3    0    0  0.14591904403E+02  0.32961115427E+01  0.24265963042E+02  0.28506577974E+02  0.00000000000E+00 0. -1.
</event>
<event>
 7    1  0.2903212E-011  0.5052887E+02  0.7816164E-02  0.1300439E+00
        -11   -1    0    0    0    0  0.00000000000E+00  0.00000000000E+00  0.45593999997E+02  0.45594000000E+02  0.51100000000E-03 0.  1.
         11   -1    0    0    0    0 -0.00000000000E+00 -0.00000000000E+00 -0.45593999997E+02  0.45594000000E+02  0.51100000000E-03 0. -1.
    9900012    2    1    2    0    0  0.31857534063E+02 -0.18570306599E+02 -0.17129108634E+02  0.50528866631E+02  0.30000020610E+02 0.  0.
        -12    1    1    2    0    0 -0.31857534063E+02  0.18570306599E+02  0.17129108634E+02  0.40659133369E+02  0.00000000000E+00 0.  1.
         11    1    3    3    0    0  0.12654552088E+02 -0.13984851013E+02  0.12739496471E+01  0.18903351406E+02  0.51100000000E-03 0. -1.
        -11    1    3    3    0    0  0.22135591589E+00 -0.41801203449E+01  0.11807298377E+01  0.43493134803E+01  0.51100000000E-03 0.  1.
         12    1    3    3    0    0  0.18981626060E+02 -0.40533524053E+00 -0.19583788119E+02  0.27276201745E+02  0.00000000000E+00 0. -1.
</event>
<event>
 7    1  0.2903212E-011  0.5052886E+02  0.7816164E-02  0.1300439E+00
        -11   -1    0    0    0    0  0.00000000000E+00  0.00000000000E+00  0.45593999997E+02  0.45594000000E+02  0.51100000000E-03 0.  1.
         11   -1    0    0    0    0 -0.00000000000E+00 -0.00000000000E+00 -0.45593999997E+02  0.45594000000E+02  0.51100000000E-03 0. -1.
    9900012    2    1    2    0    0  0.27545449811E+02 -0.62059618299E+01 -0.29255770554E+02  0.50528857385E+02  0.29999992507E+02 0.  0.
        -12    1    1    2    0    0 -0.27545449811E+02  0.62059618299E+01  0.29255770554E+02  0.40659142615E+02  0.00000000000E+00 0.  1.
         11    1    3    3    0    0  0.27645251092E+02 -0.53711805096E+01 -0.16549736154E+02  0.32665015766E+02  0.51100000000E-03 0. -1.
        -11    1    3    3    0    0  0.12402800044E+01  0.29142428114E+01 -0.13446302925E+02  0.13814274076E+02  0.51100000000E-03 0.  1.
        -12    1    3    3    0    0 -0.13400812852E+01 -0.37490241316E+01  0.74026852466E+00  0.40495675422E+01  0.00000000000E+00 0.  1.
</event>
<event>
 7    1  0.2903212E-011  0.5052878E+02  0.7816164E-02  0.1300439E+00
        -11   -1    0    0    0    0  0.00000000000E+00  0.00000000000E+00  0.45593999997E+02  0.45594000000E+02  0.51100000000E-03 0. -1.
         11   -1    0    0    0    0 -0.00000000000E+00 -0.00000000000E+00 -0.45593999997E+02  0.45594000000E+02  0.51100000000E-03 0.  1.
    9900012    2    1    2    0    0 -0.33706452664E+02 -0.16292712964E+02  0.15861737626E+02  0.50528780043E+02  0.29999757419E+02 0.  0.
        -12    1    1    2    0    0  0.33706452664E+02  0.16292712964E+02 -0.15861737626E+02  0.40659219957E+02  0.00000000000E+00 0.  1.
         11    1    3    3    0    0 -0.28227373283E+02 -0.52212451467E+01  0.12699336537E+02  0.31389793757E+02  0.51100000000E-03 0. -1.
        -11    1    3    3    0    0 -0.26770932781E+01  0.30030942621E+01 -0.10960202740E+01  0.41697319181E+01  0.51100000000E-03 0.  1.
         12    1    3    3    0    0 -0.28019861034E+01 -0.14074562079E+02  0.42584213628E+01  0.14969254369E+02  0.00000000000E+00 0. -1.
</event>
<event>
 7    1  0.2903212E-011  0.5052886E+02  0.7816164E-02  0.1300439E+00
        -11   -1    0    0    0    0  0.00000000000E+00  0.00000000000E+00  0.45593999997E+02  0.45594000000E+02  0.51100000000E-03 0.  1.
         11   -1    0    0    0    0 -0.00000000000E+00 -0.00000000000E+00 -0.45593999997E+02  0.45594000000E+02  0.51100000000E-03 0. -1.
    9900012    2    1    2    0    0  0.29951618758E+02 -0.27335913225E+02 -0.29688252719E+01  0.50528861525E+02  0.30000005090E+02 0.  0.
        -12    1    1    2    0    0 -0.29951618758E+02  0.27335913225E+02  0.29688252719E+01  0.40659138475E+02  0.00000000000E+00 0.  1.
         11    1    3    3    0    0  0.59059453494E+01  0.21090473139E+01  0.21677539718E+01  0.66353167660E+01  0.51100000000E-03 0. -1.
        -11    1    3    3    0    0  0.21198796150E+01 -0.45031545587E+01  0.69544235163E+01  0.85519762200E+01  0.51100000000E-03 0.  1.
        -12    1    3    3    0    0  0.21925793794E+02 -0.24941805980E+02 -0.12091002760E+02  0.35341568539E+02  0.00000000000E+00 0.  1.
</event>
<event>
 7    1  0.2903212E-011  0.5052887E+02  0.7816164E-02  0.1300439E+00
        -11   -1    0    0    0    0  0.00000000000E+00  0.00000000000E+00  0.45593999997E+02  0.45594000000E+02  0.51100000000E-03 0.  1.
         11   -1    0    0    0    0 -0.00000000000E+00 -0.00000000000E+00 -0.45593999997E+02  0.45594000000E+02  0.51100000000E-03 0. -1.
    9900012    2    1    2    0    0  0.24324383260E+02  0.23902665891E+02 -0.22139368522E+02  0.50528871920E+02  0.30000036688E+02 0.  0.
        -12    1    1    2    0    0 -0.24324383260E+02 -0.23902665891E+02  0.22139368522E+02  0.40659128080E+02  0.00000000000E+00 0.  1.
         11    1    3    3    0    0  0.25852918110E+01  0.46376935163E+01  0.22736186217E+01  0.57759221599E+01  0.51100000000E-03 0. -1.
        -11    1    3    3    0    0 -0.25144245134E+01 -0.13630241811E+01  0.19117956018E+01  0.34402221202E+01  0.51100000000E-03 0.  1.
         12    1    3    3    0    0  0.24253515962E+02  0.20627996556E+02 -0.26324782745E+02  0.41312727640E+02  0.00000000000E+00 0. -1.
</event>
<event>
 7    1  0.2903212E-011  0.5052885E+02  0.7816164E-02  0.1300439E+00
        -11   -1    0    0    0    0  0.00000000000E+00  0.00000000000E+00  0.45593999997E+02  0.45594000000E+02  0.51100000000E-03 0. -1.
         11   -1    0    0    0    0 -0.00000000000E+00 -0.00000000000E+00 -0.45593999997E+02  0.45594000000E+02  0.51100000000E-03 0.  1.
    9900012    2    1    2    0    0  0.39006521977E+02  0.43167401572E+01  0.10631233471E+02  0.50528854319E+02  0.29999983189E+02 0.  0.
        -12    1    1    2    0    0 -0.39006521977E+02 -0.43167401572E+01 -0.10631233471E+02  0.40659145681E+02  0.00000000000E+00 0.  1.
         11    1    3    3    0    0  0.19977061247E+02  0.24421976814E+01 -0.55242031498E+01  0.20870173125E+02  0.51100000000E-03 0. -1.
        -11    1    3    3    0    0  0.12606886599E+02  0.33736327277E+01  0.95055198908E+00  0.13085050127E+02  0.51100000000E-03 0.  1.
        -12    1    3    3    0    0  0.64225741320E+01 -0.14990902519E+01  0.15204884632E+02  0.16573631067E+02  0.00000000000E+00 0.  1.
</event>
<event>
 7    1  0.2903212E-011  0.5052886E+02  0.7816164E-02  0.1300439E+00
        -11   -1    0    0    0    0  0.00000000000E+00  0.00000000000E+00  0.45593999997E+02  0.45594000000E+02  0.51100000000E-03 0.  1.
         11   -1    0    0    0    0 -0.00000000000E+00 -0.00000000000E+00 -0.45593999997E+02  0.45594000000E+02  0.51100000000E-03 0. -1.
    9900012    2    1    2    0    0 -0.52730763443E+01 -0.18068764324E+02 -0.36039980713E+02  0.50528858492E+02  0.29999995873E+02 0.  0.
        -12    1    1    2    0    0  0.52730763443E+01  0.18068764324E+02  0.36039980713E+02  0.40659141508E+02  0.00000000000E+00 0.  1.
         11    1    3    3    0    0  0.17545459415E+01 -0.54404582508E+00 -0.12660095300E+00  0.18413162095E+01  0.51100000000E-03 0. -1.
        -11    1    3    3    0    0 -0.25904983984E+01 -0.77594568429E+01  0.26981051770E+01  0.86139203767E+01  0.51100000000E-03 0.  1.
        -12    1    3    3    0    0 -0.44371238874E+01 -0.97652616557E+01 -0.38611484937E+02  0.40073621906E+02  0.00000000000E+00 0.  1.
</event>
<event>
 7    1  0.2903212E-011  0.5052886E+02  0.7816164E-02  0.1300439E+00
        -11   -1    0    0    0    0  0.00000000000E+00  0.00000000000E+00  0.45593999997E+02  0.45594000000E+02  0.51100000000E-03 0.  1.
         11   -1    0    0    0    0 -0.00000000000E+00 -0.00000000000E+00 -0.45593999997E+02  0.45594000000E+02  0.51100000000E-03 0. -1.
    9900012    2    1    2    0    0 -0.18990877029E+02  0.25683223928E+01 -0.35859665164E+02  0.50528864791E+02  0.30000015019E+02 0.  0.
        -12    1    1    2    0    0  0.18990877029E+02 -0.25683223928E+01  0.35859665164E+02  0.40659135209E+02  0.00000000000E+00 0.  1.
         11    1    3    3    0    0 -0.36211293207E+01  0.63639604333E+01 -0.49310778647E+01  0.88276893422E+01  0.51100000000E-03 0. -1.
        -11    1    3    3    0    0 -0.21286358528E+02 -0.30620081046E+01 -0.20626152194E+02  0.29798038653E+02  0.51100000000E-03 0.  1.
         12    1    3    3    0    0  0.59166108189E+01 -0.73362993593E+00 -0.10302435105E+02  0.11903136795E+02  0.00000000000E+00 0. -1.
</event>
<event>
 7    1  0.2903212E-011  0.5052896E+02  0.7816164E-02  0.1300438E+00
        -11   -1    0    0    0    0  0.00000000000E+00  0.00000000000E+00  0.45593999997E+02  0.45594000000E+02  0.51100000000E-03 0.  1.
         11   -1    0    0    0    0 -0.00000000000E+00 -0.00000000000E+00 -0.45593999997E+02  0.45594000000E+02  0.51100000000E-03 0. -1.
    9900012    2    1    2    0    0 -0.40351281100E+00  0.61075901350E+01 -0.40195671650E+02  0.50528960424E+02  0.30000305702E+02 0.  0.
        -12    1    1    2    0    0  0.40351281100E+00 -0.61075901350E+01  0.40195671650E+02  0.40659039576E+02  0.00000000000E+00 0.  1.
         11    1    3    3    0    0 -0.32761941693E+01  0.52757999686E+01 -0.25549239015E+02  0.26293176454E+02  0.51100000000E-03 0. -1.
        -11    1    3    3    0    0 -0.78131430114E+01  0.18124807149E+01 -0.91888567884E+01  0.12196941395E+02  0.51100000000E-03 0.  1.
         12    1    3    3    0    0  0.10685824370E+02 -0.98069054848E+00 -0.54575758473E+01  0.12038842575E+02  0.00000000000E+00 0. -1.
</event>
<event>
 7    1  0.2903212E-011  0.5052887E+02  0.7816164E-02  0.1300439E+00
        -11   -1    0    0    0    0  0.00000000000E+00  0.00000000000E+00  0.45593999997E+02  0.45594000000E+02  0.51100000000E-03 0.  1.
         11   -1    0    0    0    0 -0.00000000000E+00 -0.00000000000E+00 -0.45593999997E+02  0.45594000000E+02  0.51100000000E-03 0. -1.
    9900012    2    1    2    0    0 -0.91815555692E+00 -0.56205816621E+01 -0.40258301542E+02  0.50528870756E+02  0.30000033150E+02 0.  0.
        -12    1    1    2    0    0  0.91815555692E+00  0.56205816621E+01  0.40258301542E+02  0.40659129244E+02  0.00000000000E+00 0.  1.
         11    1    3    3    0    0 -0.50346315993E+01 -0.12335154769E+01  0.20401168308E+00  0.51875521010E+01  0.51100000000E-03 0.  1.
        -11    1    3    3    0    0  0.52844794005E+00  0.49310651844E+01 -0.15913360056E+01  0.52083597823E+01  0.51100000000E-03 0. -1.
         12    1    3    3    0    0  0.35880281024E+01 -0.93181313695E+01 -0.38870977219E+02  0.40132958873E+02  0.00000000000E+00 0. -1.
</event>
<event>
 7    1  0.2903212E-011  0.5052887E+02  0.7816164E-02  0.1300439E+00
        -11   -1    0    0    0    0  0.00000000000E+00  0.00000000000E+00  0.45593999997E+02  0.45594000000E+02  0.51100000000E-03 0.  1.
         11   -1    0    0    0    0 -0.00000000000E+00 -0.00000000000E+00 -0.45593999997E+02  0.45594000000E+02  0.51100000000E-03 0. -1.
    9900012    2    1    2    0    0  0.74040641277E+00  0.75912098096E+01 -0.39937328334E+02  0.50528869876E+02  0.30000030475E+02 0.  0.
        -12    1    1    2    0    0 -0.74040641277E+00 -0.75912098096E+01  0.39937328334E+02  0.40659130124E+02  0.00000000000E+00 0.  1.
         11    1    3    3    0    0 -0.46432053749E+01 -0.22990678491E+01 -0.80376702013E+01  0.95629081170E+01  0.51100000000E-03 0. -1.
        -11    1    3    3    0    0 -0.82904621020E+01  0.52442540996E+01 -0.65643247008E+01  0.11803572424E+02  0.51100000000E-03 0.  1.
         12    1    3    3    0    0  0.13674073890E+02  0.46460235590E+01 -0.25335333431E+02  0.29162389335E+02  0.00000000000E+00 0. -1.
</event>
<event>
 7    1  0.2903212E-011  0.5052887E+02  0.7816164E-02  0.1300439E+00
        -11   -1    0    0    0    0  0.00000000000E+00  0.00000000000E+00  0.45593999997E+02  0.45594000000E+02  0.51100000000E-03 0.  1.
         11   -1    0    0    0    0 -0.00000000000E+00 -0.00000000000E+00 -0.45593999997E+02  0.45594000000E+02  0.51100000000E-03 0. -1.
    9900012    2    1    2    0    0  0.25116239882E+02 -0.18312984167E+02 -0.26210186551E+02  0.50528870964E+02  0.30000033782E+02 0.  0.
        -12    1    1    2    0    0 -0.25116239882E+02  0.18312984167E+02  0.26210186551E+02  0.40659129036E+02  0.00000000000E+00 0.  1.
         11    1    3    3    0    0  0.20937022270E+00 -0.19767788831E+01 -0.87852539416E+01  0.90073402136E+01  0.51100000000E-03 0. -1.
        -11    1    3    3    0    0 -0.41642302899E+01 -0.10478716843E+01  0.94923567003E-01  0.42950971722E+01  0.51100000000E-03 0.  1.
         12    1    3    3    0    0  0.29071099949E+02 -0.15288333600E+02 -0.17519856177E+02  0.37226433578E+02  0.00000000000E+00 0. -1.
</event>
<event>
 7    1  0.2903212E-011  0.5052886E+02  0.7816164E-02  0.1300439E+00
        -11   -1    0    0    0    0  0.00000000000E+00  0.00000000000E+00  0.45593999997E+02  0.45594000000E+02  0.51100000000E-03 0.  1.
         11   -1    0    0    0    0 -0.00000000000E+00 -0.00000000000E+00 -0.45593999997E+02  0.45594000000E+02  0.51100000000E-03 0. -1.
    9900012    2    1    2    0    0  0.12192022726E+02  0.24588961398E+02 -0.29998381783E+02  0.50528863875E+02  0.30000012236E+02 0.  0.
        -12    1    1    2    0    0 -0.12192022726E+02 -0.24588961398E+02  0.29998381783E+02  0.40659136125E+02  0.00000000000E+00 0.  1.
         11    1    3    3    0    0 -0.24368059233E+01  0.11314471599E+02 -0.15801874639E+02  0.19587101190E+02  0.51100000000E-03 0. -1.
        -11    1    3    3    0    0 -0.45327905289E+01  0.86082843969E+00 -0.17207452415E+01  0.49242441073E+01  0.51100000000E-03 0.  1.
        -12    1    3    3    0    0  0.19161619179E+02  0.12413661359E+02 -0.12475761903E+02  0.26017518578E+02  0.00000000000E+00 0.  1.
</event>
<event>
 7    1  0.2903212E-011  0.5052887E+02  0.7816164E-02  0.1300439E+00
        -11   -1    0    0    0    0  0.00000000000E+00  0.00000000000E+00  0.45593999997E+02  0.45594000000E+02  0.51100000000E-03 0. -1.
         11   -1    0    0    0    0 -0.00000000000E+00 -0.00000000000E+00 -0.45593999997E+02  0.45594000000E+02  0.51100000000E-03 0.  1.
    9900012    2    1    2    0    0  0.17449928777E+02  0.62393702129E+01  0.36190262786E+02  0.50528869716E+02  0.30000029988E+02 0.  0.
        -12    1    1    2    0    0 -0.17449928777E+02 -0.62393702129E+01 -0.36190262786E+02  0.40659130284E+02  0.00000000000E+00 0.  1.
         11    1    3    3    0    0  0.70469209589E+01 -0.39374920310E+01  0.27430068225E+02  0.28593208662E+02  0.51100000000E-03 0. -1.
        -11    1    3    3    0    0 -0.14636239215E+01 -0.18454711920E+01  0.35456674030E+01  0.42567260304E+01  0.51100000000E-03 0.  1.
         12    1    3    3    0    0  0.11866631740E+02  0.12022333436E+02  0.52145271579E+01  0.17678935024E+02  0.00000000000E+00 0. -1.
</event>
<event>
 7    1  0.2903212E-011  0.5052886E+02  0.7816164E-02  0.1300439E+00
        -11   -1    0    0    0    0  0.00000000000E+00  0.00000000000E+00  0.45593999997E+02  0.45594000000E+02  0.51100000000E-03 0. -1.
         11   -1    0    0    0    0 -0.00000000000E+00 -0.00000000000E+00 -0.45593999997E+02  0.45594000000E+02  0.51100000000E-03 0.  1.
    9900012    2    1    2    0    0 -0.34768352896E+02  0.17622853405E+02 -0.11565568490E+02  0.50528859580E+02  0.29999999178E+02 0.  0.
        -12    1    1    2    0    0  0.34768352896E+02 -0.17622853405E+02  0.11565568490E+02  0.40659140420E+02  0.00000000000E+00 0.  1.
         11    1    3    3    0    0 -0.13450141435E+02  0.14085701302E+02  0.74321051202E+00  0.19490142327E+02  0.51100000000E-03 0. -1.
        -11    1    3    3    0    0 -0.12294429946E+02  0.11161466183E+02 -0.60764277114E+01  0.17682033510E+02  0.51100000000E-03 0.  1.
         12    1    3    3    0    0 -0.90237815139E+01 -0.76243140793E+01 -0.62323512907E+01  0.13356683743E+02  0.00000000000E+00 0. -1.
</event>
<event>
 7    1  0.2903212E-011  0.5052886E+02  0.7816164E-02  0.1300439E+00
        -11   -1    0    0    0    0  0.00000000000E+00  0.00000000000E+00  0.45593999997E+02  0.45594000000E+02  0.51100000000E-03 0.  1.
         11   -1    0    0    0    0 -0.00000000000E+00 -0.00000000000E+00 -0.45593999997E+02  0.45594000000E+02  0.51100000000E-03 0. -1.
    9900012    2    1    2    0    0  0.31283991389E+00  0.22302670009E+01 -0.40596715686E+02  0.50528864689E+02  0.30000014710E+02 0.  0.
        -12    1    1    2    0    0 -0.31283991389E+00 -0.22302670009E+01  0.40596715686E+02  0.40659135311E+02  0.00000000000E+00 0.  1.
         11    1    3    3    0    0 -0.90463108344E+00  0.11150956986E+02 -0.12838457087E+02  0.17029039308E+02  0.51100000000E-03 0. -1.
        -11    1    3    3    0    0  0.13238094359E+01  0.70233555868E+00 -0.22468128543E+02  0.22518049364E+02  0.51100000000E-03 0.  1.
        -12    1    3    3    0    0 -0.10633843853E+00 -0.96230255442E+01 -0.52901300556E+01  0.10981776017E+02  0.00000000000E+00 0.  1.
</event>
<event>
 7    1  0.2903212E-011  0.5052885E+02  0.7816164E-02  0.1300439E+00
        -11   -1    0    0    0    0  0.00000000000E+00  0.00000000000E+00  0.45593999997E+02  0.45594000000E+02  0.51100000000E-03 0.  1.
         11   -1    0    0    0    0 -0.00000000000E+00 -0.00000000000E+00 -0.45593999997E+02  0.45594000000E+02  0.51100000000E-03 0. -1.
    9900012    2    1    2    0    0  0.42843124073E+01  0.33287407290E+02 -0.22951239508E+02  0.50528853282E+02  0.29999980035E+02 0.  0.
        -12    1    1    2    0    0 -0.42843124073E+01 -0.33287407290E+02  0.22951239508E+02  0.40659146718E+02  0.00000000000E+00 0.  1.
         11    1    3    3    0    0  0.28930137900E+01 -0.59479914295E+00 -0.61697381641E+00  0.30172788669E+01  0.51100000000E-03 0. -1.
        -11    1    3    3    0    0  0.81781975297E+01  0.34118482118E+01  0.43642903328E+00  0.88720963485E+01  0.51100000000E-03 0.  1.
         12    1    3    3    0    0 -0.67868989123E+01  0.30470358221E+02 -0.22770694725E+02  0.38639478066E+02  0.00000000000E+00 0. -1.
</event>
<event>
 7    1  0.2903212E-011  0.5052886E+02  0.7816164E-02  0.1300439E+00
        -11   -1    0    0    0    0  0.00000000000E+00  0.00000000000E+00  0.45593999997E+02  0.45594000000E+02  0.51100000000E-03 0.  1.
         11   -1    0    0    0    0 -0.00000000000E+00 -0.00000000000E+00 -0.45593999997E+02  0.45594000000E+02  0.51100000000E-03 0. -1.
    9900012    2    1    2    0    0 -0.33651991287E+01 -0.40113480131E+02 -0.57227323200E+01  0.50528861807E+02  0.30000005948E+02 0.  0.
        -12    1    1    2    0    0  0.33651991287E+01  0.40113480131E+02  0.57227323200E+01  0.40659138193E+02  0.00000000000E+00 0.  1.
         11    1    3    3    0    0 -0.71546640204E+01 -0.16912288637E+02 -0.16315867288E+02  0.24564654482E+02  0.51100000000E-03 0.  1.
        -11    1    3    3    0    0  0.68138322266E+00 -0.12968838623E+02  0.63927868843E+01  0.14474901821E+02  0.51100000000E-03 0. -1.
        -12    1    3    3    0    0  0.31080816690E+01 -0.10232352871E+02  0.42003480834E+01  0.11489305504E+02  0.00000000000E+00 0.  1.
</event>
<event>
 7    1  0.2903212E-011  0.5052886E+02  0.7816164E-02  0.1300439E+00
        -11   -1    0    0    0    0  0.00000000000E+00  0.00000000000E+00  0.45593999997E+02  0.45594000000E+02  0.51100000000E-03 0.  1.
         11   -1    0    0    0    0 -0.00000000000E+00 -0.00000000000E+00 -0.45593999997E+02  0.45594000000E+02  0.51100000000E-03 0. -1.
    9900012    2    1    2    0    0 -0.14676970230E+02 -0.21508684907E+02 -0.31227053692E+02  0.50528857562E+02  0.29999993044E+02 0.  0.
        -12    1    1    2    0    0  0.14676970230E+02  0.21508684907E+02  0.31227053692E+02  0.40659142438E+02  0.00000000000E+00 0.  1.
         11    1    3    3    0    0 -0.31095858125E+01 -0.11136871971E+02 -0.15449958847E+02  0.19297685609E+02  0.51100000000E-03 0. -1.
        -11    1    3    3    0    0 -0.24844642020E+01 -0.28542014072E+01 -0.18703960032E+02  0.19082902012E+02  0.51100000000E-03 0.  1.
        -12    1    3    3    0    0 -0.90829202154E+01 -0.75176115285E+01  0.29268651875E+01  0.12148269941E+02  0.00000000000E+00 0.  1.
</event>
<event>
 7    1  0.2903212E-011  0.5052886E+02  0.7816164E-02  0.1300439E+00
        -11   -1    0    0    0    0  0.00000000000E+00  0.00000000000E+00  0.45593999997E+02  0.45594000000E+02  0.51100000000E-03 0. -1.
         11   -1    0    0    0    0 -0.00000000000E+00 -0.00000000000E+00 -0.45593999997E+02  0.45594000000E+02  0.51100000000E-03 0.  1.
    9900012    2    1    2    0    0 -0.16062579172E+02  0.36899909326E+02  0.57927286395E+01  0.50528862490E+02  0.30000008026E+02 0.  0.
        -12    1    1    2    0    0  0.16062579172E+02 -0.36899909326E+02 -0.57927286395E+01  0.40659137510E+02  0.00000000000E+00 0.  1.
         11    1    3    3    0    0 -0.12593086121E+02  0.67519661477E+01 -0.94465710929E+00  0.14320169071E+02  0.51100000000E-03 0. -1.
        -11    1    3    3    0    0 -0.10399685520E+02  0.18516231679E+02  0.35436525101E+00  0.21239818019E+02  0.51100000000E-03 0.  1.
        -12    1    3    3    0    0  0.69301924691E+01  0.11631711500E+02  0.63830204977E+01  0.14968875400E+02  0.00000000000E+00 0.  1.
</event>
<event>
 7    1  0.2903212E-011  0.5052887E+02  0.7816164E-02  0.1300439E+00
        -11   -1    0    0    0    0  0.00000000000E+00  0.00000000000E+00  0.45593999997E+02  0.45594000000E+02  0.51100000000E-03 0.  1.
         11   -1    0    0    0    0 -0.00000000000E+00 -0.00000000000E+00 -0.45593999997E+02  0.45594000000E+02  0.51100000000E-03 0. -1.
    9900012    2    1    2    0    0  0.83718799515E+01 -0.27096758448E+02 -0.29134891639E+02  0.50528873065E+02  0.30000040168E+02 0.  0.
        -12    1    1    2    0    0 -0.83718799515E+01  0.27096758448E+02  0.29134891639E+02  0.40659126935E+02  0.00000000000E+00 0.  1.
         11    1    3    3    0    0  0.12837597527E+01 -0.15576897653E+02 -0.62406222269E+00  0.15642162047E+02  0.51100000000E-03 0. -1.
        -11    1    3    3    0    0 -0.42784150833E+01 -0.70673858835E+00 -0.49520583897E+01  0.65823398282E+01  0.51100000000E-03 0.  1.
         12    1    3    3    0    0  0.11366535282E+02 -0.10813122207E+02 -0.23558771026E+02  0.28304371190E+02  0.00000000000E+00 0. -1.
</event>
<event>
 7    1  0.2903212E-011  0.5052886E+02  0.7816164E-02  0.1300439E+00
        -11   -1    0    0    0    0  0.00000000000E+00  0.00000000000E+00  0.45593999997E+02  0.45594000000E+02  0.51100000000E-03 0.  1.
         11   -1    0    0    0    0 -0.00000000000E+00 -0.00000000000E+00 -0.45593999997E+02  0.45594000000E+02  0.51100000000E-03 0. -1.
    9900012    2    1    2    0    0 -0.43617276297E+01 -0.25228088116E+02 -0.31586143080E+02  0.50528861635E+02  0.30000005427E+02 0.  0.
        -12    1    1    2    0    0  0.43617276297E+01  0.25228088116E+02  0.31586143080E+02  0.40659138365E+02  0.00000000000E+00 0.  1.
         11    1    3    3    0    0 -0.20449546115E+01 -0.15646978152E+02 -0.17851052623E+02  0.23825823063E+02  0.51100000000E-03 0. -1.
        -11    1    3    3    0    0 -0.21987729795E+01 -0.98249000239E+01 -0.18962027882E+02  0.21469088587E+02  0.51100000000E-03 0.  1.
        -12    1    3    3    0    0 -0.11800003874E+00  0.24379005993E+00  0.52269374249E+01  0.52339499851E+01  0.00000000000E+00 0.  1.
</event>
<event>
 7    1  0.2903212E-011  0.5052886E+02  0.7816164E-02  0.1300439E+00
        -11   -1    0    0    0    0  0.00000000000E+00  0.00000000000E+00  0.45593999997E+02  0.45594000000E+02  0.51100000000E-03 0.  1.
         11   -1    0    0    0    0 -0.00000000000E+00 -0.00000000000E+00 -0.45593999997E+02  0.45594000000E+02  0.51100000000E-03 0. -1.
    9900012    2    1    2    0    0  0.22411110955E+02  0.17836718667E+02 -0.28857566287E+02  0.50528861309E+02  0.30000004436E+02 0.  0.
        -12    1    1    2    0    0 -0.22411110955E+02 -0.17836718667E+02  0.28857566287E+02  0.40659138691E+02  0.00000000000E+00 0.  1.
         11    1    3    3    0    0  0.61735284431E+01  0.15466318598E+02 -0.25876745855E+02  0.30772153657E+02  0.51100000000E-03 0. -1.
        -11    1    3    3    0    0 -0.40795255668E+00 -0.21346710804E+01 -0.10213488957E+01  0.24013329086E+01  0.51100000000E-03 0.  1.
        -12    1    3    3    0    0  0.16645535069E+02  0.45050711492E+01 -0.19594715369E+01  0.17355374744E+02  0.00000000000E+00 0.  1.
</event>
<event>
 7    1  0.2903212E-011  0.5052888E+02  0.7816164E-02  0.1300439E+00
        -11   -1    0    0    0    0  0.00000000000E+00  0.00000000000E+00  0.45593999997E+02  0.45594000000E+02  0.51100000000E-03 0. -1.
         11   -1    0    0    0    0 -0.00000000000E+00 -0.00000000000E+00 -0.45593999997E+02  0.45594000000E+02  0.51100000000E-03 0.  1.
    9900012    2    1    2    0    0 -0.86991805471E+01 -0.25891798308E+02 -0.30118152350E+02  0.50528879710E+02  0.30000060366E+02 0.  0.
        -12    1    1    2    0    0  0.86991805471E+01  0.25891798308E+02  0.30118152350E+02  0.40659120290E+02  0.00000000000E+00 0.  1.
         11    1    3    3    0    0 -0.10931248913E+01 -0.20962101020E+02 -0.11128123122E+02  0.23757940266E+02  0.51100000000E-03 0. -1.
        -11    1    3    3    0    0 -0.74835087144E+01 -0.78058412335E+01 -0.20748700621E+02  0.23397492125E+02  0.51100000000E-03 0.  1.
         12    1    3    3    0    0 -0.12254694140E+00  0.28761439454E+01  0.17586713927E+01  0.33734473191E+01  0.00000000000E+00 0. -1.
</event>
<event>
 7    1  0.2903212E-011  0.5052885E+02  0.7816164E-02  0.1300439E+00
        -11   -1    0    0    0    0  0.00000000000E+00  0.00000000000E+00  0.45593999997E+02  0.45594000000E+02  0.51100000000E-03 0.  1.
         11   -1    0    0    0    0 -0.00000000000E+00 -0.00000000000E+00 -0.45593999997E+02  0.45594000000E+02  0.51100000000E-03 0. -1.
    9900012    2    1    2    0    0  0.30516871657E+01 -0.40157602858E+02  0.55875312725E+01  0.50528851367E+02  0.29999974215E+02 0.  0.
        -12    1    1    2    0    0 -0.30516871657E+01  0.40157602858E+02 -0.55875312725E+01  0.40659148633E+02  0.00000000000E+00 0.  1.
         11    1    3    3    0    0  0.17442754026E+01 -0.15364240370E+02  0.13259252125E+01  0.15519679660E+02  0.51100000000E-03 0. -1.
        -11    1    3    3    0    0  0.89941999401E+01 -0.20028710534E+02  0.10180264474E+02  0.24200881456E+02  0.51100000000E-03 0.  1.
        -12    1    3    3    0    0 -0.76867881771E+01 -0.47646519544E+01 -0.59186584143E+01  0.10808290251E+02  0.00000000000E+00 0.  1.
</event>
<event>
 7    1  0.2903212E-011  0.5052884E+02  0.7816164E-02  0.1300439E+00
        -11   -1    0    0    0    0  0.00000000000E+00  0.00000000000E+00  0.45593999997E+02  0.45594000000E+02  0.51100000000E-03 0. -1.
         11   -1    0    0    0    0 -0.00000000000E+00 -0.00000000000E+00 -0.45593999997E+02  0.45594000000E+02  0.51100000000E-03 0.  1.
    9900012    2    1    2    0    0 -0.38960499873E+02 -0.27256133726E+01  0.11305663263E+02  0.50528836944E+02  0.29999930376E+02 0.  0.
        -12    1    1    2    0    0  0.38960499873E+02  0.27256133726E+01 -0.11305663263E+02  0.40659163056E+02  0.00000000000E+00 0.  1.
         11    1    3    3    0    0 -0.13435877406E+02  0.20482492470E+00  0.27639178233E+01  0.13718746186E+02  0.51100000000E-03 0. -1.
        -11    1    3    3    0    0 -0.23803654522E+02  0.14407352751E+01 -0.32963353524E+01  0.24073959245E+02  0.51100000000E-03 0.  1.
        -12    1    3    3    0    0 -0.17209679444E+01 -0.43711735724E+01  0.11838080792E+02  0.12736131513E+02  0.00000000000E+00 0.  1.
</event>
<event>
 7    1  0.2903212E-011  0.5052886E+02  0.7816164E-02  0.1300439E+00
        -11   -1    0    0    0    0  0.00000000000E+00  0.00000000000E+00  0.45593999997E+02  0.45594000000E+02  0.51100000000E-03 0.  1.
         11   -1    0    0    0    0 -0.00000000000E+00 -0.00000000000E+00 -0.45593999997E+02  0.45594000000E+02  0.51100000000E-03 0. -1.
    9900012    2    1    2    0    0  0.73414793752E+01 -0.16988483712E+02 -0.36203032745E+02  0.50528862304E+02  0.30000007460E+02 0.  0.
        -12    1    1    2    0    0 -0.73414793752E+01  0.16988483712E+02  0.36203032745E+02  0.40659137696E+02  0.00000000000E+00 0.  1.
         11    1    3    3    0    0 -0.72756677336E+00  0.26791112069E+01  0.15595970105E+01  0.31842319898E+01  0.51100000000E-03 0.  1.
        -11    1    3    3    0    0  0.53689048883E+01 -0.11372452141E+01 -0.22579008028E+02  0.23236395378E+02  0.51100000000E-03 0. -1.
        -12    1    3    3    0    0  0.27001412603E+01 -0.18530349705E+02 -0.15183621728E+02  0.24108234937E+02  0.00000000000E+00 0.  1.
</event>
<event>
 7    1  0.2903212E-011  0.5052886E+02  0.7816164E-02  0.1300439E+00
        -11   -1    0    0    0    0  0.00000000000E+00  0.00000000000E+00  0.45593999997E+02  0.45594000000E+02  0.51100000000E-03 0. -1.
         11   -1    0    0    0    0 -0.00000000000E+00 -0.00000000000E+00 -0.45593999997E+02  0.45594000000E+02  0.51100000000E-03 0.  1.
    9900012    2    1    2    0    0 -0.38258140661E+02  0.48161024927E+01 -0.12895188923E+02  0.50528855058E+02  0.29999985434E+02 0.  0.
        -12    1    1    2    0    0  0.38258140661E+02 -0.48161024927E+01  0.12895188923E+02  0.40659144942E+02  0.00000000000E+00 0.  1.
         11    1    3    3    0    0 -0.97938065340E+01 -0.89890052185E+01 -0.62732715367E+01  0.14699482891E+02  0.51100000000E-03 0. -1.
        -11    1    3    3    0    0  0.63284178457E+00  0.25380783006E+01 -0.36433163067E+01  0.44850957801E+01  0.51100000000E-03 0.  1.
        -12    1    3    3    0    0 -0.29097175912E+02  0.11267029411E+02 -0.29786010796E+01  0.31344276386E+02  0.00000000000E+00 0.  1.
</event>
<event>
 7    1  0.2903212E-011  0.5052886E+02  0.7816164E-02  0.1300439E+00
        -11   -1    0    0    0    0  0.00000000000E+00  0.00000000000E+00  0.45593999997E+02  0.45594000000E+02  0.51100000000E-03 0. -1.
         11   -1    0    0    0    0 -0.00000000000E+00 -0.00000000000E+00 -0.45593999997E+02  0.45594000000E+02  0.51100000000E-03 0.  1.
    9900012    2    1    2    0    0  0.31144647946E+02  0.24965540664E+02  0.77394112752E+01  0.50528858307E+02  0.29999995310E+02 0.  0.
        -12    1    1    2    0    0 -0.31144647946E+02 -0.24965540664E+02 -0.77394112752E+01  0.40659141693E+02  0.00000000000E+00 0.  1.
         11    1    3    3    0    0  0.11666373557E+02  0.12134825686E+02  0.54524023118E+01  0.17694263410E+02  0.51100000000E-03 0. -1.
        -11    1    3    3    0    0  0.28495982797E+01 -0.63555199756E+01  0.26237385864E+01  0.74429059478E+01  0.51100000000E-03 0.  1.
         12    1    3    3    0    0  0.16628676109E+02  0.19186234954E+02 -0.33672962306E+00  0.25391688949E+02  0.00000000000E+00 0. -1.
</event>
<event>
 7    1  0.2903212E-011  0.5052890E+02  0.7816164E-02  0.1300439E+00
        -11   -1    0    0    0    0  0.00000000000E+00  0.00000000000E+00  0.45593999997E+02  0.45594000000E+02  0.51100000000E-03 0.  1.
         11   -1    0    0    0    0 -0.00000000000E+00 -0.00000000000E+00 -0.45593999997E+02  0.45594000000E+02  0.51100000000E-03 0. -1.
    9900012    2    1    2    0    0  0.37262128559E+02  0.38236359844E+01 -0.15813792337E+02  0.50528899604E+02  0.30000120838E+02 0.  0.
        -12    1    1    2    0    0 -0.37262128559E+02 -0.38236359844E+01  0.15813792337E+02  0.40659100396E+02  0.00000000000E+00 0.  1.
         11    1    3    3    0    0  0.10439747215E+02  0.23748661338E+01 -0.31684650416E+00  0.10711148539E+02  0.51100000000E-03 0.  1.
        -11    1    3    3    0    0  0.24823709377E+02  0.11603800943E+01 -0.67614640841E+00  0.24860012136E+02  0.51100000000E-03 0. -1.
         12    1    3    3    0    0  0.19986719677E+01  0.28838975629E+00 -0.14820799425E+02  0.14957738929E+02  0.00000000000E+00 0. -1.
</event>
<event>
 7    1  0.2903212E-011  0.5052884E+02  0.7816164E-02  0.1300439E+00
        -11   -1    0    0    0    0  0.00000000000E+00  0.00000000000E+00  0.45593999997E+02  0.45594000000E+02  0.51100000000E-03 0.  1.
         11   -1    0    0    0    0 -0.00000000000E+00 -0.00000000000E+00 -0.45593999997E+02  0.45594000000E+02  0.51100000000E-03 0. -1.
    9900012    2    1    2    0    0  0.65518391535E+01  0.67769926016E+01 -0.39551402089E+02  0.50528835815E+02  0.29999926943E+02 0.  0.
        -12    1    1    2    0    0 -0.65518391535E+01 -0.67769926016E+01  0.39551402089E+02  0.40659164185E+02  0.00000000000E+00 0.  1.
         11    1    3    3    0    0 -0.17664183584E+01 -0.91113666114E+01 -0.17849171433E+02  0.20117906364E+02  0.51100000000E-03 0.  1.
        -11    1    3    3    0    0  0.66024476401E+01  0.22714647230E+01 -0.41232946929E+01  0.81088486367E+01  0.51100000000E-03 0. -1.
        -12    1    3    3    0    0  0.17158098718E+01  0.13616894490E+02 -0.17578935963E+02  0.22302080814E+02  0.00000000000E+00 0.  1.
</event>
<event>
 7    1  0.2903212E-011  0.5052886E+02  0.7816164E-02  0.1300439E+00
        -11   -1    0    0    0    0  0.00000000000E+00  0.00000000000E+00  0.45593999997E+02  0.45594000000E+02  0.51100000000E-03 0.  1.
         11   -1    0    0    0    0 -0.00000000000E+00 -0.00000000000E+00 -0.45593999997E+02  0.45594000000E+02  0.51100000000E-03 0. -1.
    9900012    2    1    2    0    0 -0.20489074486E+02 -0.26253895561E+02 -0.23325879181E+02  0.50528857794E+02  0.29999993750E+02 0.  0.
        -12    1    1    2    0    0  0.20489074486E+02  0.26253895561E+02  0.23325879181E+02  0.40659142206E+02  0.00000000000E+00 0.  1.
         11    1    3    3    0    0 -0.19138874662E+02 -0.12471145551E+02 -0.72969479697E+01  0.23980647294E+02  0.51100000000E-03 0. -1.
        -11    1    3    3    0    0 -0.20661126404E+01  0.28267238210E+01 -0.68303100981E-01  0.35019786661E+01  0.51100000000E-03 0.  1.
         12    1    3    3    0    0  0.71591281671E+00 -0.16609473830E+02 -0.15960628110E+02  0.23046231834E+02  0.00000000000E+00 0. -1.
</event>
<event>
 7    1  0.2903212E-011  0.5052887E+02  0.7816164E-02  0.1300439E+00
        -11   -1    0    0    0    0  0.00000000000E+00  0.00000000000E+00  0.45593999997E+02  0.45594000000E+02  0.51100000000E-03 0. -1.
         11   -1    0    0    0    0 -0.00000000000E+00 -0.00000000000E+00 -0.45593999997E+02  0.45594000000E+02  0.51100000000E-03 0.  1.
    9900012    2    1    2    0    0  0.29911831270E+02 -0.13170758758E+01  0.27508403940E+02  0.50528872782E+02  0.30000039309E+02 0.  0.
        -12    1    1    2    0    0 -0.29911831270E+02  0.13170758758E+01 -0.27508403940E+02  0.40659127218E+02  0.00000000000E+00 0.  1.
         11    1    3    3    0    0  0.18926203383E+02 -0.14297126568E+02  0.11861780714E+02  0.26520008381E+02  0.51100000000E-03 0.  1.
        -11    1    3    3    0    0  0.70181218270E+01  0.43460128970E+01  0.99564840236E+01  0.12933423230E+02  0.51100000000E-03 0. -1.
        -12    1    3    3    0    0  0.39675060602E+01  0.86340377947E+01  0.56901392027E+01  0.11075441171E+02  0.00000000000E+00 0.  1.
</event>
<event>
 7    1  0.2903212E-011  0.5052897E+02  0.7816164E-02  0.1300438E+00
        -11   -1    0    0    0    0  0.00000000000E+00  0.00000000000E+00  0.45593999997E+02  0.45594000000E+02  0.51100000000E-03 0.  1.
         11   -1    0    0    0    0 -0.00000000000E+00 -0.00000000000E+00 -0.45593999997E+02  0.45594000000E+02  0.51100000000E-03 0. -1.
    9900012    2    1    2    0    0 -0.32742701709E+02  0.10536619802E+02 -0.21680684994E+02  0.50528966885E+02  0.30000325342E+02 0.  0.
        -12    1    1    2    0    0  0.32742701709E+02 -0.10536619802E+02  0.21680684994E+02  0.40659033115E+02  0.00000000000E+00 0.  1.
         11    1    3    3    0    0 -0.58623354433E+01 -0.31676582235E+01 -0.29444223839E+01  0.72849611466E+01  0.51100000000E-03 0. -1.
        -11    1    3    3    0    0  0.27000040565E+01 -0.37555993313E+01 -0.22214861535E+01  0.51312327207E+01  0.51100000000E-03 0.  1.
         12    1    3    3    0    0 -0.29580370322E+02  0.17459877357E+02 -0.16514776457E+02  0.38112773018E+02  0.00000000000E+00 0. -1.
</event>
<event>
 7    1  0.2903212E-011  0.5052886E+02  0.7816164E-02  0.1300439E+00
        -11   -1    0    0    0    0  0.00000000000E+00  0.00000000000E+00  0.45593999997E+02  0.45594000000E+02  0.51100000000E-03 0.  1.
         11   -1    0    0    0    0 -0.00000000000E+00 -0.00000000000E+00 -0.45593999997E+02  0.45594000000E+02  0.51100000000E-03 0. -1.
    9900012    2    1    2    0    0  0.26850164021E+02  0.12189613803E+02 -0.27993710856E+02  0.50528857854E+02  0.29999993932E+02 0.  0.
        -12    1    1    2    0    0 -0.26850164021E+02 -0.12189613803E+02  0.27993710856E+02  0.40659142146E+02  0.00000000000E+00 0.  1.
         11    1    3    3    0    0  0.46421076153E+01  0.13439643076E+02 -0.14732817140E+02  0.20475084133E+02  0.51100000000E-03 0. -1.
        -11    1    3    3    0    0 -0.98452742507E+00 -0.34948674218E+01 -0.23476100150E+01  0.43237328306E+01  0.51100000000E-03 0.  1.
         12    1    3    3    0    0  0.23192583831E+02  0.22448381489E+01 -0.10913283701E+02  0.25730040890E+02  0.00000000000E+00 0. -1.
</event>
<event>
 7    1  0.2903212E-011  0.5052886E+02  0.7816164E-02  0.1300439E+00
        -11   -1    0    0    0    0  0.00000000000E+00  0.00000000000E+00  0.45593999997E+02  0.45594000000E+02  0.51100000000E-03 0.  1.
         11   -1    0    0    0    0 -0.00000000000E+00 -0.00000000000E+00 -0.45593999997E+02  0.45594000000E+02  0.51100000000E-03 0. -1.
    9900012    2    1    2    0    0 -0.39114491095E+02 -0.56607442379E+01 -0.95487299722E+01  0.50528859785E+02  0.29999999802E+02 0.  0.
        -12    1    1    2    0    0  0.39114491095E+02  0.56607442379E+01  0.95487299722E+01  0.40659140215E+02  0.00000000000E+00 0.  1.
         11    1    3    3    0    0 -0.26097541996E+00 -0.81582458299E+01 -0.29295978471E+01  0.86722331032E+01  0.51100000000E-03 0. -1.
        -11    1    3    3    0    0 -0.99546843453E+01 -0.54191248033E+01 -0.25566903350E+01  0.11618920767E+02  0.51100000000E-03 0.  1.
        -12    1    3    3    0    0 -0.28898831330E+02  0.79166263952E+01 -0.40624417901E+01  0.30237705915E+02  0.00000000000E+00 0.  1.
</event>
<event>
 7    1  0.2903212E-011  0.5052886E+02  0.7816164E-02  0.1300439E+00
        -11   -1    0    0    0    0  0.00000000000E+00  0.00000000000E+00  0.45593999997E+02  0.45594000000E+02  0.51100000000E-03 0. -1.
         11   -1    0    0    0    0 -0.00000000000E+00 -0.00000000000E+00 -0.45593999997E+02  0.45594000000E+02  0.51100000000E-03 0.  1.
    9900012    2    1    2    0    0 -0.85173923508E+01 -0.14435688976E+01  0.39730794901E+02  0.50528856783E+02  0.29999990679E+02 0.  0.
        -12    1    1    2    0    0  0.85173923508E+01  0.14435688976E+01 -0.39730794901E+02  0.40659143217E+02  0.00000000000E+00 0.  1.
         11    1    3    3    0    0 -0.12411267587E+02  0.23717183250E+01  0.17757286640E+02  0.21794169863E+02  0.51100000000E-03 0. -1.
        -11    1    3    3    0    0  0.24031766035E+01  0.55259342019E+01  0.15426084445E+01  0.62201967546E+01  0.51100000000E-03 0.  1.
         12    1    3    3    0    0  0.14906986328E+01 -0.93412214245E+01  0.20430899816E+02  0.22514490166E+02  0.00000000000E+00 0. -1.
</event>
<event>
 7    1  0.2903212E-011  0.5052887E+02  0.7816164E-02  0.1300439E+00
        -11   -1    0    0    0    0  0.00000000000E+00  0.00000000000E+00  0.45593999997E+02  0.45594000000E+02  0.51100000000E-03 0.  1.
         11   -1    0    0    0    0 -0.00000000000E+00 -0.00000000000E+00 -0.45593999997E+02  0.45594000000E+02  0.51100000000E-03 0. -1.
    9900012    2    1    2    0    0 -0.15851463484E+02 -0.35599079122E+02 -0.11601788975E+02  0.50528870197E+02  0.30000031451E+02 0.  0.
        -12    1    1    2    0    0  0.15851463484E+02  0.35599079122E+02  0.11601788975E+02  0.40659129803E+02  0.00000000000E+00 0.  1.
         11    1    3    3    0    0 -0.68555878356E+01 -0.11758415389E+02 -0.40345144484E+01  0.14196363060E+02  0.51100000000E-03 0. -1.
        -11    1    3    3    0    0 -0.15741356656E+02 -0.66858792486E+01 -0.36447991921E+01  0.17486447670E+02  0.51100000000E-03 0.  1.
        -12    1    3    3    0    0  0.67454810070E+01 -0.17154784484E+02 -0.39224753348E+01  0.18846059468E+02  0.00000000000E+00 0.  1.
</event>
<event>
 7    1  0.2903212E-011  0.5052885E+02  0.7816164E-02  0.1300439E+00
        -11   -1    0    0    0    0  0.00000000000E+00  0.00000000000E+00  0.45593999997E+02  0.45594000000E+02  0.51100000000E-03 0. -1.
         11   -1    0    0    0    0 -0.00000000000E+00 -0.00000000000E+00 -0.45593999997E+02  0.45594000000E+02  0.51100000000E-03 0.  1.
    9900012    2    1    2    0    0  0.37802729094E+02 -0.14892934039E+02  0.15233198757E+01  0.50528852017E+02  0.29999976191E+02 0.  0.
        -12    1    1    2    0    0 -0.37802729094E+02  0.14892934039E+02 -0.15233198757E+01  0.40659147983E+02  0.00000000000E+00 0.  1.
         11    1    3    3    0    0  0.27391968797E+02 -0.36171247445E+01  0.36249072272E+01  0.27866530080E+02  0.51100000000E-03 0. -1.
        -11    1    3    3    0    0  0.77411336632E+01 -0.23539528001E+01 -0.82084898071E+01  0.11525864365E+02  0.51100000000E-03 0.  1.
         12    1    3    3    0    0  0.26696266339E+01 -0.89218564942E+01  0.61069024556E+01  0.11136457573E+02  0.00000000000E+00 0. -1.
</event>
<event>
 7    1  0.2903212E-011  0.5052887E+02  0.7816164E-02  0.1300439E+00
        -11   -1    0    0    0    0  0.00000000000E+00  0.00000000000E+00  0.45593999997E+02  0.45594000000E+02  0.51100000000E-03 0.  1.
         11   -1    0    0    0    0 -0.00000000000E+00 -0.00000000000E+00 -0.45593999997E+02  0.45594000000E+02  0.51100000000E-03 0. -1.
    9900012    2    1    2    0    0 -0.13050711176E+02  0.38018949438E+02 -0.61158547947E+01  0.50528865006E+02  0.30000015672E+02 0.  0.
        -12    1    1    2    0    0  0.13050711176E+02 -0.38018949438E+02  0.61158547947E+01  0.40659134994E+02  0.00000000000E+00 0.  1.
         11    1    3    3    0    0  0.21336870150E+01  0.17413858089E+01  0.53105860209E+01  0.59822545047E+01  0.51100000000E-03 0. -1.
        -11    1    3    3    0    0  0.39973580884E+01  0.66469465148E+01 -0.22386824559E+01  0.80729467394E+01  0.51100000000E-03 0.  1.
         12    1    3    3    0    0 -0.19181756279E+02  0.29630617115E+02 -0.91877583596E+01  0.36473663762E+02  0.00000000000E+00 0. -1.
</event>
<event>
 7    1  0.2903212E-011  0.5052886E+02  0.7816164E-02  0.1300439E+00
        -11   -1    0    0    0    0  0.00000000000E+00  0.00000000000E+00  0.45593999997E+02  0.45594000000E+02  0.51100000000E-03 0.  1.
         11   -1    0    0    0    0 -0.00000000000E+00 -0.00000000000E+00 -0.45593999997E+02  0.45594000000E+02  0.51100000000E-03 0. -1.
    9900012    2    1    2    0    0  0.79177874292E+01  0.12446674156E+02 -0.37888710753E+02  0.50528862554E+02  0.30000008218E+02 0.  0.
        -12    1    1    2    0    0 -0.79177874292E+01 -0.12446674156E+02  0.37888710753E+02  0.40659137446E+02  0.00000000000E+00 0.  1.
         11    1    3    3    0    0  0.13677879395E+02  0.13213162664E+02 -0.20676875574E+02  0.28092796872E+02  0.51100000000E-03 0. -1.
        -11    1    3    3    0    0  0.15718313226E+01  0.26664604835E+01 -0.12894922833E+02  0.13261210365E+02  0.51100000000E-03 0.  1.
        -12    1    3    3    0    0 -0.73319232880E+01 -0.34329489912E+01 -0.43169123464E+01  0.91748553168E+01  0.00000000000E+00 0.  1.
</event>
<event>
 7    1  0.2903212E-011  0.5052885E+02  0.7816164E-02  0.1300439E+00
        -11   -1    0    0    0    0  0.00000000000E+00  0.00000000000E+00  0.45593999997E+02  0.45594000000E+02  0.51100000000E-03 0. -1.
         11   -1    0    0    0    0 -0.00000000000E+00 -0.00000000000E+00 -0.45593999997E+02  0.45594000000E+02  0.51100000000E-03 0.  1.
    9900012    2    1    2    0    0  0.36342415272E+02  0.17725014388E+02 -0.42683672617E+01  0.50528852911E+02  0.29999978909E+02 0.  0.
        -12    1    1    2    0    0 -0.36342415272E+02 -0.17725014388E+02  0.42683672617E+01  0.40659147089E+02  0.00000000000E+00 0.  1.
         11    1    3    3    0    0  0.17665636127E+02  0.93217945966E+01  0.26203452934E+01  0.20145390639E+02  0.51100000000E-03 0. -1.
        -11    1    3    3    0    0  0.86877464792E+01  0.14171791018E+02  0.59503455121E+00  0.16633420151E+02  0.51100000000E-03 0.  1.
         12    1    3    3    0    0  0.99890326664E+01 -0.57685712259E+01 -0.74837471063E+01  0.13750042122E+02  0.00000000000E+00 0. -1.
</event>
<event>
 7    1  0.2903212E-011  0.5052887E+02  0.7816164E-02  0.1300439E+00
        -11   -1    0    0    0    0  0.00000000000E+00  0.00000000000E+00  0.45593999997E+02  0.45594000000E+02  0.51100000000E-03 0.  1.
         11   -1    0    0    0    0 -0.00000000000E+00 -0.00000000000E+00 -0.45593999997E+02  0.45594000000E+02  0.51100000000E-03 0. -1.
    9900012    2    1    2    0    0 -0.31909316028E+02  0.23286836295E+02 -0.96272563122E+01  0.50528865010E+02  0.30000015685E+02 0.  0.
        -12    1    1    2    0    0  0.31909316028E+02 -0.23286836295E+02  0.96272563122E+01  0.40659134990E+02  0.00000000000E+00 0.  1.
         11    1    3    3    0    0 -0.35452093492E+01  0.19461299976E+02 -0.76238530245E+01  0.21199854747E+02  0.51100000000E-03 0. -1.
        -11    1    3    3    0    0 -0.57603897249E+01  0.31553811628E+01 -0.13536192283E+01  0.67060275381E+01  0.51100000000E-03 0.  1.
         12    1    3    3    0    0 -0.22603716954E+02  0.67015515652E+00 -0.64978405946E+00  0.22622982725E+02  0.00000000000E+00 0. -1.
</event>
<event>
 7    1  0.2903212E-011  0.5052885E+02  0.7816164E-02  0.1300439E+00
        -11   -1    0    0    0    0  0.00000000000E+00  0.00000000000E+00  0.45593999997E+02  0.45594000000E+02  0.51100000000E-03 0.  1.
         11   -1    0    0    0    0 -0.00000000000E+00 -0.00000000000E+00 -0.45593999997E+02  0.45594000000E+02  0.51100000000E-03 0. -1.
    9900012    2    1    2    0    0  0.40451816091E+02  0.46558663134E+00  0.40743113167E+01  0.50528853321E+02  0.29999980153E+02 0.  0.
        -12    1    1    2    0    0 -0.40451816091E+02 -0.46558663134E+00 -0.40743113167E+01  0.40659146679E+02  0.00000000000E+00 0.  1.
         11    1    3    3    0    0  0.86704127968E+01 -0.16676949312E+01 -0.85050751066E+01  0.12259427690E+02  0.51100000000E-03 0. -1.
        -11    1    3    3    0    0  0.46319253188E+01 -0.80176605821E+00 -0.41281573623E+01  0.62561365427E+01  0.51100000000E-03 0.  1.
        -12    1    3    3    0    0  0.27149477976E+02  0.29350476208E+01  0.16707543786E+02  0.32013289088E+02  0.00000000000E+00 0.  1.
</event>
<event>
 7    1  0.2903212E-011  0.5052886E+02  0.7816164E-02  0.1300439E+00
        -11   -1    0    0    0    0  0.00000000000E+00  0.00000000000E+00  0.45593999997E+02  0.45594000000E+02  0.51100000000E-03 0. -1.
         11   -1    0    0    0    0 -0.00000000000E+00 -0.00000000000E+00 -0.45593999997E+02  0.45594000000E+02  0.51100000000E-03 0.  1.
    9900012    2    1    2    0    0  0.38958777594E+02  0.11353287136E+02 -0.25459642655E+01  0.50528863088E+02  0.30000009842E+02 0.  0.
        -12    1    1    2    0    0 -0.38958777594E+02 -0.11353287136E+02  0.25459642655E+01  0.40659136912E+02  0.00000000000E+00 0.  1.
         11    1    3    3    0    0  0.11439070059E+02  0.84058671973E+01 -0.46519593928E+01  0.14938261398E+02  0.51100000000E-03 0. -1.
        -11    1    3    3    0    0 -0.39189272284E+01  0.84281417608E+00  0.51474522354E+00  0.40414464321E+01  0.51100000000E-03 0.  1.
         12    1    3    3    0    0  0.31438634764E+02  0.21046057623E+01  0.15912499037E+01  0.31549155258E+02  0.00000000000E+00 0. -1.
</event>
<event>
 7    1  0.2903212E-011  0.5052886E+02  0.7816164E-02  0.1300439E+00
        -11   -1    0    0    0    0  0.00000000000E+00  0.00000000000E+00  0.45593999997E+02  0.45594000000E+02  0.51100000000E-03 0. -1.
         11   -1    0    0    0    0 -0.00000000000E+00 -0.00000000000E+00 -0.45593999997E+02  0.45594000000E+02  0.51100000000E-03 0.  1.
    9900012    2    1    2    0    0  0.21865411392E+02 -0.31803686726E+02  0.12790421456E+02  0.50528860982E+02  0.30000003440E+02 0.  0.
        -12    1    1    2    0    0 -0.21865411392E+02  0.31803686726E+02 -0.12790421456E+02  0.40659139018E+02  0.00000000000E+00 0.  1.
         11    1    3    3    0    0 -0.98302755377E+00 -0.14050592351E+02  0.94058780049E+00  0.14116309513E+02  0.51100000000E-03 0. -1.
        -11    1    3    3    0    0  0.15482322834E+01 -0.10302195647E+02  0.88086695339E+01  0.13642760628E+02  0.51100000000E-03 0.  1.
         12    1    3    3    0    0  0.21300206662E+02 -0.74508987284E+01  0.30411641216E+01  0.22769790841E+02  0.00000000000E+00 0. -1.
</event>
<event>
 7    1  0.2961137E-011  0.5052886E+02  0.7816164E-02  0.1300439E+00
        -11   -1    0    0    0    0  0.00000000000E+00  0.00000000000E+00  0.45593999997E+02  0.45594000000E+02  0.51100000000E-03 0. -1.
         11   -1    0    0    0    0 -0.00000000000E+00 -0.00000000000E+00 -0.45593999997E+02  0.45594000000E+02  0.51100000000E-03 0.  1.
    9900012    2    1    2    0    0  0.82170871533E+01 -0.34777887081E+02  0.19394417416E+02  0.50528863536E+02  0.30000011203E+02 0.  0.
        -12    1    1    2    0    0 -0.82170871533E+01  0.34777887081E+02 -0.19394417416E+02  0.40659136464E+02  0.00000000000E+00 0.  1.
         11    1    3    3    0    0  0.41134130173E+01  0.42514812399E+00  0.50414763520E+01  0.65205369140E+01  0.51100000000E-03 0. -1.
        -11    1    3    3    0    0 -0.83835872220E+00 -0.74827379548E+01 -0.56969650952E+01  0.94419078688E+01  0.51100000000E-03 0.  1.
         12    1    3    3    0    0  0.49420328582E+01 -0.27720297250E+02  0.20049906159E+02  0.34566418753E+02  0.00000000000E+00 0. -1.
</event>
<event>
 7    1  0.2903212E-011  0.5052886E+02  0.7816164E-02  0.1300439E+00
        -11   -1    0    0    0    0  0.00000000000E+00  0.00000000000E+00  0.45593999997E+02  0.45594000000E+02  0.51100000000E-03 0.  1.
         11   -1    0    0    0    0 -0.00000000000E+00 -0.00000000000E+00 -0.45593999997E+02  0.45594000000E+02  0.51100000000E-03 0. -1.
    9900012    2    1    2    0    0  0.21954812115E+02  0.30056313366E+02 -0.16363688141E+02  0.50528855423E+02  0.29999986545E+02 0.  0.
        -12    1    1    2    0    0 -0.21954812115E+02 -0.30056313366E+02  0.16363688141E+02  0.40659144577E+02  0.00000000000E+00 0.  1.
         11    1    3    3    0    0  0.95543150075E+01  0.32021549378E+02 -0.14861722728E+02  0.36572330559E+02  0.51100000000E-03 0. -1.
        -11    1    3    3    0    0  0.41235711926E+01  0.19749152742E+01  0.41642709006E+00  0.45910283709E+01  0.51100000000E-03 0.  1.
        -12    1    3    3    0    0  0.82769259147E+01 -0.39401512869E+01 -0.19183925035E+01  0.93654964930E+01  0.00000000000E+00 0.  1.
</event>
<event>
 7    1  0.2903212E-011  0.5052885E+02  0.7816164E-02  0.1300439E+00
        -11   -1    0    0    0    0  0.00000000000E+00  0.00000000000E+00  0.45593999997E+02  0.45594000000E+02  0.51100000000E-03 0. -1.
         11   -1    0    0    0    0 -0.00000000000E+00 -0.00000000000E+00 -0.45593999997E+02  0.45594000000E+02  0.51100000000E-03 0.  1.
    9900012    2    1    2    0    0  0.28916917305E+02  0.22347028142E+02  0.17821007661E+02  0.50528854814E+02  0.29999984693E+02 0.  0.
        -12    1    1    2    0    0 -0.28916917305E+02 -0.22347028142E+02 -0.17821007661E+02  0.40659145186E+02  0.00000000000E+00 0.  1.
         11    1    3    3    0    0  0.13663216712E+02  0.99153572092E+01  0.63208305698E+01  0.18026388958E+02  0.51100000000E-03 0. -1.
        -11    1    3    3    0    0  0.11743242162E+02  0.13171174458E+02 -0.27041907121E+01  0.17852064888E+02  0.51100000000E-03 0.  1.
         12    1    3    3    0    0  0.35104584309E+01 -0.73950352571E+00  0.14204367803E+02  0.14650400969E+02  0.00000000000E+00 0. -1.
</event>
<event>
 7    1  0.2903212E-011  0.5052886E+02  0.7816164E-02  0.1300439E+00
        -11   -1    0    0    0    0  0.00000000000E+00  0.00000000000E+00  0.45593999997E+02  0.45594000000E+02  0.51100000000E-03 0.  1.
         11   -1    0    0    0    0 -0.00000000000E+00 -0.00000000000E+00 -0.45593999997E+02  0.45594000000E+02  0.51100000000E-03 0. -1.
    9900012    2    1    2    0    0  0.15368776278E+02 -0.23446335025E+02 -0.29448867817E+02  0.50528859255E+02  0.29999998193E+02 0.  0.
        -12    1    1    2    0    0 -0.15368776278E+02  0.23446335025E+02  0.29448867817E+02  0.40659140745E+02  0.00000000000E+00 0.  1.
         11    1    3    3    0    0  0.13686959590E+02 -0.89478119452E+01 -0.16856727740E+02  0.23485005254E+02  0.51100000000E-03 0. -1.
        -11    1    3    3    0    0  0.50987966558E+01  0.16927948925E+01  0.11965202447E+01  0.55040841965E+01  0.51100000000E-03 0.  1.
         12    1    3    3    0    0 -0.34169799677E+01 -0.16191317972E+02 -0.13788660322E+02  0.21539769805E+02  0.00000000000E+00 0. -1.
</event>
<event>
 7    1  0.2903212E-011  0.5052883E+02  0.7816164E-02  0.1300439E+00
        -11   -1    0    0    0    0  0.00000000000E+00  0.00000000000E+00  0.45593999997E+02  0.45594000000E+02  0.51100000000E-03 0.  1.
         11   -1    0    0    0    0 -0.00000000000E+00 -0.00000000000E+00 -0.45593999997E+02  0.45594000000E+02  0.51100000000E-03 0. -1.
    9900012    2    1    2    0    0  0.18205731979E+02  0.19686097590E+02 -0.30564314464E+02  0.50528825957E+02  0.29999896980E+02 0.  0.
        -12    1    1    2    0    0 -0.18205731979E+02 -0.19686097590E+02  0.30564314464E+02  0.40659174043E+02  0.00000000000E+00 0.  1.
         11    1    3    3    0    0  0.79840122072E+01 -0.22446939672E+01 -0.16812233402E+02  0.18746580866E+02  0.51100000000E-03 0.  1.
        -11    1    3    3    0    0  0.91129529022E+01  0.13002475490E+02 -0.15965760092E+02  0.22517010793E+02  0.51100000000E-03 0. -1.
        -12    1    3    3    0    0  0.11087668696E+01  0.89283160665E+01  0.22136790304E+01  0.92652342984E+01  0.00000000000E+00 0.  1.
</event>
<event>
 7    1  0.2903212E-011  0.5052886E+02  0.7816164E-02  0.1300439E+00
        -11   -1    0    0    0    0  0.00000000000E+00  0.00000000000E+00  0.45593999997E+02  0.45594000000E+02  0.51100000000E-03 0. -1.
         11   -1    0    0    0    0 -0.00000000000E+00 -0.00000000000E+00 -0.45593999997E+02  0.45594000000E+02  0.51100000000E-03 0.  1.
    9900012    2    1    2    0    0  0.20705400279E+02  0.34969669401E+02 -0.12547347627E+01  0.50528859108E+02  0.29999997746E+02 0.  0.
        -12    1    1    2    0    0 -0.20705400279E+02 -0.34969669401E+02  0.12547347627E+01  0.40659140892E+02  0.00000000000E+00 0.  1.
         11    1    3    3    0    0  0.61218090055E+01  0.12686537538E+02  0.81236826048E+01  0.16260965516E+02  0.51100000000E-03 0. -1.
        -11    1    3    3    0    0  0.20781817714E+01  0.15737427842E+02  0.21816410896E+01  0.16023265356E+02  0.51100000000E-03 0.  1.
        -12    1    3    3    0    0  0.12505409502E+02  0.65457040210E+01 -0.11560058457E+02  0.18244628236E+02  0.00000000000E+00 0.  1.
</event>
<event>
 7    1  0.2903212E-011  0.5052885E+02  0.7816164E-02  0.1300439E+00
        -11   -1    0    0    0    0  0.00000000000E+00  0.00000000000E+00  0.45593999997E+02  0.45594000000E+02  0.51100000000E-03 0. -1.
         11   -1    0    0    0    0 -0.00000000000E+00 -0.00000000000E+00 -0.45593999997E+02  0.45594000000E+02  0.51100000000E-03 0.  1.
    9900012    2    1    2    0    0  0.27172117191E+02  0.25915846824E+02 -0.15595228634E+02  0.50528853115E+02  0.29999979529E+02 0.  0.
        -12    1    1    2    0    0 -0.27172117191E+02 -0.25915846824E+02  0.15595228634E+02  0.40659146885E+02  0.00000000000E+00 0.  1.
         11    1    3    3    0    0  0.89943461567E+01  0.28227651261E+01  0.26147029220E+01  0.97827878120E+01  0.51100000000E-03 0.  1.
        -11    1    3    3    0    0  0.13214398858E+02  0.14991889061E+02  0.24859756287E+00  0.19985966971E+02  0.51100000000E-03 0. -1.
        -12    1    3    3    0    0  0.49633721767E+01  0.81011926375E+01 -0.18458529119E+02  0.20760098332E+02  0.00000000000E+00 0.  1.
</event>
<event>
 7    1  0.3120892E-011  0.5052885E+02  0.7816164E-02  0.1300439E+00
        -11   -1    0    0    0    0  0.00000000000E+00  0.00000000000E+00  0.45593999997E+02  0.45594000000E+02  0.51100000000E-03 0. -1.
         11   -1    0    0    0    0 -0.00000000000E+00 -0.00000000000E+00 -0.45593999997E+02  0.45594000000E+02  0.51100000000E-03 0.  1.
    9900012    2    1    2    0    0 -0.32408126352E+02  0.16011817573E+02  0.18614550697E+02  0.50528850313E+02  0.29999971010E+02 0.  0.
        -12    1    1    2    0    0  0.32408126352E+02 -0.16011817573E+02 -0.18614550697E+02  0.40659149687E+02  0.00000000000E+00 0.  1.
         11    1    3    3    0    0 -0.11322625518E+02 -0.33810497644E+01  0.67605491288E+01  0.13613903588E+02  0.51100000000E-03 0. -1.
        -11    1    3    3    0    0 -0.48856458424E+01 -0.23900118565E+01 -0.27445181996E+01  0.60921320062E+01  0.51100000000E-03 0.  1.
         12    1    3    3    0    0 -0.16199854992E+02  0.21782879194E+02  0.14598519768E+02  0.30822814718E+02  0.00000000000E+00 0. -1.
</event>
<event>
 7    1  0.2903212E-011  0.5052886E+02  0.7816164E-02  0.1300439E+00
        -11   -1    0    0    0    0  0.00000000000E+00  0.00000000000E+00  0.45593999997E+02  0.45594000000E+02  0.51100000000E-03 0.  1.
         11   -1    0    0    0    0 -0.00000000000E+00 -0.00000000000E+00 -0.45593999997E+02  0.45594000000E+02  0.51100000000E-03 0. -1.
    9900012    2    1    2    0    0 -0.59718035189E+01  0.33615715404E+02 -0.22079110135E+02  0.50528857563E+02  0.29999993049E+02 0.  0.
        -12    1    1    2    0    0  0.59718035189E+01 -0.33615715404E+02  0.22079110135E+02  0.40659142437E+02  0.00000000000E+00 0.  1.
         11    1    3    3    0    0  0.15276972068E+01  0.16885676874E+02 -0.12138477057E+02  0.20851920002E+02  0.51100000000E-03 0. -1.
        -11    1    3    3    0    0 -0.12095277273E+02  0.19183882459E+02 -0.72239087092E+01  0.23801301137E+02  0.51100000000E-03 0.  1.
        -12    1    3    3    0    0  0.45957765469E+01 -0.24538439292E+01 -0.27167243686E+01  0.58756364245E+01  0.00000000000E+00 0.  1.
</event>
<event>
 7    1  0.2903212E-011  0.5052886E+02  0.7816164E-02  0.1300439E+00
        -11   -1    0    0    0    0  0.00000000000E+00  0.00000000000E+00  0.45593999997E+02  0.45594000000E+02  0.51100000000E-03 0.  1.
         11   -1    0    0    0    0 -0.00000000000E+00 -0.00000000000E+00 -0.45593999997E+02  0.45594000000E+02  0.51100000000E-03 0. -1.
    9900012    2    1    2    0    0 -0.10466894052E+02  0.16943301500E+02 -0.35447628169E+02  0.50528859827E+02  0.29999999929E+02 0.  0.
        -12    1    1    2    0    0  0.10466894052E+02 -0.16943301500E+02  0.35447628169E+02  0.40659140173E+02  0.00000000000E+00 0.  1.
         11    1    3    3    0    0 -0.12595115438E+01  0.18977708908E+00  0.28995676515E+01  0.31669981843E+01  0.51100000000E-03 0. -1.
        -11    1    3    3    0    0  0.42000703919E+01  0.18771740026E+00 -0.93740786435E+00  0.43075007701E+01  0.51100000000E-03 0.  1.
         12    1    3    3    0    0 -0.13407452900E+02  0.16565807010E+02 -0.37409787956E+02  0.43054360872E+02  0.00000000000E+00 0. -1.
</event>
<event>
 7    1  0.2903212E-011  0.5052885E+02  0.7816164E-02  0.1300439E+00
        -11   -1    0    0    0    0  0.00000000000E+00  0.00000000000E+00  0.45593999997E+02  0.45594000000E+02  0.51100000000E-03 0. -1.
         11   -1    0    0    0    0 -0.00000000000E+00 -0.00000000000E+00 -0.45593999997E+02  0.45594000000E+02  0.51100000000E-03 0.  1.
    9900012    2    1    2    0    0  0.23154187903E+02 -0.29903589738E+02  0.14927325051E+02  0.50528854290E+02  0.29999983101E+02 0.  0.
        -12    1    1    2    0    0 -0.23154187903E+02  0.29903589738E+02 -0.14927325051E+02  0.40659145710E+02  0.00000000000E+00 0.  1.
         11    1    3    3    0    0 -0.37853788446E+00 -0.75861418093E+01  0.50984053475E+01  0.91480367199E+01  0.51100000000E-03 0. -1.
        -11    1    3    3    0    0  0.20207652791E+01 -0.28509902996E+01 -0.70123173979E+01  0.78348090948E+01  0.51100000000E-03 0.  1.
        -12    1    3    3    0    0  0.21511960509E+02 -0.19466457629E+02  0.16841237102E+02  0.33546008476E+02  0.00000000000E+00 0.  1.
</event>
<event>
 7    1  0.2903212E-011  0.5052887E+02  0.7816164E-02  0.1300439E+00
        -11   -1    0    0    0    0  0.00000000000E+00  0.00000000000E+00  0.45593999997E+02  0.45594000000E+02  0.51100000000E-03 0.  1.
         11   -1    0    0    0    0 -0.00000000000E+00 -0.00000000000E+00 -0.45593999997E+02  0.45594000000E+02  0.51100000000E-03 0. -1.
    9900012    2    1    2    0    0  0.11969556353E+02 -0.96903700259E+01 -0.37629656474E+02  0.50528873142E+02  0.30000040401E+02 0.  0.
        -12    1    1    2    0    0 -0.11969556353E+02  0.96903700259E+01  0.37629656474E+02  0.40659126858E+02  0.00000000000E+00 0.  1.
         11    1    3    3    0    0  0.71164564039E+01 -0.84583968424E+01 -0.52676899929E+01  0.12244875949E+02  0.51100000000E-03 0. -1.
        -11    1    3    3    0    0  0.29725325790E+01 -0.62799640087E+01 -0.17006313371E+01  0.71530444630E+01  0.51100000000E-03 0.  1.
         12    1    3    3    0    0  0.18805673700E+01  0.50479908252E+01 -0.30661335144E+02  0.31130952729E+02  0.00000000000E+00 0. -1.
</event>
<event>
 7    1  0.2903212E-011  0.5052887E+02  0.7816164E-02  0.1300439E+00
        -11   -1    0    0    0    0  0.00000000000E+00  0.00000000000E+00  0.45593999997E+02  0.45594000000E+02  0.51100000000E-03 0.  1.
         11   -1    0    0    0    0 -0.00000000000E+00 -0.00000000000E+00 -0.45593999997E+02  0.45594000000E+02  0.51100000000E-03 0. -1.
    9900012    2    1    2    0    0 -0.12561741435E+02 -0.29101041753E+02 -0.25465602305E+02  0.50528869663E+02  0.30000029829E+02 0.  0.
        -12    1    1    2    0    0  0.12561741435E+02  0.29101041753E+02  0.25465602305E+02  0.40659130337E+02  0.00000000000E+00 0.  1.
         11    1    3    3    0    0 -0.58518579540E+01 -0.26439339025E+02 -0.22777718403E+02  0.35385128876E+02  0.51100000000E-03 0. -1.
        -11    1    3    3    0    0 -0.39966473170E+00 -0.58980270562E+01 -0.49390435682E+01  0.77032854473E+01  0.51100000000E-03 0.  1.
        -12    1    3    3    0    0 -0.63102187495E+01  0.32363243288E+01  0.22511596669E+01  0.74404553405E+01  0.00000000000E+00 0.  1.
</event>
<event>
 7    1  0.2903212E-011  0.5052886E+02  0.7816164E-02  0.1300439E+00
        -11   -1    0    0    0    0  0.00000000000E+00  0.00000000000E+00  0.45593999997E+02  0.45594000000E+02  0.51100000000E-03 0. -1.
         11   -1    0    0    0    0 -0.00000000000E+00 -0.00000000000E+00 -0.45593999997E+02  0.45594000000E+02  0.51100000000E-03 0.  1.
    9900012    2    1    2    0    0 -0.39952726647E+02 -0.62797606446E+01 -0.41844660170E+01  0.50528861837E+02  0.30000006041E+02 0.  0.
        -12    1    1    2    0    0  0.39952726647E+02  0.62797606446E+01  0.41844660170E+01  0.40659138163E+02  0.00000000000E+00 0.  1.
         11    1    3    3    0    0 -0.24420066237E+02  0.26861881003E+01 -0.77648382390E+01  0.25765247033E+02  0.51100000000E-03 0. -1.
        -11    1    3    3    0    0 -0.18765943807E+02 -0.97234163175E+01  0.25618433346E+01  0.21290103649E+02  0.51100000000E-03 0.  1.
        -12    1    3    3    0    0  0.32332833975E+01  0.75746757258E+00  0.10185288874E+01  0.34735111553E+01  0.00000000000E+00 0.  1.
</event>
<event>
 7    1  0.2903212E-011  0.5052886E+02  0.7816164E-02  0.1300439E+00
        -11   -1    0    0    0    0  0.00000000000E+00  0.00000000000E+00  0.45593999997E+02  0.45594000000E+02  0.51100000000E-03 0.  1.
         11   -1    0    0    0    0 -0.00000000000E+00 -0.00000000000E+00 -0.45593999997E+02  0.45594000000E+02  0.51100000000E-03 0. -1.
    9900012    2    1    2    0    0  0.10709174041E+02 -0.32265299608E+02 -0.22303125422E+02  0.50528863622E+02  0.30000011465E+02 0.  0.
        -12    1    1    2    0    0 -0.10709174041E+02  0.32265299608E+02  0.22303125422E+02  0.40659136378E+02  0.00000000000E+00 0.  1.
         11    1    3    3    0    0  0.30172813980E+00 -0.18746138865E+02 -0.10062994224E+02  0.21278454249E+02  0.51100000000E-03 0. -1.
        -11    1    3    3    0    0 -0.50373414637E+01 -0.90842868436E+01 -0.61148337804E+01  0.12053641313E+02  0.51100000000E-03 0.  1.
        -12    1    3    3    0    0  0.15444787365E+02 -0.44348738988E+01 -0.61252974182E+01  0.17196768060E+02  0.00000000000E+00 0.  1.
</event>
<event>
 7    1  0.2903212E-011  0.5052886E+02  0.7816164E-02  0.1300439E+00
        -11   -1    0    0    0    0  0.00000000000E+00  0.00000000000E+00  0.45593999997E+02  0.45594000000E+02  0.51100000000E-03 0.  1.
         11   -1    0    0    0    0 -0.00000000000E+00 -0.00000000000E+00 -0.45593999997E+02  0.45594000000E+02  0.51100000000E-03 0. -1.
    9900012    2    1    2    0    0  0.42307092437E+01  0.10566655106E+02 -0.39033477887E+02  0.50528862075E+02  0.30000006763E+02 0.  0.
        -12    1    1    2    0    0 -0.42307092437E+01 -0.10566655106E+02  0.39033477887E+02  0.40659137925E+02  0.00000000000E+00 0.  1.
         11    1    3    3    0    0 -0.24296762934E+01  0.11167813463E+01 -0.78735037315E+01  0.83152022667E+01  0.51100000000E-03 0. -1.
        -11    1    3    3    0    0 -0.74103182989E+01  0.65847199126E+01 -0.24411383578E+02  0.26347428756E+02  0.51100000000E-03 0.  1.
         12    1    3    3    0    0  0.14070703836E+02  0.28651538466E+01 -0.67485905778E+01  0.15866231052E+02  0.00000000000E+00 0. -1.
</event>
<event>
 7    1  0.2903212E-011  0.5052886E+02  0.7816164E-02  0.1300439E+00
        -11   -1    0    0    0    0  0.00000000000E+00  0.00000000000E+00  0.45593999997E+02  0.45594000000E+02  0.51100000000E-03 0. -1.
         11   -1    0    0    0    0 -0.00000000000E+00 -0.00000000000E+00 -0.45593999997E+02  0.45594000000E+02  0.51100000000E-03 0.  1.
    9900012    2    1    2    0    0 -0.32049401887E+02 -0.15887364310E+02 -0.19328562239E+02  0.50528858048E+02  0.29999994522E+02 0.  0.
        -12    1    1    2    0    0  0.32049401887E+02  0.15887364310E+02  0.19328562239E+02  0.40659141952E+02  0.00000000000E+00 0.  1.
         11    1    3    3    0    0 -0.99416544092E+01 -0.15611857637E+01 -0.77278072239E+01  0.12688293744E+02  0.51100000000E-03 0.  1.
        -11    1    3    3    0    0 -0.71002668406E+01 -0.15373192928E+02  0.26247072188E+01  0.17135867012E+02  0.51100000000E-03 0. -1.
         12    1    3    3    0    0 -0.15007480637E+02  0.10470143809E+01 -0.14225462234E+02  0.20704697292E+02  0.00000000000E+00 0. -1.
</event>
<event>
 7    1  0.2903212E-011  0.5052887E+02  0.7816164E-02  0.1300439E+00
        -11   -1    0    0    0    0  0.00000000000E+00  0.00000000000E+00  0.45593999997E+02  0.45594000000E+02  0.51100000000E-03 0. -1.
         11   -1    0    0    0    0 -0.00000000000E+00 -0.00000000000E+00 -0.45593999997E+02  0.45594000000E+02  0.51100000000E-03 0.  1.
    9900012    2    1    2    0    0 -0.21041271015E+02 -0.31188175846E+02  0.15418422078E+02  0.50528866489E+02  0.30000020179E+02 0.  0.
        -12    1    1    2    0    0  0.21041271015E+02  0.31188175846E+02 -0.15418422078E+02  0.40659133511E+02  0.00000000000E+00 0.  1.
         11    1    3    3    0    0 -0.20697260081E+01 -0.25079361512E+01  0.10657691812E+02  0.11142706337E+02  0.51100000000E-03 0. -1.
        -11    1    3    3    0    0 -0.61303739927E+01 -0.83553212942E+01  0.10411018086E+02  0.14689526101E+02  0.51100000000E-03 0.  1.
        -12    1    3    3    0    0 -0.12841171014E+02 -0.20324918400E+02 -0.56502878203E+01  0.24696634051E+02  0.00000000000E+00 0.  1.
</event>
<event>
 7    1  0.2903212E-011  0.5052886E+02  0.7816164E-02  0.1300439E+00
        -11   -1    0    0    0    0  0.00000000000E+00  0.00000000000E+00  0.45593999997E+02  0.45594000000E+02  0.51100000000E-03 0.  1.
         11   -1    0    0    0    0 -0.00000000000E+00 -0.00000000000E+00 -0.45593999997E+02  0.45594000000E+02  0.51100000000E-03 0. -1.
    9900012    2    1    2    0    0 -0.21029130980E+02 -0.32203455743E+02 -0.13186317604E+02  0.50528857319E+02  0.29999992307E+02 0.  0.
        -12    1    1    2    0    0  0.21029130980E+02  0.32203455743E+02  0.13186317604E+02  0.40659142681E+02  0.00000000000E+00 0.  1.
         11    1    3    3    0    0 -0.53253532953E+01 -0.16182849600E+02 -0.71142634029E+01  0.18462306273E+02  0.51100000000E-03 0. -1.
        -11    1    3    3    0    0 -0.17674923949E+02 -0.19546072470E+02 -0.80698633541E+01  0.27560380629E+02  0.51100000000E-03 0.  1.
        -12    1    3    3    0    0  0.19711462644E+01  0.35254663263E+01  0.19978091530E+01  0.45061704168E+01  0.00000000000E+00 0.  1.
</event>
<event>
 7    1  0.2903212E-011  0.5052886E+02  0.7816164E-02  0.1300439E+00
        -11   -1    0    0    0    0  0.00000000000E+00  0.00000000000E+00  0.45593999997E+02  0.45594000000E+02  0.51100000000E-03 0. -1.
         11   -1    0    0    0    0 -0.00000000000E+00 -0.00000000000E+00 -0.45593999997E+02  0.45594000000E+02  0.51100000000E-03 0.  1.
    9900012    2    1    2    0    0 -0.11480545887E+02 -0.31025583804E+02  0.23638440238E+02  0.50528860300E+02  0.30000001367E+02 0.  0.
        -12    1    1    2    0    0  0.11480545887E+02  0.31025583804E+02 -0.23638440238E+02  0.40659139700E+02  0.00000000000E+00 0.  1.
         11    1    3    3    0    0 -0.36763628357E+01 -0.20304761133E+02  0.57737591080E+01  0.21427441818E+02  0.51100000000E-03 0. -1.
        -11    1    3    3    0    0  0.58505936051E+01 -0.61774397166E+01  0.77779333860E+01  0.11527638744E+02  0.51100000000E-03 0.  1.
        -12    1    3    3    0    0 -0.13654776657E+02 -0.45433829544E+01  0.10086747744E+02  0.17573779738E+02  0.00000000000E+00 0.  1.
</event>
<event>
 7    1  0.2903212E-011  0.5052886E+02  0.7816164E-02  0.1300439E+00
        -11   -1    0    0    0    0  0.00000000000E+00  0.00000000000E+00  0.45593999997E+02  0.45594000000E+02  0.51100000000E-03 0.  1.
         11   -1    0    0    0    0 -0.00000000000E+00 -0.00000000000E+00 -0.45593999997E+02  0.45594000000E+02  0.51100000000E-03 0. -1.
    9900012    2    1    2    0    0 -0.39514668278E+02 -0.59780644940E+01 -0.74846178057E+01  0.50528858741E+02  0.29999996629E+02 0.  0.
        -12    1    1    2    0    0  0.39514668278E+02  0.59780644940E+01  0.74846178057E+01  0.40659141259E+02  0.00000000000E+00 0.  1.
         11    1    3    3    0    0 -0.23288722668E+02 -0.21715261855E+01 -0.11776345968E+02  0.26187066542E+02  0.51100000000E-03 0. -1.
        -11    1    3    3    0    0  0.35594894811E+01  0.45658041655E+00 -0.25557631435E+00  0.35977424249E+01  0.51100000000E-03 0.  1.
         12    1    3    3    0    0 -0.19785435091E+02 -0.42631187250E+01  0.45473044765E+01  0.20744049774E+02  0.00000000000E+00 0. -1.
</event>
<event>
 7    1  0.2903212E-011  0.5052886E+02  0.7816164E-02  0.1300439E+00
        -11   -1    0    0    0    0  0.00000000000E+00  0.00000000000E+00  0.45593999997E+02  0.45594000000E+02  0.51100000000E-03 0. -1.
         11   -1    0    0    0    0 -0.00000000000E+00 -0.00000000000E+00 -0.45593999997E+02  0.45594000000E+02  0.51100000000E-03 0.  1.
    9900012    2    1    2    0    0  0.27530078872E+01 -0.35341827017E+02  0.19913356325E+02  0.50528861428E+02  0.30000004796E+02 0.  0.
        -12    1    1    2    0    0 -0.27530078872E+01  0.35341827017E+02 -0.19913356325E+02  0.40659138572E+02  0.00000000000E+00 0.  1.
         11    1    3    3    0    0 -0.63218878280E+01 -0.59428328693E+01  0.83621936136E-01  0.86770110702E+01  0.51100000000E-03 0. -1.
        -11    1    3    3    0    0 -0.54716216434E+01 -0.64266361751E+01  0.43243557224E+00  0.84514671342E+01  0.51100000000E-03 0.  1.
         12    1    3    3    0    0  0.14546517359E+02 -0.22972357972E+02  0.19397298817E+02  0.33400383223E+02  0.00000000000E+00 0. -1.
</event>
<event>
 7    1  0.2903212E-011  0.5052886E+02  0.7816164E-02  0.1300439E+00
        -11   -1    0    0    0    0  0.00000000000E+00  0.00000000000E+00  0.45593999997E+02  0.45594000000E+02  0.51100000000E-03 0.  1.
         11   -1    0    0    0    0 -0.00000000000E+00 -0.00000000000E+00 -0.45593999997E+02  0.45594000000E+02  0.51100000000E-03 0. -1.
    9900012    2    1    2    0    0 -0.16139542324E+01 -0.33882853598E+02  0.22416809036E+02  0.50528856581E+02  0.29999990063E+02 0.  0.
        -12    1    1    2    0    0  0.16139542324E+01  0.33882853598E+02 -0.22416809036E+02  0.40659143419E+02  0.00000000000E+00 0.  1.
         11    1    3    3    0    0 -0.43809150129E+01 -0.19018679433E+01  0.42812804290E+01  0.64139598063E+01  0.51100000000E-03 0. -1.
        -11    1    3    3    0    0 -0.42364071942E+01 -0.11866888396E+02  0.19000502240E+02  0.22798887511E+02  0.51100000000E-03 0.  1.
         12    1    3    3    0    0  0.70033679747E+01 -0.20114097259E+02 -0.86497363331E+00  0.21316009263E+02  0.00000000000E+00 0. -1.
</event>
<event>
 7    1  0.2903212E-011  0.5052888E+02  0.7816164E-02  0.1300439E+00
        -11   -1    0    0    0    0  0.00000000000E+00  0.00000000000E+00  0.45593999997E+02  0.45594000000E+02  0.51100000000E-03 0.  1.
         11   -1    0    0    0    0 -0.00000000000E+00 -0.00000000000E+00 -0.45593999997E+02  0.45594000000E+02  0.51100000000E-03 0. -1.
    9900012    2    1    2    0    0 -0.10273144355E+02  0.36501481459E+02 -0.14672027492E+02  0.50528880059E+02  0.30000061428E+02 0.  0.
        -12    1    1    2    0    0  0.10273144355E+02 -0.36501481459E+02  0.14672027492E+02  0.40659119941E+02  0.00000000000E+00 0.  1.
         11    1    3    3    0    0 -0.10988420959E+02  0.13084565616E+02 -0.34733372284E+01  0.17436035223E+02  0.51100000000E-03 0.  1.
        -11    1    3    3    0    0 -0.30613005984E+01  0.14197411484E+02 -0.16356390397E+02  0.21873947090E+02  0.51100000000E-03 0. -1.
         12    1    3    3    0    0  0.37765772021E+01  0.92195043586E+01  0.51577001336E+01  0.11218897747E+02  0.00000000000E+00 0. -1.
</event>
<event>
 7    1  0.2903212E-011  0.5052887E+02  0.7816164E-02  0.1300439E+00
        -11   -1    0    0    0    0  0.00000000000E+00  0.00000000000E+00  0.45593999997E+02  0.45594000000E+02  0.51100000000E-03 0. -1.
         11   -1    0    0    0    0 -0.00000000000E+00 -0.00000000000E+00 -0.45593999997E+02  0.45594000000E+02  0.51100000000E-03 0.  1.
    9900012    2    1    2    0    0  0.33019632293E+02  0.23202455043E+02  0.49512337089E+01  0.50528871233E+02  0.30000034601E+02 0.  0.
        -12    1    1    2    0    0 -0.33019632293E+02 -0.23202455043E+02 -0.49512337089E+01  0.40659128767E+02  0.00000000000E+00 0.  1.
         11    1    3    3    0    0  0.85093816383E+01  0.20056974365E+01 -0.65626045209E+01  0.10931613624E+02  0.51100000000E-03 0. -1.
        -11    1    3    3    0    0  0.56171957769E+01  0.42675717068E+01 -0.55908489415E+01  0.90012581796E+01  0.51100000000E-03 0.  1.
         12    1    3    3    0    0  0.18893054878E+02  0.16929185900E+02  0.17104687171E+02  0.30595999429E+02  0.00000000000E+00 0. -1.
</event>
<event>
 7    1  0.2903212E-011  0.5052888E+02  0.7816164E-02  0.1300439E+00
        -11   -1    0    0    0    0  0.00000000000E+00  0.00000000000E+00  0.45593999997E+02  0.45594000000E+02  0.51100000000E-03 0.  1.
         11   -1    0    0    0    0 -0.00000000000E+00 -0.00000000000E+00 -0.45593999997E+02  0.45594000000E+02  0.51100000000E-03 0. -1.
    9900012    2    1    2    0    0  0.37622138026E+02  0.61286581687E+01 -0.14148439595E+02  0.50528879700E+02  0.30000060336E+02 0.  0.
        -12    1    1    2    0    0 -0.37622138026E+02 -0.61286581687E+01  0.14148439595E+02  0.40659120300E+02  0.00000000000E+00 0.  1.
         11    1    3    3    0    0  0.17112973919E+02  0.20728305741E+01 -0.14686514102E+02  0.22646063668E+02  0.51100000000E-03 0. -1.
        -11    1    3    3    0    0  0.19008212804E+02  0.60476898886E+01 -0.60451401168E+01  0.20842994657E+02  0.51100000000E-03 0.  1.
        -12    1    3    3    0    0  0.15009513033E+01 -0.19918622941E+01  0.65832146235E+01  0.70398213750E+01  0.00000000000E+00 0.  1.
</event>
<event>
 7    1  0.2903212E-011  0.5052887E+02  0.7816164E-02  0.1300439E+00
        -11   -1    0    0    0    0  0.00000000000E+00  0.00000000000E+00  0.45593999997E+02  0.45594000000E+02  0.51100000000E-03 0. -1.
         11   -1    0    0    0    0 -0.00000000000E+00 -0.00000000000E+00 -0.45593999997E+02  0.45594000000E+02  0.51100000000E-03 0.  1.
    9900012    2    1    2    0    0  0.19258775711E+02 -0.31859740306E+02  0.16346898439E+02  0.50528873315E+02  0.30000040928E+02 0.  0.
        -12    1    1    2    0    0 -0.19258775711E+02  0.31859740306E+02 -0.16346898439E+02  0.40659126685E+02  0.00000000000E+00 0.  1.
         11    1    3    3    0    0 -0.32415992252E+01 -0.45550683995E+01  0.55628224381E+01  0.78867995664E+01  0.51100000000E-03 0. -1.
        -11    1    3    3    0    0 -0.66425144629E+00  0.13174682367E+01  0.51929020408E+01  0.53984427759E+01  0.51100000000E-03 0.  1.
         12    1    3    3    0    0  0.23164626382E+02 -0.28622140143E+02  0.55911739605E+01  0.37243630973E+02  0.00000000000E+00 0. -1.
</event>
<event>
 7    1  0.2903212E-011  0.5052886E+02  0.7816164E-02  0.1300439E+00
        -11   -1    0    0    0    0  0.00000000000E+00  0.00000000000E+00  0.45593999997E+02  0.45594000000E+02  0.51100000000E-03 0. -1.
         11   -1    0    0    0    0 -0.00000000000E+00 -0.00000000000E+00 -0.45593999997E+02  0.45594000000E+02  0.51100000000E-03 0.  1.
    9900012    2    1    2    0    0  0.12724380192E+02 -0.34986139828E+01  0.38457970552E+02  0.50528860191E+02  0.30000001036E+02 0.  0.
        -12    1    1    2    0    0 -0.12724380192E+02  0.34986139828E+01 -0.38457970552E+02  0.40659139809E+02  0.00000000000E+00 0.  1.
         11    1    3    3    0    0  0.19079794062E+02  0.27636600584E+01  0.19987727394E+02  0.27770228753E+02  0.51100000000E-03 0. -1.
        -11    1    3    3    0    0  0.10474546853E-01  0.24673499568E+01  0.29099132624E+01  0.38151698496E+01  0.51100000000E-03 0.  1.
        -12    1    3    3    0    0 -0.63658884173E+01 -0.87296239981E+01  0.15560329895E+02  0.18943461588E+02  0.00000000000E+00 0.  1.
</event>
<event>
 7    1  0.2903212E-011  0.5052886E+02  0.7816164E-02  0.1300439E+00
        -11   -1    0    0    0    0  0.00000000000E+00  0.00000000000E+00  0.45593999997E+02  0.45594000000E+02  0.51100000000E-03 0.  1.
         11   -1    0    0    0    0 -0.00000000000E+00 -0.00000000000E+00 -0.45593999997E+02  0.45594000000E+02  0.51100000000E-03 0. -1.
    9900012    2    1    2    0    0  0.20275442065E+02  0.28869934569E+02 -0.20213831022E+02  0.50528860344E+02  0.30000001503E+02 0.  0.
        -12    1    1    2    0    0 -0.20275442065E+02 -0.28869934569E+02  0.20213831022E+02  0.40659139656E+02  0.00000000000E+00 0.  1.
         11    1    3    3    0    0  0.74076071658E+01  0.90136215963E+01  0.36794382982E+01  0.12233408546E+02  0.51100000000E-03 0. -1.
        -11    1    3    3    0    0  0.14998802338E+02  0.71300033828E+01 -0.10244797841E+02  0.19512993181E+02  0.51100000000E-03 0.  1.
        -12    1    3    3    0    0 -0.21309674390E+01  0.12726309590E+02 -0.13648471479E+02  0.18782458618E+02  0.00000000000E+00 0.  1.
</event>
<event>
 7    1  0.2903212E-011  0.5052885E+02  0.7816164E-02  0.1300439E+00
        -11   -1    0    0    0    0  0.00000000000E+00  0.00000000000E+00  0.45593999997E+02  0.45594000000E+02  0.51100000000E-03 0. -1.
         11   -1    0    0    0    0 -0.00000000000E+00 -0.00000000000E+00 -0.45593999997E+02  0.45594000000E+02  0.51100000000E-03 0.  1.
    9900012    2    1    2    0    0 -0.26282241824E+02  0.11781682507E+02  0.28698476504E+02  0.50528845660E+02  0.29999956869E+02 0.  0.
        -12    1    1    2    0    0  0.26282241824E+02 -0.11781682507E+02 -0.28698476504E+02  0.40659154340E+02  0.00000000000E+00 0.  1.
         11    1    3    3    0    0 -0.11027124138E+02  0.15225713557E+02  0.12086534846E+02  0.22349589368E+02  0.51100000000E-03 0. -1.
        -11    1    3    3    0    0  0.34967062587E+01 -0.16714736825E+01  0.21486329240E+01  0.44314109079E+01  0.51100000000E-03 0.  1.
        -12    1    3    3    0    0 -0.18751823945E+02 -0.17725573674E+01  0.14463308734E+02  0.23747845385E+02  0.00000000000E+00 0.  1.
</event>
<event>
 7    1  0.2903212E-011  0.5052883E+02  0.7816164E-02  0.1300439E+00
        -11   -1    0    0    0    0  0.00000000000E+00  0.00000000000E+00  0.45593999997E+02  0.45594000000E+02  0.51100000000E-03 0.  1.
         11   -1    0    0    0    0 -0.00000000000E+00 -0.00000000000E+00 -0.45593999997E+02  0.45594000000E+02  0.51100000000E-03 0. -1.
    9900012    2    1    2    0    0  0.19803465482E+02 -0.19861316514E+02 -0.29436693630E+02  0.50528830424E+02  0.29999910557E+02 0.  0.
        -12    1    1    2    0    0 -0.19803465482E+02  0.19861316514E+02  0.29436693630E+02  0.40659169576E+02  0.00000000000E+00 0.  1.
         11    1    3    3    0    0  0.65953359486E+01 -0.62999252755E+01 -0.10455138507E+01  0.91804473870E+01  0.51100000000E-03 0. -1.
        -11    1    3    3    0    0 -0.57385398748E+00 -0.66530322991E+01  0.22507399661E+01  0.70468416917E+01  0.51100000000E-03 0.  1.
         12    1    3    3    0    0  0.13781983521E+02 -0.69083589392E+01 -0.30641919745E+02  0.34301541345E+02  0.00000000000E+00 0. -1.
</event>
<event>
 7    1  0.2903212E-011  0.5052887E+02  0.7816164E-02  0.1300439E+00
        -11   -1    0    0    0    0  0.00000000000E+00  0.00000000000E+00  0.45593999997E+02  0.45594000000E+02  0.51100000000E-03 0. -1.
         11   -1    0    0    0    0 -0.00000000000E+00 -0.00000000000E+00 -0.45593999997E+02  0.45594000000E+02  0.51100000000E-03 0.  1.
    9900012    2    1    2    0    0  0.36430438493E+02  0.39819353160E+01  0.17610580380E+02  0.50528865738E+02  0.30000017896E+02 0.  0.
        -12    1    1    2    0    0 -0.36430438493E+02 -0.39819353160E+01 -0.17610580380E+02  0.40659134262E+02  0.00000000000E+00 0.  1.
         11    1    3    3    0    0  0.12919616185E+02  0.23492327949E+01  0.62340509778E+01  0.14536119460E+02  0.51100000000E-03 0. -1.
        -11    1    3    3    0    0  0.13109802359E+02 -0.11455265165E+02  0.64266584303E+01  0.18557800428E+02  0.51100000000E-03 0.  1.
         12    1    3    3    0    0  0.10401019948E+02  0.13087967686E+02  0.49498709723E+01  0.17434945849E+02  0.00000000000E+00 0. -1.
</event>
<event>
 7    1  0.2903212E-011  0.5052886E+02  0.7816164E-02  0.1300439E+00
        -11   -1    0    0    0    0  0.00000000000E+00  0.00000000000E+00  0.45593999997E+02  0.45594000000E+02  0.51100000000E-03 0. -1.
         11   -1    0    0    0    0 -0.00000000000E+00 -0.00000000000E+00 -0.45593999997E+02  0.45594000000E+02  0.51100000000E-03 0.  1.
    9900012    2    1    2    0    0  0.34393191213E+02  0.14107208812E+02  0.16470006045E+02  0.50528855377E+02  0.29999986405E+02 0.  0.
        -12    1    1    2    0    0 -0.34393191213E+02 -0.14107208812E+02 -0.16470006045E+02  0.40659144623E+02  0.00000000000E+00 0.  1.
         11    1    3    3    0    0  0.33766970795E+02  0.99585776904E+01  0.49226106452E+01  0.35547344234E+02  0.51100000000E-03 0. -1.
        -11    1    3    3    0    0  0.85552552914E+00  0.64572851058E+01  0.55729208525E+01  0.85723918458E+01  0.51100000000E-03 0.  1.
        -12    1    3    3    0    0 -0.22930511074E+00 -0.23086539838E+01  0.59744745475E+01  0.64091192974E+01  0.00000000000E+00 0.  1.
</event>
<event>
 7    1  0.2903212E-011  0.5052885E+02  0.7816164E-02  0.1300439E+00
        -11   -1    0    0    0    0  0.00000000000E+00  0.00000000000E+00  0.45593999997E+02  0.45594000000E+02  0.51100000000E-03 0.  1.
         11   -1    0    0    0    0 -0.00000000000E+00 -0.00000000000E+00 -0.45593999997E+02  0.45594000000E+02  0.51100000000E-03 0. -1.
    9900012    2    1    2    0    0 -0.51395652294E+01  0.23708471091E+02 -0.32629126609E+02  0.50528848072E+02  0.29999964201E+02 0.  0.
        -12    1    1    2    0    0  0.51395652294E+01 -0.23708471091E+02  0.32629126609E+02  0.40659151928E+02  0.00000000000E+00 0.  1.
         11    1    3    3    0    0  0.29872058110E+01  0.34102832516E+01  0.25109642165E+01  0.51825063407E+01  0.51100000000E-03 0. -1.
        -11    1    3    3    0    0 -0.17924121806E+01 -0.15007965233E+01 -0.14429722897E+02  0.14617866970E+02  0.51100000000E-03 0.  1.
         12    1    3    3    0    0 -0.63343588599E+01  0.21798984363E+02 -0.20710367929E+02  0.30728474761E+02  0.00000000000E+00 0. -1.
</event>
<event>
 7    1  0.2903212E-011  0.5052886E+02  0.7816164E-02  0.1300439E+00
        -11   -1    0    0    0    0  0.00000000000E+00  0.00000000000E+00  0.45593999997E+02  0.45594000000E+02  0.51100000000E-03 0.  1.
         11   -1    0    0    0    0 -0.00000000000E+00 -0.00000000000E+00 -0.45593999997E+02  0.45594000000E+02  0.51100000000E-03 0. -1.
    9900012    2    1    2    0    0 -0.87345190015E-01 -0.27746384719E+02 -0.29720299830E+02  0.50528859377E+02  0.29999998563E+02 0.  0.
        -12    1    1    2    0    0  0.87345190015E-01  0.27746384719E+02  0.29720299830E+02  0.40659140623E+02  0.00000000000E+00 0.  1.
         11    1    3    3    0    0 -0.52226416084E+01 -0.15609197344E+02 -0.94421896809E+01  0.18975720627E+02  0.51100000000E-03 0. -1.
        -11    1    3    3    0    0 -0.30199646666E+01 -0.64911208080E+01  0.17715500722E+01  0.73751763268E+01  0.51100000000E-03 0.  1.
         12    1    3    3    0    0  0.81552610850E+01 -0.56460665671E+01 -0.22049660222E+02  0.24177962423E+02  0.00000000000E+00 0. -1.
</event>
<event>
 7    1  0.2903212E-011  0.5052886E+02  0.7816164E-02  0.1300439E+00
        -11   -1    0    0    0    0  0.00000000000E+00  0.00000000000E+00  0.45593999997E+02  0.45594000000E+02  0.51100000000E-03 0. -1.
         11   -1    0    0    0    0 -0.00000000000E+00 -0.00000000000E+00 -0.45593999997E+02  0.45594000000E+02  0.51100000000E-03 0.  1.
    9900012    2    1    2    0    0 -0.16093895657E+02  0.11265095475E+02  0.35598449572E+02  0.50528862461E+02  0.30000007938E+02 0.  0.
        -12    1    1    2    0    0  0.16093895657E+02 -0.11265095475E+02 -0.35598449572E+02  0.40659137539E+02  0.00000000000E+00 0.  1.
         11    1    3    3    0    0  0.12634505676E+00  0.41543101120E+01  0.20387222771E+02  0.20806564065E+02  0.51100000000E-03 0. -1.
        -11    1    3    3    0    0 -0.11395874513E+01  0.89440676757E+01  0.10449790040E+02  0.13801924442E+02  0.51100000000E-03 0.  1.
        -12    1    3    3    0    0 -0.15080653262E+02 -0.18332823129E+01  0.47614367601E+01  0.15920373955E+02  0.00000000000E+00 0.  1.
</event>
<event>
 7    1  0.2903212E-011  0.5052886E+02  0.7816164E-02  0.1300439E+00
        -11   -1    0    0    0    0  0.00000000000E+00  0.00000000000E+00  0.45593999997E+02  0.45594000000E+02  0.51100000000E-03 0.  1.
         11   -1    0    0    0    0 -0.00000000000E+00 -0.00000000000E+00 -0.45593999997E+02  0.45594000000E+02  0.51100000000E-03 0. -1.
    9900012    2    1    2    0    0  0.94804605669E+01 -0.15110668940E+02 -0.36537030500E+02  0.50528855320E+02  0.29999986230E+02 0.  0.
        -12    1    1    2    0    0 -0.94804605669E+01  0.15110668940E+02  0.36537030500E+02  0.40659144680E+02  0.00000000000E+00 0.  1.
         11    1    3    3    0    0 -0.17902891818E+01 -0.73311745546E+01 -0.32408969740E+02  0.33276006004E+02  0.51100000000E-03 0.  1.
        -11    1    3    3    0    0  0.91791409969E+01 -0.64273557731E+01 -0.71837959594E+01  0.13310689551E+02  0.51100000000E-03 0. -1.
        -12    1    3    3    0    0  0.20916087518E+01 -0.13521386124E+01  0.30557351999E+01  0.39421597646E+01  0.00000000000E+00 0.  1.
</event>
<event>
 7    1  0.2903212E-011  0.5052885E+02  0.7816164E-02  0.1300439E+00
        -11   -1    0    0    0    0  0.00000000000E+00  0.00000000000E+00  0.45593999997E+02  0.45594000000E+02  0.51100000000E-03 0.  1.
         11   -1    0    0    0    0 -0.00000000000E+00 -0.00000000000E+00 -0.45593999997E+02  0.45594000000E+02  0.51100000000E-03 0. -1.
    9900012    2    1    2    0    0 -0.33041200422E+02 -0.10509440589E+02 -0.21236693190E+02  0.50528850914E+02  0.29999972837E+02 0.  0.
        -12    1    1    2    0    0  0.33041200422E+02  0.10509440589E+02  0.21236693190E+02  0.40659149086E+02  0.00000000000E+00 0.  1.
         11    1    3    3    0    0 -0.24693671658E+02 -0.13478913745E+02 -0.11399025487E+02  0.30354510670E+02  0.51100000000E-03 0.  1.
        -11    1    3    3    0    0 -0.97072748528E+01 -0.30303829841E+01 -0.96504711229E+01  0.14019486412E+02  0.51100000000E-03 0. -1.
         12    1    3    3    0    0  0.13597460896E+01  0.59998561399E+01 -0.18719657978E+00  0.61548538315E+01  0.00000000000E+00 0. -1.
</event>
<event>
 7    1  0.2903212E-011  0.5052881E+02  0.7816164E-02  0.1300439E+00
        -11   -1    0    0    0    0  0.00000000000E+00  0.00000000000E+00  0.45593999997E+02  0.45594000000E+02  0.51100000000E-03 0.  1.
         11   -1    0    0    0    0 -0.00000000000E+00 -0.00000000000E+00 -0.45593999997E+02  0.45594000000E+02  0.51100000000E-03 0. -1.
    9900012    2    1    2    0    0 -0.28306414298E+02  0.15701916324E+02 -0.24604190422E+02  0.50528813425E+02  0.29999858885E+02 0.  0.
        -12    1    1    2    0    0  0.28306414298E+02 -0.15701916324E+02  0.24604190422E+02  0.40659186575E+02  0.00000000000E+00 0.  1.
         11    1    3    3    0    0 -0.17427560671E+02  0.13929260414E+02 -0.67549991060E+01  0.23310387809E+02  0.51100000000E-03 0. -1.
        -11    1    3    3    0    0 -0.50644471510E+01  0.12283284887E+01  0.26903945280E+01  0.58647795183E+01  0.51100000000E-03 0.  1.
         12    1    3    3    0    0 -0.58144064759E+01  0.54432742122E+00 -0.20539585844E+02  0.21353646097E+02  0.00000000000E+00 0. -1.
</event>
<event>
 7    1  0.2903212E-011  0.5052886E+02  0.7816164E-02  0.1300439E+00
        -11   -1    0    0    0    0  0.00000000000E+00  0.00000000000E+00  0.45593999997E+02  0.45594000000E+02  0.51100000000E-03 0.  1.
         11   -1    0    0    0    0 -0.00000000000E+00 -0.00000000000E+00 -0.45593999997E+02  0.45594000000E+02  0.51100000000E-03 0. -1.
    9900012    2    1    2    0    0  0.25876617499E+02 -0.51725465856E+01 -0.30932362416E+02  0.50528860609E+02  0.30000002307E+02 0.  0.
        -12    1    1    2    0    0 -0.25876617499E+02  0.51725465856E+01  0.30932362416E+02  0.40659139391E+02  0.00000000000E+00 0.  1.
         11    1    3    3    0    0  0.30273759404E+02 -0.23805055195E+01 -0.15703322265E+02  0.34187156146E+02  0.51100000000E-03 0. -1.
        -11    1    3    3    0    0 -0.78576581658E+00  0.33473629826E+00 -0.91525379572E+00  0.12518650405E+01  0.51100000000E-03 0.  1.
         12    1    3    3    0    0 -0.36113760887E+01 -0.31267773644E+01 -0.14313786356E+02  0.15089839422E+02  0.00000000000E+00 0. -1.
</event>
<event>
 7    1  0.2903212E-011  0.5052887E+02  0.7816164E-02  0.1300439E+00
        -11   -1    0    0    0    0  0.00000000000E+00  0.00000000000E+00  0.45593999997E+02  0.45594000000E+02  0.51100000000E-03 0.  1.
         11   -1    0    0    0    0 -0.00000000000E+00 -0.00000000000E+00 -0.45593999997E+02  0.45594000000E+02  0.51100000000E-03 0. -1.
    9900012    2    1    2    0    0  0.23022633169E+01  0.13128322832E+02 -0.38412391562E+02  0.50528866927E+02  0.30000021510E+02 0.  0.
        -12    1    1    2    0    0 -0.23022633169E+01 -0.13128322832E+02  0.38412391562E+02  0.40659133073E+02  0.00000000000E+00 0.  1.
         11    1    3    3    0    0  0.27745510225E+01 -0.37715631352E+01 -0.29745117884E+01  0.55471201988E+01  0.51100000000E-03 0. -1.
        -11    1    3    3    0    0  0.30751008836E+01 -0.34992057084E+01 -0.94757652124E+00  0.47537971726E+01  0.51100000000E-03 0.  1.
         12    1    3    3    0    0 -0.35473885892E+01  0.20399091676E+02 -0.34490303252E+02  0.40227949555E+02  0.00000000000E+00 0. -1.
</event>
<event>
 7    1  0.2903212E-011  0.5052886E+02  0.7816164E-02  0.1300439E+00
        -11   -1    0    0    0    0  0.00000000000E+00  0.00000000000E+00  0.45593999997E+02  0.45594000000E+02  0.51100000000E-03 0. -1.
         11   -1    0    0    0    0 -0.00000000000E+00 -0.00000000000E+00 -0.45593999997E+02  0.45594000000E+02  0.51100000000E-03 0.  1.
    9900012    2    1    2    0    0  0.22044726813E+02 -0.47087391452E+01  0.33838195568E+02  0.50528859774E+02  0.29999999770E+02 0.  0.
        -12    1    1    2    0    0 -0.22044726813E+02  0.47087391452E+01 -0.33838195568E+02  0.40659140226E+02  0.00000000000E+00 0.  1.
         11    1    3    3    0    0  0.91414741744E+01 -0.27534664627E+01  0.79701457330E+01  0.12436693729E+02  0.51100000000E-03 0. -1.
        -11    1    3    3    0    0  0.13107899459E+02  0.76626473671E+01  0.65994023576E+01  0.16555521878E+02  0.51100000000E-03 0.  1.
         12    1    3    3    0    0 -0.20464682017E+00 -0.96179200496E+01  0.19268647477E+02  0.21536644168E+02  0.00000000000E+00 0. -1.
</event>
<event>
 7    1  0.2903212E-011  0.5052894E+02  0.7816164E-02  0.1300439E+00
        -11   -1    0    0    0    0  0.00000000000E+00  0.00000000000E+00  0.45593999997E+02  0.45594000000E+02  0.51100000000E-03 0. -1.
         11   -1    0    0    0    0 -0.00000000000E+00 -0.00000000000E+00 -0.45593999997E+02  0.45594000000E+02  0.51100000000E-03 0.  1.
    9900012    2    1    2    0    0 -0.56701031998E+01 -0.21274801124E+02  0.34181754086E+02  0.50528935260E+02  0.30000229214E+02 0.  0.
        -12    1    1    2    0    0  0.56701031998E+01  0.21274801124E+02 -0.34181754086E+02  0.40659064740E+02  0.00000000000E+00 0.  1.
         11    1    3    3    0    0 -0.14384500858E+01 -0.12888388125E+02  0.10373006064E+02  0.16606593334E+02  0.51100000000E-03 0. -1.
        -11    1    3    3    0    0 -0.44257361899E+01 -0.32604082091E+01 -0.32471437474E+01  0.63844612372E+01  0.51100000000E-03 0.  1.
         12    1    3    3    0    0  0.19408307588E+00 -0.51260047905E+01  0.27055891770E+02  0.27537880688E+02  0.00000000000E+00 0. -1.
</event>
<event>
 7    1  0.2903212E-011  0.5052885E+02  0.7816164E-02  0.1300439E+00
        -11   -1    0    0    0    0  0.00000000000E+00  0.00000000000E+00  0.45593999997E+02  0.45594000000E+02  0.51100000000E-03 0. -1.
         11   -1    0    0    0    0 -0.00000000000E+00 -0.00000000000E+00 -0.45593999997E+02  0.45594000000E+02  0.51100000000E-03 0.  1.
    9900012    2    1    2    0    0  0.27395359008E+02  0.15479508825E+02  0.25749666632E+02  0.50528853178E+02  0.29999979721E+02 0.  0.
        -12    1    1    2    0    0 -0.27395359008E+02 -0.15479508825E+02 -0.25749666632E+02  0.40659146822E+02  0.00000000000E+00 0.  1.
         11    1    3    3    0    0  0.50767735387E+01 -0.95566789932E+00  0.18823719109E+01  0.54982047041E+01  0.51100000000E-03 0. -1.
        -11    1    3    3    0    0  0.12217322317E+02 -0.14455162518E+01 -0.14986275808E+01  0.12393480815E+02  0.51100000000E-03 0.  1.
         12    1    3    3    0    0  0.10101263152E+02  0.17880692977E+02  0.25365922302E+02  0.32637167659E+02  0.00000000000E+00 0. -1.
</event>
<event>
 7    1  0.2903212E-011  0.5052882E+02  0.7816164E-02  0.1300439E+00
        -11   -1    0    0    0    0  0.00000000000E+00  0.00000000000E+00  0.45593999997E+02  0.45594000000E+02  0.51100000000E-03 0.  1.
         11   -1    0    0    0    0 -0.00000000000E+00 -0.00000000000E+00 -0.45593999997E+02  0.45594000000E+02  0.51100000000E-03 0. -1.
    9900012    2    1    2    0    0  0.32856208137E+02 -0.12608831237E+02 -0.20363103921E+02  0.50528818508E+02  0.29999874337E+02 0.  0.
        -12    1    1    2    0    0 -0.32856208137E+02  0.12608831237E+02  0.20363103921E+02  0.40659181492E+02  0.00000000000E+00 0.  1.
         11    1    3    3    0    0  0.21159319601E+01 -0.81619504684E+00 -0.64167136485E+00  0.23569227429E+01  0.51100000000E-03 0. -1.
        -11    1    3    3    0    0  0.14270095741E+02 -0.26227320818E+01  0.64828706346E+01  0.15891569084E+02  0.51100000000E-03 0.  1.
         12    1    3    3    0    0  0.16470180436E+02 -0.91699041082E+01 -0.26204303191E+02  0.32280326681E+02  0.00000000000E+00 0. -1.
</event>
<event>
 7    1  0.2903212E-011  0.5052886E+02  0.7816164E-02  0.1300439E+00
        -11   -1    0    0    0    0  0.00000000000E+00  0.00000000000E+00  0.45593999997E+02  0.45594000000E+02  0.51100000000E-03 0.  1.
         11   -1    0    0    0    0 -0.00000000000E+00 -0.00000000000E+00 -0.45593999997E+02  0.45594000000E+02  0.51100000000E-03 0. -1.
    9900012    2    1    2    0    0  0.53437169538E+01  0.29072478800E+02  0.27917761814E+02  0.50528858849E+02  0.29999996958E+02 0.  0.
        -12    1    1    2    0    0 -0.53437169538E+01 -0.29072478800E+02 -0.27917761814E+02  0.40659141151E+02  0.00000000000E+00 0.  1.
         11    1    3    3    0    0 -0.11621187138E+00  0.11399487197E+02 -0.29969889271E+01  0.11787440623E+02  0.51100000000E-03 0. -1.
        -11    1    3    3    0    0 -0.42117967299E+01  0.88298744229E+01  0.95103257637E+01  0.13643760860E+02  0.51100000000E-03 0.  1.
        -12    1    3    3    0    0  0.96717255551E+01  0.88431171798E+01  0.21404424977E+02  0.25097657366E+02  0.00000000000E+00 0.  1.
</event>
<event>
 7    1  0.2903212E-011  0.5052886E+02  0.7816164E-02  0.1300439E+00
        -11   -1    0    0    0    0  0.00000000000E+00  0.00000000000E+00  0.45593999997E+02  0.45594000000E+02  0.51100000000E-03 0.  1.
         11   -1    0    0    0    0 -0.00000000000E+00 -0.00000000000E+00 -0.45593999997E+02  0.45594000000E+02  0.51100000000E-03 0. -1.
    9900012    2    1    2    0    0  0.20218943350E+02  0.27983014764E+02 -0.21478147457E+02  0.50528860761E+02  0.30000002770E+02 0.  0.
        -12    1    1    2    0    0 -0.20218943350E+02 -0.27983014764E+02  0.21478147457E+02  0.40659139239E+02  0.00000000000E+00 0.  1.
         11    1    3    3    0    0 -0.35375932327E+01  0.75470774032E+00 -0.65501059302E+01  0.74825154601E+01  0.51100000000E-03 0. -1.
        -11    1    3    3    0    0  0.12106850501E+02  0.42164479372E+01 -0.11126440887E+02  0.16975039008E+02  0.51100000000E-03 0.  1.
         12    1    3    3    0    0  0.11649686082E+02  0.23011859086E+02 -0.38016006397E+01  0.26071306293E+02  0.00000000000E+00 0. -1.
</event>
<event>
 7    1  0.2903212E-011  0.5052886E+02  0.7816164E-02  0.1300439E+00
        -11   -1    0    0    0    0  0.00000000000E+00  0.00000000000E+00  0.45593999997E+02  0.45594000000E+02  0.51100000000E-03 0.  1.
         11   -1    0    0    0    0 -0.00000000000E+00 -0.00000000000E+00 -0.45593999997E+02  0.45594000000E+02  0.51100000000E-03 0. -1.
    9900012    2    1    2    0    0  0.20424468227E+02 -0.13629039449E+02 -0.32407651787E+02  0.50528861876E+02  0.30000006157E+02 0.  0.
        -12    1    1    2    0    0 -0.20424468227E+02  0.13629039449E+02  0.32407651787E+02  0.40659138124E+02  0.00000000000E+00 0.  1.
         11    1    3    3    0    0  0.14473570771E+02 -0.14647008380E+02 -0.11928199021E+02  0.23797080440E+02  0.51100000000E-03 0. -1.
        -11    1    3    3    0    0  0.94835506629E+01  0.55583531631E+01 -0.10435174345E+02  0.15156710954E+02  0.51100000000E-03 0.  1.
        -12    1    3    3    0    0 -0.35326532064E+01 -0.45403842323E+01 -0.10044278422E+02  0.11575070482E+02  0.00000000000E+00 0.  1.
</event>
<event>
 7    1  0.2903212E-011  0.5052885E+02  0.7816164E-02  0.1300439E+00
        -11   -1    0    0    0    0  0.00000000000E+00  0.00000000000E+00  0.45593999997E+02  0.45594000000E+02  0.51100000000E-03 0.  1.
         11   -1    0    0    0    0 -0.00000000000E+00 -0.00000000000E+00 -0.45593999997E+02  0.45594000000E+02  0.51100000000E-03 0. -1.
    9900012    2    1    2    0    0 -0.16364794032E+02 -0.33163321119E+02  0.16898353347E+02  0.50528847314E+02  0.29999961896E+02 0.  0.
        -12    1    1    2    0    0  0.16364794032E+02  0.33163321119E+02 -0.16898353347E+02  0.40659152686E+02  0.00000000000E+00 0.  1.
         11    1    3    3    0    0 -0.12678214549E+02 -0.10422089209E+02  0.54778738566E+01  0.17302143506E+02  0.51100000000E-03 0. -1.
        -11    1    3    3    0    0 -0.51265704517E+01 -0.25104711912E+02  0.48237257583E+01  0.26072909604E+02  0.51100000000E-03 0.  1.
        -12    1    3    3    0    0  0.14399909694E+01  0.23634800027E+01  0.65967537320E+01  0.71537942042E+01  0.00000000000E+00 0.  1.
</event>
<event>
 7    1  0.2903212E-011  0.5052886E+02  0.7816164E-02  0.1300439E+00
        -11   -1    0    0    0    0  0.00000000000E+00  0.00000000000E+00  0.45593999997E+02  0.45594000000E+02  0.51100000000E-03 0.  1.
         11   -1    0    0    0    0 -0.00000000000E+00 -0.00000000000E+00 -0.45593999997E+02  0.45594000000E+02  0.51100000000E-03 0. -1.
    9900012    2    1    2    0    0 -0.37085360381E+02  0.14778242542E+02 -0.77100833142E+01  0.50528858445E+02  0.29999995731E+02 0.  0.
        -12    1    1    2    0    0  0.37085360381E+02 -0.14778242542E+02  0.77100833142E+01  0.40659141555E+02  0.00000000000E+00 0.  1.
         11    1    3    3    0    0 -0.31216145420E+02  0.27882968152E+01 -0.49401922522E+00  0.31344319889E+02  0.51100000000E-03 0. -1.
        -11    1    3    3    0    0 -0.78002399568E+01  0.51229981141E+01 -0.43472166853E+00  0.93422607677E+01  0.51100000000E-03 0.  1.
        -12    1    3    3    0    0  0.19310249958E+01  0.68669476128E+01 -0.67813424205E+01  0.98422777890E+01  0.00000000000E+00 0.  1.
</event>
<event>
 7    1  0.2903212E-011  0.5052886E+02  0.7816164E-02  0.1300439E+00
        -11   -1    0    0    0    0  0.00000000000E+00  0.00000000000E+00  0.45593999997E+02  0.45594000000E+02  0.51100000000E-03 0. -1.
         11   -1    0    0    0    0 -0.00000000000E+00 -0.00000000000E+00 -0.45593999997E+02  0.45594000000E+02  0.51100000000E-03 0.  1.
    9900012    2    1    2    0    0  0.13215206587E+02 -0.23624573962E+02  0.30338153935E+02  0.50528858787E+02  0.29999996768E+02 0.  0.
        -12    1    1    2    0    0 -0.13215206587E+02  0.23624573962E+02 -0.30338153935E+02  0.40659141213E+02  0.00000000000E+00 0.  1.
         11    1    3    3    0    0 -0.56049001364E+01 -0.40057528205E+01  0.10208448057E+01  0.69644156665E+01  0.51100000000E-03 0. -1.
        -11    1    3    3    0    0 -0.62043276353E+00  0.96917862683E+00  0.80996313640E+01  0.81809701453E+01  0.51100000000E-03 0.  1.
        -12    1    3    3    0    0  0.19440539486E+02 -0.20587999768E+02  0.21217677766E+02  0.35383472975E+02  0.00000000000E+00 0.  1.
</event>
<event>
 7    1  0.2903212E-011  0.5052886E+02  0.7816164E-02  0.1300439E+00
        -11   -1    0    0    0    0  0.00000000000E+00  0.00000000000E+00  0.45593999997E+02  0.45594000000E+02  0.51100000000E-03 0.  1.
         11   -1    0    0    0    0 -0.00000000000E+00 -0.00000000000E+00 -0.45593999997E+02  0.45594000000E+02  0.51100000000E-03 0. -1.
    9900012    2    1    2    0    0  0.36455138965E+01  0.31193990087E+02 -0.25822679648E+02  0.50528861134E+02  0.30000003903E+02 0.  0.
        -12    1    1    2    0    0 -0.36455138965E+01 -0.31193990087E+02  0.25822679648E+02  0.40659138866E+02  0.00000000000E+00 0.  1.
         11    1    3    3    0    0 -0.13079373415E+01  0.44642296370E+00  0.82815431887E+00  0.16111590204E+01  0.51100000000E-03 0. -1.
        -11    1    3    3    0    0  0.10113268184E+01  0.31841519172E+02 -0.12558520334E+02  0.34243562290E+02  0.51100000000E-03 0.  1.
         12    1    3    3    0    0  0.39421244196E+01 -0.10939520483E+01 -0.14092313633E+02  0.14674139823E+02  0.00000000000E+00 0. -1.
</event>
<event>
 7    1  0.2903212E-011  0.5052886E+02  0.7816164E-02  0.1300439E+00
        -11   -1    0    0    0    0  0.00000000000E+00  0.00000000000E+00  0.45593999997E+02  0.45594000000E+02  0.51100000000E-03 0.  1.
         11   -1    0    0    0    0 -0.00000000000E+00 -0.00000000000E+00 -0.45593999997E+02  0.45594000000E+02  0.51100000000E-03 0. -1.
    9900012    2    1    2    0    0 -0.93077110471E+01  0.35155387949E+02 -0.18183252767E+02  0.50528862430E+02  0.30000007842E+02 0.  0.
        -12    1    1    2    0    0  0.93077110471E+01 -0.35155387949E+02  0.18183252767E+02  0.40659137570E+02  0.00000000000E+00 0.  1.
         11    1    3    3    0    0  0.74044448948E+00  0.94330387186E+00 -0.35539286147E+01  0.37507984612E+01  0.51100000000E-03 0. -1.
        -11    1    3    3    0    0 -0.37942968028E+01 -0.13378145915E+01  0.44093867895E+01  0.59690140082E+01  0.51100000000E-03 0.  1.
        -12    1    3    3    0    0 -0.62538587338E+01  0.35549898668E+02 -0.19038710942E+02  0.40809049961E+02  0.00000000000E+00 0.  1.
</event>
<event>
 7    1  0.2903212E-011  0.5052886E+02  0.7816164E-02  0.1300439E+00
        -11   -1    0    0    0    0  0.00000000000E+00  0.00000000000E+00  0.45593999997E+02  0.45594000000E+02  0.51100000000E-03 0. -1.
         11   -1    0    0    0    0 -0.00000000000E+00 -0.00000000000E+00 -0.45593999997E+02  0.45594000000E+02  0.51100000000E-03 0.  1.
    9900012    2    1    2    0    0 -0.12425004338E+02 -0.24537545839E+02  0.29944851886E+02  0.50528855357E+02  0.29999986343E+02 0.  0.
        -12    1    1    2    0    0  0.12425004338E+02  0.24537545839E+02 -0.29944851886E+02  0.40659144643E+02  0.00000000000E+00 0.  1.
         11    1    3    3    0    0 -0.53570899153E+00  0.53774495292E+01  0.47932457097E+01  0.72235138442E+01  0.51100000000E-03 0. -1.
        -11    1    3    3    0    0 -0.11554822620E+01  0.90779500355E+00  0.43750734808E+01  0.46152463910E+01  0.51100000000E-03 0.  1.
         12    1    3    3    0    0 -0.10733813085E+02 -0.30822790372E+02  0.20776532696E+02  0.38690095122E+02  0.00000000000E+00 0. -1.
</event>
<event>
 7    1  0.2903212E-011  0.5052885E+02  0.7816164E-02  0.1300439E+00
        -11   -1    0    0    0    0  0.00000000000E+00  0.00000000000E+00  0.45593999997E+02  0.45594000000E+02  0.51100000000E-03 0.  1.
         11   -1    0    0    0    0 -0.00000000000E+00 -0.00000000000E+00 -0.45593999997E+02  0.45594000000E+02  0.51100000000E-03 0. -1.
    9900012    2    1    2    0    0  0.36397900359E+02 -0.16388087697E+02  0.77324039305E+01  0.50528848023E+02  0.29999964051E+02 0.  0.
        -12    1    1    2    0    0 -0.36397900359E+02  0.16388087697E+02 -0.77324039305E+01  0.40659151977E+02  0.00000000000E+00 0.  1.
         11    1    3    3    0    0  0.88092541020E+01 -0.11709522295E+02  0.64425600033E+01  0.16006950049E+02  0.51100000000E-03 0. -1.
        -11    1    3    3    0    0  0.98075532748E+01 -0.33946652808E+00 -0.91784825651E+01  0.13436810679E+02  0.51100000000E-03 0.  1.
         12    1    3    3    0    0  0.17781092983E+02 -0.43390988739E+01  0.10468326492E+02  0.21085087295E+02  0.00000000000E+00 0. -1.
</event>
<event>
 7    1  0.2903212E-011  0.5052878E+02  0.7816164E-02  0.1300439E+00
        -11   -1    0    0    0    0  0.00000000000E+00  0.00000000000E+00  0.45593999997E+02  0.45594000000E+02  0.51100000000E-03 0. -1.
         11   -1    0    0    0    0 -0.00000000000E+00 -0.00000000000E+00 -0.45593999997E+02  0.45594000000E+02  0.51100000000E-03 0.  1.
    9900012    2    1    2    0    0  0.17834286090E+02 -0.30769903814E+02  0.19705915677E+02  0.50528783901E+02  0.29999769145E+02 0.  0.
        -12    1    1    2    0    0 -0.17834286090E+02  0.30769903814E+02 -0.19705915677E+02  0.40659216099E+02  0.00000000000E+00 0.  1.
         11    1    3    3    0    0  0.47945200432E+01  0.26155294135E+01  0.22351261864E+01  0.59012037660E+01  0.51100000000E-03 0.  1.
        -11    1    3    3    0    0  0.70210207530E+01 -0.39734373004E+01 -0.26449005106E+01  0.84899019645E+01  0.51100000000E-03 0. -1.
         12    1    3    3    0    0  0.60187452939E+01 -0.29411995927E+02  0.20115690002E+02  0.36137678171E+02  0.00000000000E+00 0. -1.
</event>
<event>
 7    1  0.2903212E-011  0.5052886E+02  0.7816164E-02  0.1300439E+00
        -11   -1    0    0    0    0  0.00000000000E+00  0.00000000000E+00  0.45593999997E+02  0.45594000000E+02  0.51100000000E-03 0.  1.
         11   -1    0    0    0    0 -0.00000000000E+00 -0.00000000000E+00 -0.45593999997E+02  0.45594000000E+02  0.51100000000E-03 0. -1.
    9900012    2    1    2    0    0  0.16907636429E+02  0.19496012019E+02 -0.31419787257E+02  0.50528859754E+02  0.29999999708E+02 0.  0.
        -12    1    1    2    0    0 -0.16907636429E+02 -0.19496012019E+02  0.31419787257E+02  0.40659140246E+02  0.00000000000E+00 0.  1.
         11    1    3    3    0    0 -0.47094990892E+00 -0.35792037289E+01 -0.12651550570E+02  0.13156527857E+02  0.51100000000E-03 0.  1.
        -11    1    3    3    0    0  0.83185622053E+01  0.15731794579E+01 -0.21750203598E+01  0.87409430038E+01  0.51100000000E-03 0. -1.
        -12    1    3    3    0    0  0.90600241330E+01  0.21502036289E+02 -0.16593216327E+02  0.28631388893E+02  0.00000000000E+00 0.  1.
</event>
<event>
 7    1  0.2903212E-011  0.5052883E+02  0.7816164E-02  0.1300439E+00
        -11   -1    0    0    0    0  0.00000000000E+00  0.00000000000E+00  0.45593999997E+02  0.45594000000E+02  0.51100000000E-03 0.  1.
         11   -1    0    0    0    0 -0.00000000000E+00 -0.00000000000E+00 -0.45593999997E+02  0.45594000000E+02  0.51100000000E-03 0. -1.
    9900012    2    1    2    0    0  0.26648423920E+02  0.29976535046E+01 -0.30562134378E+02  0.50528825369E+02  0.29999895192E+02 0.  0.
        -12    1    1    2    0    0 -0.26648423920E+02 -0.29976535046E+01  0.30562134378E+02  0.40659174631E+02  0.00000000000E+00 0.  1.
         11    1    3    3    0    0  0.11577109085E+02 -0.48098733484E+00 -0.60232357802E+01  0.13059103074E+02  0.51100000000E-03 0. -1.
        -11    1    3    3    0    0  0.13295726431E+02  0.55594770719E+01 -0.17498578998E+01  0.14517097836E+02  0.51100000000E-03 0.  1.
        -12    1    3    3    0    0  0.17755884032E+01 -0.20808362325E+01 -0.22789040698E+02  0.22952624458E+02  0.00000000000E+00 0.  1.
</event>
<event>
 7    1  0.2903212E-011  0.5052886E+02  0.7816164E-02  0.1300439E+00
        -11   -1    0    0    0    0  0.00000000000E+00  0.00000000000E+00  0.45593999997E+02  0.45594000000E+02  0.51100000000E-03 0.  1.
         11   -1    0    0    0    0 -0.00000000000E+00 -0.00000000000E+00 -0.45593999997E+02  0.45594000000E+02  0.51100000000E-03 0. -1.
    9900012    2    1    2    0    0  0.21934786293E+02  0.24031331229E+02 -0.24382907794E+02  0.50528856836E+02  0.29999990838E+02 0.  0.
        -12    1    1    2    0    0 -0.21934786293E+02 -0.24031331229E+02  0.24382907794E+02  0.40659143164E+02  0.00000000000E+00 0.  1.
         11    1    3    3    0    0  0.72412905559E+01  0.20021879971E+02 -0.17062991871E+02  0.27284751389E+02  0.51100000000E-03 0. -1.
        -11    1    3    3    0    0  0.20984239331E+01  0.64794262246E+01  0.23168800491E+01  0.71940448029E+01  0.51100000000E-03 0.  1.
        -12    1    3    3    0    0  0.12595071804E+02 -0.24699749665E+01 -0.96367959721E+01  0.16050060644E+02  0.00000000000E+00 0.  1.
</event>
<event>
 7    1  0.2903212E-011  0.5052886E+02  0.7816164E-02  0.1300439E+00
        -11   -1    0    0    0    0  0.00000000000E+00  0.00000000000E+00  0.45593999997E+02  0.45594000000E+02  0.51100000000E-03 0.  1.
         11   -1    0    0    0    0 -0.00000000000E+00 -0.00000000000E+00 -0.45593999997E+02  0.45594000000E+02  0.51100000000E-03 0. -1.
    9900012    2    1    2    0    0  0.25530229354E+02 -0.31040202191E+02 -0.61545928471E+01  0.50528858641E+02  0.29999996324E+02 0.  0.
        -12    1    1    2    0    0 -0.25530229354E+02  0.31040202191E+02  0.61545928471E+01  0.40659141359E+02  0.00000000000E+00 0.  1.
         11    1    3    3    0    0  0.45505420224E+01 -0.32443096588E+01 -0.27215266102E+01  0.62160827867E+01  0.51100000000E-03 0. -1.
        -11    1    3    3    0    0  0.15246754021E+02 -0.22584199263E+02 -0.14450704317E+02  0.30843677148E+02  0.51100000000E-03 0.  1.
         12    1    3    3    0    0  0.57329333113E+01 -0.52116932698E+01  0.11017638080E+02  0.13469098706E+02  0.00000000000E+00 0. -1.
</event>
<event>
 7    1  0.2903212E-011  0.5052887E+02  0.7816164E-02  0.1300439E+00
        -11   -1    0    0    0    0  0.00000000000E+00  0.00000000000E+00  0.45593999997E+02  0.45594000000E+02  0.51100000000E-03 0. -1.
         11   -1    0    0    0    0 -0.00000000000E+00 -0.00000000000E+00 -0.45593999997E+02  0.45594000000E+02  0.51100000000E-03 0.  1.
    9900012    2    1    2    0    0 -0.40092776704E+02  0.51856697838E+01  0.43408413458E+01  0.50528870416E+02  0.30000032117E+02 0.  0.
        -12    1    1    2    0    0  0.40092776704E+02 -0.51856697838E+01 -0.43408413458E+01  0.40659129584E+02  0.00000000000E+00 0.  1.
         11    1    3    3    0    0 -0.59752490188E+01  0.43219929481E+00 -0.53526144313E+01  0.80337337881E+01  0.51100000000E-03 0.  1.
        -11    1    3    3    0    0 -0.21192583556E+02  0.98425027244E+01 -0.31483919583E+01  0.23577803754E+02  0.51100000000E-03 0. -1.
        -12    1    3    3    0    0 -0.12924944129E+02 -0.50890322353E+01  0.12841847735E+02  0.18917332874E+02  0.00000000000E+00 0.  1.
</event>
<event>
 7    1  0.2903212E-011  0.5052888E+02  0.7816164E-02  0.1300439E+00
        -11   -1    0    0    0    0  0.00000000000E+00  0.00000000000E+00  0.45593999997E+02  0.45594000000E+02  0.51100000000E-03 0. -1.
         11   -1    0    0    0    0 -0.00000000000E+00 -0.00000000000E+00 -0.45593999997E+02  0.45594000000E+02  0.51100000000E-03 0.  1.
    9900012    2    1    2    0    0 -0.37394368401E+02 -0.57653197763E+01  0.14885786746E+02  0.50528876211E+02  0.30000049732E+02 0.  0.
        -12    1    1    2    0    0  0.37394368401E+02  0.57653197763E+01 -0.14885786746E+02  0.40659123789E+02  0.00000000000E+00 0.  1.
         11    1    3    3    0    0 -0.33274962925E+01 -0.15815983484E+01  0.63796012053E+01  0.73670208845E+01  0.51100000000E-03 0. -1.
        -11    1    3    3    0    0 -0.13943203798E+02  0.88826277088E+01 -0.25775432463E+01  0.16731937623E+02  0.51100000000E-03 0.  1.
         12    1    3    3    0    0 -0.20123668310E+02 -0.13066349137E+02  0.11083728787E+02  0.26429917704E+02  0.00000000000E+00 0. -1.
</event>
<event>
 7    1  0.2903212E-011  0.5052886E+02  0.7816164E-02  0.1300439E+00
        -11   -1    0    0    0    0  0.00000000000E+00  0.00000000000E+00  0.45593999997E+02  0.45594000000E+02  0.51100000000E-03 0.  1.
         11   -1    0    0    0    0 -0.00000000000E+00 -0.00000000000E+00 -0.45593999997E+02  0.45594000000E+02  0.51100000000E-03 0. -1.
    9900012    2    1    2    0    0 -0.23433544819E+02  0.32660498005E+02 -0.61095233053E+01  0.50528862924E+02  0.30000009345E+02 0.  0.
        -12    1    1    2    0    0  0.23433544819E+02 -0.32660498005E+02  0.61095233053E+01  0.40659137076E+02  0.00000000000E+00 0.  1.
         11    1    3    3    0    0  0.60520477198E+00  0.20252511089E+01 -0.52027450502E+01  0.56157342519E+01  0.51100000000E-03 0. -1.
        -11    1    3    3    0    0 -0.39648550528E+01  0.10520231134E+02  0.94298867634E+01  0.14673721523E+02  0.51100000000E-03 0.  1.
         12    1    3    3    0    0 -0.20073894538E+02  0.20115015762E+02 -0.10336665019E+02  0.30239407149E+02  0.00000000000E+00 0. -1.
</event>
<event>
 7    1  0.2903212E-011  0.5052886E+02  0.7816164E-02  0.1300439E+00
        -11   -1    0    0    0    0  0.00000000000E+00  0.00000000000E+00  0.45593999997E+02  0.45594000000E+02  0.51100000000E-03 0.  1.
         11   -1    0    0    0    0 -0.00000000000E+00 -0.00000000000E+00 -0.45593999997E+02  0.45594000000E+02  0.51100000000E-03 0. -1.
    9900012    2    1    2    0    0  0.33985342706E+02  0.21684917518E+02 -0.52845788763E+01  0.50528856619E+02  0.29999990178E+02 0.  0.
        -12    1    1    2    0    0 -0.33985342706E+02 -0.21684917518E+02  0.52845788763E+01  0.40659143381E+02  0.00000000000E+00 0.  1.
         11    1    3    3    0    0  0.10124037427E+02  0.35479812912E+01 -0.58215401145E+01  0.12205516565E+02  0.51100000000E-03 0. -1.
        -11    1    3    3    0    0  0.13242521765E+02  0.17973003401E+02 -0.89798636189E+01  0.24063066821E+02  0.51100000000E-03 0.  1.
        -12    1    3    3    0    0  0.10618783514E+02  0.16393282503E+00  0.95168248571E+01  0.14260273232E+02  0.00000000000E+00 0.  1.
</event>
<event>
 7    1  0.2903212E-011  0.5052886E+02  0.7816164E-02  0.1300439E+00
        -11   -1    0    0    0    0  0.00000000000E+00  0.00000000000E+00  0.45593999997E+02  0.45594000000E+02  0.51100000000E-03 0. -1.
         11   -1    0    0    0    0 -0.00000000000E+00 -0.00000000000E+00 -0.45593999997E+02  0.45594000000E+02  0.51100000000E-03 0.  1.
    9900012    2    1    2    0    0 -0.34189606917E+02 -0.23382486625E+01  0.21880786792E+02  0.50528862544E+02  0.30000008190E+02 0.  0.
        -12    1    1    2    0    0  0.34189606917E+02  0.23382486625E+01 -0.21880786792E+02  0.40659137456E+02  0.00000000000E+00 0.  1.
         11    1    3    3    0    0 -0.31308884226E+02  0.48330313457E+00  0.93134338827E+01  0.32668331215E+02  0.51100000000E-03 0.  1.
        -11    1    3    3    0    0 -0.70814830239E+01  0.74159672427E+00  0.62008639157E+01  0.94418261518E+01  0.51100000000E-03 0. -1.
        -12    1    3    3    0    0  0.42007603327E+01 -0.35631485213E+01  0.63664889941E+01  0.84187051778E+01  0.00000000000E+00 0.  1.
</event>
<event>
 7    1  0.2903212E-011  0.5052885E+02  0.7816164E-02  0.1300439E+00
        -11   -1    0    0    0    0  0.00000000000E+00  0.00000000000E+00  0.45593999997E+02  0.45594000000E+02  0.51100000000E-03 0.  1.
         11   -1    0    0    0    0 -0.00000000000E+00 -0.00000000000E+00 -0.45593999997E+02  0.45594000000E+02  0.51100000000E-03 0. -1.
    9900012    2    1    2    0    0  0.36403727675E+02  0.96416004204E+00 -0.18083284690E+02  0.50528853693E+02  0.29999981287E+02 0.  0.
        -12    1    1    2    0    0 -0.36403727675E+02 -0.96416004204E+00  0.18083284690E+02  0.40659146307E+02  0.00000000000E+00 0.  1.
         11    1    3    3    0    0  0.22172081846E+01  0.19129490835E+01 -0.45741484433E+01  0.54312264335E+01  0.51100000000E-03 0. -1.
        -11    1    3    3    0    0  0.10795972305E+02 -0.87883399102E+01 -0.14897442439E+02  0.20389255207E+02  0.51100000000E-03 0.  1.
        -12    1    3    3    0    0  0.23390547185E+02  0.78395508688E+01  0.13883061924E+01  0.24708372053E+02  0.00000000000E+00 0.  1.
</event>
<event>
 7    1  0.2903212E-011  0.5052887E+02  0.7816164E-02  0.1300439E+00
        -11   -1    0    0    0    0  0.00000000000E+00  0.00000000000E+00  0.45593999997E+02  0.45594000000E+02  0.51100000000E-03 0.  1.
         11   -1    0    0    0    0 -0.00000000000E+00 -0.00000000000E+00 -0.45593999997E+02  0.45594000000E+02  0.51100000000E-03 0. -1.
    9900012    2    1    2    0    0 -0.37351569979E+02  0.14369832353E+02 -0.71786478688E+01  0.50528870066E+02  0.30000031053E+02 0.  0.
        -12    1    1    2    0    0  0.37351569979E+02 -0.14369832353E+02  0.71786478688E+01  0.40659129934E+02  0.00000000000E+00 0.  1.
         11    1    3    3    0    0 -0.42510273111E+00  0.36317834835E+01  0.35243660571E+00  0.36735235708E+01  0.51100000000E-03 0. -1.
        -11    1    3    3    0    0 -0.12117310487E+02  0.49085400346E+01 -0.15383206721E+02  0.20188264611E+02  0.51100000000E-03 0.  1.
         12    1    3    3    0    0 -0.24809156761E+02  0.58295088351E+01  0.78521222469E+01  0.26667081884E+02  0.00000000000E+00 0. -1.
</event>
<event>
 7    1  0.2903212E-011  0.5052886E+02  0.7816164E-02  0.1300439E+00
        -11   -1    0    0    0    0  0.00000000000E+00  0.00000000000E+00  0.45593999997E+02  0.45594000000E+02  0.51100000000E-03 0. -1.
         11   -1    0    0    0    0 -0.00000000000E+00 -0.00000000000E+00 -0.45593999997E+02  0.45594000000E+02  0.51100000000E-03 0.  1.
    9900012    2    1    2    0    0  0.35695162474E+02  0.15987563161E+02  0.11109412672E+02  0.50528857734E+02  0.29999993568E+02 0.  0.
        -12    1    1    2    0    0 -0.35695162474E+02 -0.15987563161E+02 -0.11109412672E+02  0.40659142266E+02  0.00000000000E+00 0.  1.
         11    1    3    3    0    0  0.24765004013E+02  0.19341762406E+02  0.53588383591E+01  0.31876736745E+02  0.51100000000E-03 0. -1.
        -11    1    3    3    0    0  0.67390682824E+01  0.49704202111E+01  0.20263063960E+01  0.86154533404E+01  0.51100000000E-03 0.  1.
        -12    1    3    3    0    0  0.41910901790E+01 -0.83246194553E+01  0.37242679170E+01  0.10036667648E+02  0.00000000000E+00 0.  1.
</event>
<event>
 7    1  0.2903212E-011  0.5052885E+02  0.7816164E-02  0.1300439E+00
        -11   -1    0    0    0    0  0.00000000000E+00  0.00000000000E+00  0.45593999997E+02  0.45594000000E+02  0.51100000000E-03 0.  1.
         11   -1    0    0    0    0 -0.00000000000E+00 -0.00000000000E+00 -0.45593999997E+02  0.45594000000E+02  0.51100000000E-03 0. -1.
    9900012    2    1    2    0    0 -0.20915707037E+02 -0.19068511557E+02 -0.29190602449E+02  0.50528853363E+02  0.29999980283E+02 0.  0.
        -12    1    1    2    0    0  0.20915707037E+02  0.19068511557E+02  0.29190602449E+02  0.40659146637E+02  0.00000000000E+00 0.  1.
         11    1    3    3    0    0 -0.14103788547E+01 -0.13376821984E+02 -0.70661326769E+01  0.15194037191E+02  0.51100000000E-03 0. -1.
        -11    1    3    3    0    0  0.29278091067E+01 -0.27189041201E+01 -0.48606962380E+00  0.40250179776E+01  0.51100000000E-03 0.  1.
         12    1    3    3    0    0 -0.22433137289E+02 -0.29727854530E+01 -0.21638400149E+02  0.31309798195E+02  0.00000000000E+00 0. -1.
</event>
<event>
 7    1  0.2903212E-011  0.5052886E+02  0.7816164E-02  0.1300439E+00
        -11   -1    0    0    0    0  0.00000000000E+00  0.00000000000E+00  0.45593999997E+02  0.45594000000E+02  0.51100000000E-03 0.  1.
         11   -1    0    0    0    0 -0.00000000000E+00 -0.00000000000E+00 -0.45593999997E+02  0.45594000000E+02  0.51100000000E-03 0. -1.
    9900012    2    1    2    0    0 -0.16461661797E+02  0.13265676488E+02 -0.34730404614E+02  0.50528862202E+02  0.30000007150E+02 0.  0.
        -12    1    1    2    0    0  0.16461661797E+02 -0.13265676488E+02  0.34730404614E+02  0.40659137798E+02  0.00000000000E+00 0.  1.
         11    1    3    3    0    0  0.36906721872E+01  0.34207141241E+01  0.95302536852E+00  0.51215821702E+01  0.51100000000E-03 0.  1.
        -11    1    3    3    0    0 -0.21660507531E+01  0.74025891477E+01 -0.35260524758E+01  0.84807516341E+01  0.51100000000E-03 0. -1.
         12    1    3    3    0    0 -0.17986283231E+02  0.24423732158E+01 -0.32157377507E+02  0.36926528398E+02  0.00000000000E+00 0. -1.
</event>
<event>
 7    1  0.2903212E-011  0.5052886E+02  0.7816164E-02  0.1300439E+00
        -11   -1    0    0    0    0  0.00000000000E+00  0.00000000000E+00  0.45593999997E+02  0.45594000000E+02  0.51100000000E-03 0. -1.
         11   -1    0    0    0    0 -0.00000000000E+00 -0.00000000000E+00 -0.45593999997E+02  0.45594000000E+02  0.51100000000E-03 0.  1.
    9900012    2    1    2    0    0  0.36761984043E+02 -0.62835773642E+01  0.16193790803E+02  0.50528859874E+02  0.30000000072E+02 0.  0.
        -12    1    1    2    0    0 -0.36761984043E+02  0.62835773642E+01 -0.16193790803E+02  0.40659140126E+02  0.00000000000E+00 0.  1.
         11    1    3    3    0    0  0.20780985478E+02 -0.97355966112E+01  0.16171769416E+02  0.28074139793E+02  0.51100000000E-03 0. -1.
        -11    1    3    3    0    0  0.11946033407E+02  0.72292161175E+01  0.51817068449E+01  0.14893601510E+02  0.51100000000E-03 0.  1.
         12    1    3    3    0    0  0.40349651575E+01 -0.37771968704E+01 -0.51596854582E+01  0.75611185712E+01  0.00000000000E+00 0. -1.
</event>
<event>
 7    1  0.2903212E-011  0.5052884E+02  0.7816164E-02  0.1300439E+00
        -11   -1    0    0    0    0  0.00000000000E+00  0.00000000000E+00  0.45593999997E+02  0.45594000000E+02  0.51100000000E-03 0. -1.
         11   -1    0    0    0    0 -0.00000000000E+00 -0.00000000000E+00 -0.45593999997E+02  0.45594000000E+02  0.51100000000E-03 0.  1.
    9900012    2    1    2    0    0  0.37965723049E+02 -0.79021786010E+01  0.12219931996E+02  0.50528840008E+02  0.29999939688E+02 0.  0.
        -12    1    1    2    0    0 -0.37965723049E+02  0.79021786010E+01 -0.12219931996E+02  0.40659159992E+02  0.00000000000E+00 0.  1.
         11    1    3    3    0    0  0.19514375270E+02  0.33083790226E+01  0.29746970814E+01  0.20015120207E+02  0.51100000000E-03 0.  1.
        -11    1    3    3    0    0  0.12272225331E+02  0.34811663434E+01  0.16647437758E+01  0.12864579502E+02  0.51100000000E-03 0. -1.
        -12    1    3    3    0    0  0.61791224487E+01 -0.14691723967E+02  0.75804911387E+01  0.17649140298E+02  0.00000000000E+00 0.  1.
</event>
<event>
 7    1  0.2903212E-011  0.5052885E+02  0.7816164E-02  0.1300439E+00
        -11   -1    0    0    0    0  0.00000000000E+00  0.00000000000E+00  0.45593999997E+02  0.45594000000E+02  0.51100000000E-03 0.  1.
         11   -1    0    0    0    0 -0.00000000000E+00 -0.00000000000E+00 -0.45593999997E+02  0.45594000000E+02  0.51100000000E-03 0. -1.
    9900012    2    1    2    0    0 -0.13503117775E+02 -0.25481165804E+02 -0.28662558069E+02  0.50528852991E+02  0.29999979152E+02 0.  0.
        -12    1    1    2    0    0  0.13503117775E+02  0.25481165804E+02  0.28662558069E+02  0.40659147009E+02  0.00000000000E+00 0.  1.
         11    1    3    3    0    0  0.13204794482E+01 -0.46177687717E+01  0.23239843177E+01  0.53355747368E+01  0.51100000000E-03 0. -1.
        -11    1    3    3    0    0 -0.61073475951E+01 -0.17170057423E+02 -0.72043103684E+01  0.19596240831E+02  0.51100000000E-03 0.  1.
         12    1    3    3    0    0 -0.87162496281E+01 -0.36933396091E+01 -0.23782232019E+02  0.25597037423E+02  0.00000000000E+00 0. -1.
</event>
<event>
 7    1  0.2903212E-011  0.5052886E+02  0.7816164E-02  0.1300439E+00
        -11   -1    0    0    0    0  0.00000000000E+00  0.00000000000E+00  0.45593999997E+02  0.45594000000E+02  0.51100000000E-03 0.  1.
         11   -1    0    0    0    0 -0.00000000000E+00 -0.00000000000E+00 -0.45593999997E+02  0.45594000000E+02  0.51100000000E-03 0. -1.
    9900012    2    1    2    0    0 -0.38580953498E+02  0.77754283046E+01  0.10208733255E+02  0.50528862125E+02  0.30000006914E+02 0.  0.
        -12    1    1    2    0    0  0.38580953498E+02 -0.77754283046E+01 -0.10208733255E+02  0.40659137875E+02  0.00000000000E+00 0.  1.
         11    1    3    3    0    0 -0.33989350346E+01  0.11648708026E+01 -0.66296537448E+01  0.75406891192E+01  0.51100000000E-03 0. -1.
        -11    1    3    3    0    0 -0.97640249447E+01 -0.56922611594E+01  0.43336388225E+01  0.12104480407E+02  0.51100000000E-03 0.  1.
         12    1    3    3    0    0 -0.25417993518E+02  0.12302818661E+02  0.12504748177E+02  0.30883692598E+02  0.00000000000E+00 0. -1.
</event>
<event>
 7    1  0.2903212E-011  0.5052887E+02  0.7816164E-02  0.1300439E+00
        -11   -1    0    0    0    0  0.00000000000E+00  0.00000000000E+00  0.45593999997E+02  0.45594000000E+02  0.51100000000E-03 0. -1.
         11   -1    0    0    0    0 -0.00000000000E+00 -0.00000000000E+00 -0.45593999997E+02  0.45594000000E+02  0.51100000000E-03 0.  1.
    9900012    2    1    2    0    0 -0.81860976196E+01 -0.17569599674E+01  0.39787763069E+02  0.50528865816E+02  0.30000018133E+02 0.  0.
        -12    1    1    2    0    0  0.81860976196E+01  0.17569599674E+01 -0.39787763069E+02  0.40659134184E+02  0.00000000000E+00 0.  1.
         11    1    3    3    0    0  0.62225354975E+01  0.87081062806E+00  0.25418313429E+02  0.26183371001E+02  0.51100000000E-03 0. -1.
        -11    1    3    3    0    0  0.21489919964E+01 -0.21904123727E+01  0.18515662437E+01  0.35839044043E+01  0.51100000000E-03 0.  1.
         12    1    3    3    0    0 -0.16557625113E+02 -0.43735822270E+00  0.12517883397E+02  0.20761590410E+02  0.00000000000E+00 0. -1.
</event>
<event>
 7    1  0.2903212E-011  0.5052886E+02  0.7816164E-02  0.1300439E+00
        -11   -1    0    0    0    0  0.00000000000E+00  0.00000000000E+00  0.45593999997E+02  0.45594000000E+02  0.51100000000E-03 0.  1.
         11   -1    0    0    0    0 -0.00000000000E+00 -0.00000000000E+00 -0.45593999997E+02  0.45594000000E+02  0.51100000000E-03 0. -1.
    9900012    2    1    2    0    0  0.32479255406E+01 -0.32190389476E+02 -0.24625092628E+02  0.50528863489E+02  0.30000011060E+02 0.  0.
        -12    1    1    2    0    0 -0.32479255406E+01  0.32190389476E+02  0.24625092628E+02  0.40659136511E+02  0.00000000000E+00 0.  1.
         11    1    3    3    0    0 -0.61846534532E+01 -0.70849255788E+01 -0.35135575430E+01  0.10039481842E+02  0.51100000000E-03 0. -1.
        -11    1    3    3    0    0 -0.57515438822E+00 -0.79080630966E+01  0.36460551533E+01  0.87270833016E+01  0.51100000000E-03 0.  1.
         12    1    3    3    0    0  0.10007733382E+02 -0.17197400800E+02 -0.24757590238E+02  0.31762298345E+02  0.00000000000E+00 0. -1.
</event>
<event>
 7    1  0.2903212E-011  0.5052886E+02  0.7816164E-02  0.1300439E+00
        -11   -1    0    0    0    0  0.00000000000E+00  0.00000000000E+00  0.45593999997E+02  0.45594000000E+02  0.51100000000E-03 0. -1.
         11   -1    0    0    0    0 -0.00000000000E+00 -0.00000000000E+00 -0.45593999997E+02  0.45594000000E+02  0.51100000000E-03 0.  1.
    9900012    2    1    2    0    0 -0.27175142130E+02 -0.18566084023E+02 -0.23874207989E+02  0.50528860402E+02  0.30000001678E+02 0.  0.
        -12    1    1    2    0    0  0.27175142130E+02  0.18566084023E+02  0.23874207989E+02  0.40659139598E+02  0.00000000000E+00 0.  1.
         11    1    3    3    0    0 -0.28301468183E+01 -0.64720299729E+01 -0.59782870132E+01  0.92540163635E+01  0.51100000000E-03 0.  1.
        -11    1    3    3    0    0 -0.32931308386E+01 -0.14960402862E+02 -0.38157578271E+01  0.15786651721E+02  0.51100000000E-03 0. -1.
        -12    1    3    3    0    0 -0.21051864473E+02  0.28663488114E+01 -0.14080163149E+02  0.25488192317E+02  0.00000000000E+00 0.  1.
</event>
<event>
 7    1  0.2903212E-011  0.5052886E+02  0.7816164E-02  0.1300439E+00
        -11   -1    0    0    0    0  0.00000000000E+00  0.00000000000E+00  0.45593999997E+02  0.45594000000E+02  0.51100000000E-03 0.  1.
         11   -1    0    0    0    0 -0.00000000000E+00 -0.00000000000E+00 -0.45593999997E+02  0.45594000000E+02  0.51100000000E-03 0. -1.
    9900012    2    1    2    0    0  0.53577021513E+01 -0.17018793173E+02 -0.36535211010E+02  0.50528856662E+02  0.29999990310E+02 0.  0.
        -12    1    1    2    0    0 -0.53577021513E+01  0.17018793173E+02  0.36535211010E+02  0.40659143338E+02  0.00000000000E+00 0.  1.
         11    1    3    3    0    0  0.76182619223E+00 -0.19728921863E+01  0.43060469224E+00  0.21582639755E+01  0.51100000000E-03 0. -1.
        -11    1    3    3    0    0  0.58799093267E+01 -0.10018482339E+02 -0.59523961783E+00  0.11631751052E+02  0.51100000000E-03 0.  1.
         12    1    3    3    0    0 -0.12840333677E+01 -0.50274186482E+01 -0.36370576085E+02  0.36738841635E+02  0.00000000000E+00 0. -1.
</event>
<event>
 7    1  0.2903212E-011  0.5052886E+02  0.7816164E-02  0.1300439E+00
        -11   -1    0    0    0    0  0.00000000000E+00  0.00000000000E+00  0.45593999997E+02  0.45594000000E+02  0.51100000000E-03 0.  1.
         11   -1    0    0    0    0 -0.00000000000E+00 -0.00000000000E+00 -0.45593999997E+02  0.45594000000E+02  0.51100000000E-03 0. -1.
    9900012    2    1    2    0    0 -0.83733245548E+01  0.10943259633E+02 -0.38253083990E+02  0.50528856744E+02  0.29999990560E+02 0.  0.
        -12    1    1    2    0    0  0.83733245548E+01 -0.10943259633E+02  0.38253083990E+02  0.40659143256E+02  0.00000000000E+00 0.  1.
         11    1    3    3    0    0 -0.10465188193E+01 -0.73982612637E+00 -0.12856295520E+02  0.12920018541E+02  0.51100000000E-03 0. -1.
        -11    1    3    3    0    0  0.15228957677E+01  0.12624712203E+02 -0.25732306483E+02  0.28702859908E+02  0.51100000000E-03 0.  1.
        -12    1    3    3    0    0 -0.88497015032E+01 -0.94162644363E+00  0.33551801260E+00  0.89059782951E+01  0.00000000000E+00 0.  1.
</event>
<event>
 7    1  0.2903212E-011  0.5052884E+02  0.7816164E-02  0.1300439E+00
        -11   -1    0    0    0    0  0.00000000000E+00  0.00000000000E+00  0.45593999997E+02  0.45594000000E+02  0.51100000000E-03 0.  1.
         11   -1    0    0    0    0 -0.00000000000E+00 -0.00000000000E+00 -0.45593999997E+02  0.45594000000E+02  0.51100000000E-03 0. -1.
    9900012    2    1    2    0    0 -0.90003602629E+01  0.34765394152E+02 -0.19066425175E+02  0.50528835174E+02  0.29999924996E+02 0.  0.
        -12    1    1    2    0    0  0.90003602629E+01 -0.34765394152E+02  0.19066425175E+02  0.40659164826E+02  0.00000000000E+00 0.  1.
         11    1    3    3    0    0 -0.12893270899E+02  0.23864665974E+02 -0.16841225108E+02  0.31927818277E+02  0.51100000000E-03 0. -1.
        -11    1    3    3    0    0 -0.20003560721E+01  0.81064989319E+01 -0.66881916043E+01  0.10698067888E+02  0.51100000000E-03 0.  1.
        -12    1    3    3    0    0  0.58932667083E+01  0.27942292453E+01  0.44629915376E+01  0.79029490088E+01  0.00000000000E+00 0.  1.
</event>
<event>
 7    1  0.2903212E-011  0.5052880E+02  0.7816164E-02  0.1300439E+00
        -11   -1    0    0    0    0  0.00000000000E+00  0.00000000000E+00  0.45593999997E+02  0.45594000000E+02  0.51100000000E-03 0.  1.
         11   -1    0    0    0    0 -0.00000000000E+00 -0.00000000000E+00 -0.45593999997E+02  0.45594000000E+02  0.51100000000E-03 0. -1.
    9900012    2    1    2    0    0 -0.20984715042E+02 -0.25871497066E+02 -0.23312621035E+02  0.50528795318E+02  0.29999803849E+02 0.  0.
        -12    1    1    2    0    0  0.20984715042E+02  0.25871497066E+02  0.23312621035E+02  0.40659204682E+02  0.00000000000E+00 0.  1.
         11    1    3    3    0    0  0.13988705599E+01  0.19869024565E+01  0.24083976458E+01  0.34212570345E+01  0.51100000000E-03 0. -1.
        -11    1    3    3    0    0 -0.49469816831E+01 -0.38691892307E+01  0.19195727815E+01  0.65671921702E+01  0.51100000000E-03 0.  1.
         12    1    3    3    0    0 -0.17436603919E+02 -0.23989210292E+02 -0.27640591462E+02  0.40540346114E+02  0.00000000000E+00 0. -1.
</event>
<event>
 7    1  0.2903212E-011  0.5052886E+02  0.7816164E-02  0.1300439E+00
        -11   -1    0    0    0    0  0.00000000000E+00  0.00000000000E+00  0.45593999997E+02  0.45594000000E+02  0.51100000000E-03 0.  1.
         11   -1    0    0    0    0 -0.00000000000E+00 -0.00000000000E+00 -0.45593999997E+02  0.45594000000E+02  0.51100000000E-03 0. -1.
    9900012    2    1    2    0    0  0.21593403328E+02 -0.44480813131E+01 -0.34162918274E+02  0.50528862286E+02  0.30000007406E+02 0.  0.
        -12    1    1    2    0    0 -0.21593403328E+02  0.44480813131E+01  0.34162918274E+02  0.40659137714E+02  0.00000000000E+00 0.  1.
         11    1    3    3    0    0  0.18079331659E+02  0.11805729827E+00 -0.31110941194E+02  0.35982868605E+02  0.51100000000E-03 0. -1.
        -11    1    3    3    0    0  0.73140470596E+01 -0.45752970435E+00  0.13174534414E+01  0.74458244441E+01  0.51100000000E-03 0.  1.
        -12    1    3    3    0    0 -0.37999753912E+01 -0.41086089070E+01 -0.43694305211E+01  0.71001692377E+01  0.00000000000E+00 0.  1.
</event>
<event>
 7    1  0.2903212E-011  0.5052886E+02  0.7816164E-02  0.1300439E+00
        -11   -1    0    0    0    0  0.00000000000E+00  0.00000000000E+00  0.45593999997E+02  0.45594000000E+02  0.51100000000E-03 0.  1.
         11   -1    0    0    0    0 -0.00000000000E+00 -0.00000000000E+00 -0.45593999997E+02  0.45594000000E+02  0.51100000000E-03 0. -1.
    9900012    2    1    2    0    0  0.29421541653E+02 -0.17706708528E+02 -0.21771792105E+02  0.50528861156E+02  0.30000003968E+02 0.  0.
        -12    1    1    2    0    0 -0.29421541653E+02  0.17706708528E+02  0.21771792105E+02  0.40659138844E+02  0.00000000000E+00 0.  1.
         11    1    3    3    0    0  0.72020034460E+01  0.40702151208E+01 -0.80105861538E+01  0.11515424245E+02  0.51100000000E-03 0. -1.
        -11    1    3    3    0    0 -0.12815620463E+01  0.15464224122E+01 -0.40302650686E+01  0.45029834932E+01  0.51100000000E-03 0.  1.
        -12    1    3    3    0    0  0.23501100253E+02 -0.23323346061E+02 -0.97309408824E+01  0.34510453417E+02  0.00000000000E+00 0.  1.
</event>
<event>
 7    1  0.2903212E-011  0.5052886E+02  0.7816164E-02  0.1300439E+00
        -11   -1    0    0    0    0  0.00000000000E+00  0.00000000000E+00  0.45593999997E+02  0.45594000000E+02  0.51100000000E-03 0. -1.
         11   -1    0    0    0    0 -0.00000000000E+00 -0.00000000000E+00 -0.45593999997E+02  0.45594000000E+02  0.51100000000E-03 0.  1.
    9900012    2    1    2    0    0  0.21088188567E+02  0.27590922078E+02  0.21146985553E+02  0.50528859870E+02  0.30000000060E+02 0.  0.
        -12    1    1    2    0    0 -0.21088188567E+02 -0.27590922078E+02 -0.21146985553E+02  0.40659140130E+02  0.00000000000E+00 0.  1.
         11    1    3    3    0    0 -0.37188143121E+01 -0.60162969834E+00  0.50420620824E+01  0.62939596826E+01  0.51100000000E-03 0.  1.
        -11    1    3    3    0    0  0.15229665674E+02  0.76123903119E+01  0.12789222182E+02  0.21294492412E+02  0.51100000000E-03 0. -1.
        -12    1    3    3    0    0  0.95773372052E+01  0.20580161465E+02  0.33157012885E+01  0.22940407775E+02  0.00000000000E+00 0.  1.
</event>
<event>
 7    1  0.2903212E-011  0.5052887E+02  0.7816164E-02  0.1300439E+00
        -11   -1    0    0    0    0  0.00000000000E+00  0.00000000000E+00  0.45593999997E+02  0.45594000000E+02  0.51100000000E-03 0.  1.
         11   -1    0    0    0    0 -0.00000000000E+00 -0.00000000000E+00 -0.45593999997E+02  0.45594000000E+02  0.51100000000E-03 0. -1.
    9900012    2    1    2    0    0  0.35960114129E+02  0.66447107626E+01 -0.17773095813E+02  0.50528869118E+02  0.30000028172E+02 0.  0.
        -12    1    1    2    0    0 -0.35960114129E+02 -0.66447107626E+01  0.17773095813E+02  0.40659130882E+02  0.00000000000E+00 0.  1.
         11    1    3    3    0    0  0.13359591276E+02 -0.71855617186E+01 -0.66031317336E+01  0.16544253541E+02  0.51100000000E-03 0. -1.
        -11    1    3    3    0    0  0.65824417748E+01 -0.20675292514E+01 -0.89599349936E+01  0.11308565438E+02  0.51100000000E-03 0.  1.
        -12    1    3    3    0    0  0.16018081078E+02  0.15897801733E+02 -0.22100290855E+01  0.22676050139E+02  0.00000000000E+00 0.  1.
</event>
<event>
 7    1  0.2903212E-011  0.5052885E+02  0.7816164E-02  0.1300439E+00
        -11   -1    0    0    0    0  0.00000000000E+00  0.00000000000E+00  0.45593999997E+02  0.45594000000E+02  0.51100000000E-03 0. -1.
         11   -1    0    0    0    0 -0.00000000000E+00 -0.00000000000E+00 -0.45593999997E+02  0.45594000000E+02  0.51100000000E-03 0.  1.
    9900012    2    1    2    0    0  0.23512167362E+02  0.27759804551E+02  0.18158671105E+02  0.50528854669E+02  0.29999984251E+02 0.  0.
        -12    1    1    2    0    0 -0.23512167362E+02 -0.27759804551E+02 -0.18158671105E+02  0.40659145331E+02  0.00000000000E+00 0.  1.
         11    1    3    3    0    0  0.24403855592E+01  0.18532558316E+02  0.16352556105E+02  0.24835806627E+02  0.51100000000E-03 0. -1.
        -11    1    3    3    0    0  0.74175896822E+01  0.90196927815E+01 -0.11059190260E+01  0.11730240906E+02  0.51100000000E-03 0.  1.
        -12    1    3    3    0    0  0.13654192121E+02  0.20755345281E+00  0.29120340266E+01  0.13962807135E+02  0.00000000000E+00 0.  1.
</event>
<event>
 7    1  0.2903212E-011  0.5052885E+02  0.7816164E-02  0.1300439E+00
        -11   -1    0    0    0    0  0.00000000000E+00  0.00000000000E+00  0.45593999997E+02  0.45594000000E+02  0.51100000000E-03 0. -1.
         11   -1    0    0    0    0 -0.00000000000E+00 -0.00000000000E+00 -0.45593999997E+02  0.45594000000E+02  0.51100000000E-03 0.  1.
    9900012    2    1    2    0    0 -0.15171928051E+02 -0.22441608525E+02  0.30320834754E+02  0.50528853254E+02  0.29999979949E+02 0.  0.
        -12    1    1    2    0    0  0.15171928051E+02  0.22441608525E+02 -0.30320834754E+02  0.40659146746E+02  0.00000000000E+00 0.  1.
         11    1    3    3    0    0 -0.42632298220E+01  0.46112696034E+01  0.64858302764E+01  0.90280081140E+01  0.51100000000E-03 0. -1.
        -11    1    3    3    0    0  0.13252353269E+01  0.15713647270E+00 -0.17486670464E+01  0.21997220831E+01  0.51100000000E-03 0.  1.
        -12    1    3    3    0    0 -0.12233933556E+02 -0.27210014601E+02  0.25583671524E+02  0.39301123056E+02  0.00000000000E+00 0.  1.
</event>
<event>
 7    1  0.2903212E-011  0.5052886E+02  0.7816164E-02  0.1300439E+00
        -11   -1    0    0    0    0  0.00000000000E+00  0.00000000000E+00  0.45593999997E+02  0.45594000000E+02  0.51100000000E-03 0. -1.
         11   -1    0    0    0    0 -0.00000000000E+00 -0.00000000000E+00 -0.45593999997E+02  0.45594000000E+02  0.51100000000E-03 0.  1.
    9900012    2    1    2    0    0 -0.37344729933E+02  0.15658236385E+02  0.36546810862E+01  0.50528856941E+02  0.29999991157E+02 0.  0.
        -12    1    1    2    0    0  0.37344729933E+02 -0.15658236385E+02 -0.36546810862E+01  0.40659143059E+02  0.00000000000E+00 0.  1.
         11    1    3    3    0    0 -0.17962999121E+02  0.73005057006E+01 -0.16976899873E+01  0.19464040497E+02  0.51100000000E-03 0. -1.
        -11    1    3    3    0    0 -0.15242746206E+02  0.15583335941E+02  0.13896794681E+01  0.21842913731E+02  0.51100000000E-03 0.  1.
         12    1    3    3    0    0 -0.41389846061E+01 -0.72256052565E+01  0.39626916053E+01  0.92219027132E+01  0.00000000000E+00 0. -1.
</event>
<event>
 7    1  0.2903212E-011  0.5052883E+02  0.7816164E-02  0.1300439E+00
        -11   -1    0    0    0    0  0.00000000000E+00  0.00000000000E+00  0.45593999997E+02  0.45594000000E+02  0.51100000000E-03 0.  1.
         11   -1    0    0    0    0 -0.00000000000E+00 -0.00000000000E+00 -0.45593999997E+02  0.45594000000E+02  0.51100000000E-03 0. -1.
    9900012    2    1    2    0    0 -0.42096999552E+01  0.34646492855E+02 -0.20858256055E+02  0.50528832688E+02  0.29999917438E+02 0.  0.
        -12    1    1    2    0    0  0.42096999552E+01 -0.34646492855E+02  0.20858256055E+02  0.40659167312E+02  0.00000000000E+00 0.  1.
         11    1    3    3    0    0 -0.45285172387E+01 -0.53901016025E+00  0.24067946670E+01  0.51566133426E+01  0.51100000000E-03 0. -1.
        -11    1    3    3    0    0  0.81097509427E+01  0.11925423344E+02 -0.88174320824E+01  0.16903576281E+02  0.51100000000E-03 0.  1.
         12    1    3    3    0    0 -0.77909336592E+01  0.23260079671E+02 -0.14447618639E+02  0.28468643065E+02  0.00000000000E+00 0. -1.
</event>
<event>
 7    1  0.2903212E-011  0.5052890E+02  0.7816164E-02  0.1300439E+00
        -11   -1    0    0    0    0  0.00000000000E+00  0.00000000000E+00  0.45593999997E+02  0.45594000000E+02  0.51100000000E-03 0.  1.
         11   -1    0    0    0    0 -0.00000000000E+00 -0.00000000000E+00 -0.45593999997E+02  0.45594000000E+02  0.51100000000E-03 0. -1.
    9900012    2    1    2    0    0  0.13011271029E+02  0.16792719807E+02 -0.34668053436E+02  0.50528898419E+02  0.30000117235E+02 0.  0.
        -12    1    1    2    0    0 -0.13011271029E+02 -0.16792719807E+02  0.34668053436E+02  0.40659101581E+02  0.00000000000E+00 0.  1.
         11    1    3    3    0    0 -0.38851088099E+01  0.53380097669E+01  0.70631621310E+00  0.66398269247E+01  0.51100000000E-03 0. -1.
        -11    1    3    3    0    0  0.54907916789E+01  0.62681792767E+01 -0.24876350607E+01  0.86963896625E+01  0.51100000000E-03 0.  1.
         12    1    3    3    0    0  0.11405588160E+02  0.51865307633E+01 -0.32886734589E+02  0.35192681832E+02  0.00000000000E+00 0. -1.
</event>
<event>
 7    1  0.2903212E-011  0.5052887E+02  0.7816164E-02  0.1300439E+00
        -11   -1    0    0    0    0  0.00000000000E+00  0.00000000000E+00  0.45593999997E+02  0.45594000000E+02  0.51100000000E-03 0.  1.
         11   -1    0    0    0    0 -0.00000000000E+00 -0.00000000000E+00 -0.45593999997E+02  0.45594000000E+02  0.51100000000E-03 0. -1.
    9900012    2    1    2    0    0 -0.34587480052E+02  0.11404132832E+02 -0.18078072651E+02  0.50528871470E+02  0.30000035321E+02 0.  0.
        -12    1    1    2    0    0  0.34587480052E+02 -0.11404132832E+02  0.18078072651E+02  0.40659128530E+02  0.00000000000E+00 0.  1.
         11    1    3    3    0    0 -0.22180898128E+02  0.53505301522E+01 -0.19888025154E+02  0.30268035276E+02  0.51100000000E-03 0. -1.
        -11    1    3    3    0    0 -0.12537859468E+02  0.10785861645E+01 -0.34207826867E+01  0.13040821393E+02  0.51100000000E-03 0.  1.
         12    1    3    3    0    0  0.13127754342E+00  0.49750165149E+01  0.52307351894E+01  0.72200148018E+01  0.00000000000E+00 0. -1.
</event>
<event>
 7    1  0.2903212E-011  0.5052886E+02  0.7816164E-02  0.1300439E+00
        -11   -1    0    0    0    0  0.00000000000E+00  0.00000000000E+00  0.45593999997E+02  0.45594000000E+02  0.51100000000E-03 0.  1.
         11   -1    0    0    0    0 -0.00000000000E+00 -0.00000000000E+00 -0.45593999997E+02  0.45594000000E+02  0.51100000000E-03 0. -1.
    9900012    2    1    2    0    0 -0.21229230055E+02  0.31389363505E+02 -0.14737473026E+02  0.50528862513E+02  0.30000008094E+02 0.  0.
        -12    1    1    2    0    0  0.21229230055E+02 -0.31389363505E+02  0.14737473026E+02  0.40659137487E+02  0.00000000000E+00 0.  1.
         11    1    3    3    0    0 -0.22268446097E+01  0.27368187955E+01  0.15779055809E+00  0.35318426007E+01  0.51100000000E-03 0. -1.
        -11    1    3    3    0    0  0.65285771834E+01  0.97923244032E+01  0.37090994045E+00  0.11774952726E+02  0.51100000000E-03 0.  1.
         12    1    3    3    0    0 -0.25530962629E+02  0.18860220306E+02 -0.15266173525E+02  0.35222067186E+02  0.00000000000E+00 0. -1.
</event>
<event>
 7    1  0.2903212E-011  0.5052886E+02  0.7816164E-02  0.1300439E+00
        -11   -1    0    0    0    0  0.00000000000E+00  0.00000000000E+00  0.45593999997E+02  0.45594000000E+02  0.51100000000E-03 0.  1.
         11   -1    0    0    0    0 -0.00000000000E+00 -0.00000000000E+00 -0.45593999997E+02  0.45594000000E+02  0.51100000000E-03 0. -1.
    9900012    2    1    2    0    0 -0.37137763194E+02  0.16334465832E+02  0.26715872356E+01  0.50528860715E+02  0.30000002629E+02 0.  0.
        -12    1    1    2    0    0  0.37137763194E+02 -0.16334465832E+02 -0.26715872356E+01  0.40659139285E+02  0.00000000000E+00 0.  1.
         11    1    3    3    0    0 -0.29578798561E+01 -0.96399905117E+00 -0.24275437915E+01  0.39460507516E+01  0.51100000000E-03 0. -1.
        -11    1    3    3    0    0 -0.46505781931E+01 -0.53692425497E+01  0.60703298581E+01  0.93437437858E+01  0.51100000000E-03 0.  1.
         12    1    3    3    0    0 -0.29529305144E+02  0.22667707433E+02 -0.97119883105E+00  0.37239066177E+02  0.00000000000E+00 0. -1.
</event>
<event>
 7    1  0.2903212E-011  0.5052886E+02  0.7816164E-02  0.1300439E+00
        -11   -1    0    0    0    0  0.00000000000E+00  0.00000000000E+00  0.45593999997E+02  0.45594000000E+02  0.51100000000E-03 0.  1.
         11   -1    0    0    0    0 -0.00000000000E+00 -0.00000000000E+00 -0.45593999997E+02  0.45594000000E+02  0.51100000000E-03 0. -1.
    9900012    2    1    2    0    0  0.74027953710E+01  0.93368843838E+01 -0.38873986347E+02  0.50528860759E+02  0.30000002763E+02 0.  0.
        -12    1    1    2    0    0 -0.74027953710E+01 -0.93368843838E+01  0.38873986347E+02  0.40659139241E+02  0.00000000000E+00 0.  1.
         11    1    3    3    0    0 -0.40899229909E+01  0.16481983164E+01 -0.26972147838E+02  0.27330217471E+02  0.51100000000E-03 0. -1.
        -11    1    3    3    0    0  0.55709507360E+01 -0.34069892109E+01 -0.73288376258E+01  0.98160546449E+01  0.51100000000E-03 0.  1.
         12    1    3    3    0    0  0.59217676260E+01  0.11095675278E+02 -0.45730008831E+01  0.13382588643E+02  0.00000000000E+00 0. -1.
</event>
<event>
 7    1  0.2903212E-011  0.5052886E+02  0.7816164E-02  0.1300439E+00
        -11   -1    0    0    0    0  0.00000000000E+00  0.00000000000E+00  0.45593999997E+02  0.45594000000E+02  0.51100000000E-03 0.  1.
         11   -1    0    0    0    0 -0.00000000000E+00 -0.00000000000E+00 -0.45593999997E+02  0.45594000000E+02  0.51100000000E-03 0. -1.
    9900012    2    1    2    0    0 -0.15371552008E+02  0.44134889718E+01 -0.37381845986E+02  0.50528857051E+02  0.29999991492E+02 0.  0.
        -12    1    1    2    0    0  0.15371552008E+02 -0.44134889718E+01  0.37381845986E+02  0.40659142949E+02  0.00000000000E+00 0.  1.
         11    1    3    3    0    0  0.43665956072E-01  0.68030221212E+00  0.19716146616E+01  0.20861405635E+01  0.51100000000E-03 0.  1.
        -11    1    3    3    0    0  0.91544699141E+00 -0.21284401200E+01 -0.27105868068E+02  0.27204712543E+02  0.51100000000E-03 0. -1.
         12    1    3    3    0    0 -0.16330664955E+02  0.58616268797E+01 -0.12247592580E+02  0.21238003945E+02  0.00000000000E+00 0. -1.
</event>
<event>
 7    1  0.2903212E-011  0.5052886E+02  0.7816164E-02  0.1300439E+00
        -11   -1    0    0    0    0  0.00000000000E+00  0.00000000000E+00  0.45593999997E+02  0.45594000000E+02  0.51100000000E-03 0.  1.
         11   -1    0    0    0    0 -0.00000000000E+00 -0.00000000000E+00 -0.45593999997E+02  0.45594000000E+02  0.51100000000E-03 0. -1.
    9900012    2    1    2    0    0 -0.36466859513E+01  0.12467909910E+02 -0.38528154434E+02  0.50528858592E+02  0.29999996177E+02 0.  0.
        -12    1    1    2    0    0  0.36466859513E+01 -0.12467909910E+02  0.38528154434E+02  0.40659141408E+02  0.00000000000E+00 0.  1.
         11    1    3    3    0    0 -0.42114451132E+00 -0.27260046213E+00  0.19911920889E+01  0.20534166424E+01  0.51100000000E-03 0. -1.
        -11    1    3    3    0    0 -0.51037662546E+01  0.26524580089E+01  0.88404446162E+00  0.58194070438E+01  0.51100000000E-03 0.  1.
         12    1    3    3    0    0  0.18782248146E+01  0.10088052363E+02 -0.41403390984E+02  0.42656034906E+02  0.00000000000E+00 0. -1.
</event>
<event>
 7    1  0.2903212E-011  0.5052887E+02  0.7816164E-02  0.1300439E+00
        -11   -1    0    0    0    0  0.00000000000E+00  0.00000000000E+00  0.45593999997E+02  0.45594000000E+02  0.51100000000E-03 0. -1.
         11   -1    0    0    0    0 -0.00000000000E+00 -0.00000000000E+00 -0.45593999997E+02  0.45594000000E+02  0.51100000000E-03 0.  1.
    9900012    2    1    2    0    0  0.11590207965E+02  0.29485333343E+02  0.25484254787E+02  0.50528867630E+02  0.30000023649E+02 0.  0.
        -12    1    1    2    0    0 -0.11590207965E+02 -0.29485333343E+02 -0.25484254787E+02  0.40659132370E+02  0.00000000000E+00 0.  1.
         11    1    3    3    0    0  0.16547199522E+02  0.18547787539E+02  0.10361806595E+02  0.26929487014E+02  0.51100000000E-03 0. -1.
        -11    1    3    3    0    0 -0.13682745442E+01  0.62691813483E+01 -0.94589805106E+00  0.64861030974E+01  0.51100000000E-03 0.  1.
         12    1    3    3    0    0 -0.35887170129E+01  0.46683644552E+01  0.16068346242E+02  0.17113277519E+02  0.00000000000E+00 0. -1.
</event>
<event>
 7    1  0.2903212E-011  0.5052886E+02  0.7816164E-02  0.1300439E+00
        -11   -1    0    0    0    0  0.00000000000E+00  0.00000000000E+00  0.45593999997E+02  0.45594000000E+02  0.51100000000E-03 0.  1.
         11   -1    0    0    0    0 -0.00000000000E+00 -0.00000000000E+00 -0.45593999997E+02  0.45594000000E+02  0.51100000000E-03 0. -1.
    9900012    2    1    2    0    0 -0.36592155079E+02  0.15847917354E+02 -0.79387481243E+01  0.50528855647E+02  0.29999987224E+02 0.  0.
        -12    1    1    2    0    0  0.36592155079E+02 -0.15847917354E+02  0.79387481243E+01  0.40659144353E+02  0.00000000000E+00 0.  1.
         11    1    3    3    0    0 -0.65914380151E+01 -0.25899005498E+01 -0.69060483000E+01  0.98918220439E+01  0.51100000000E-03 0. -1.
        -11    1    3    3    0    0 -0.16148048972E+02 -0.59382792719E-01 -0.55789576170E+01  0.17084723594E+02  0.51100000000E-03 0.  1.
        -12    1    3    3    0    0 -0.13852668092E+02  0.18497200696E+02  0.45462577927E+01  0.23552310009E+02  0.00000000000E+00 0.  1.
</event>
<event>
 7    1  0.2903212E-011  0.5052886E+02  0.7816164E-02  0.1300439E+00
        -11   -1    0    0    0    0  0.00000000000E+00  0.00000000000E+00  0.45593999997E+02  0.45594000000E+02  0.51100000000E-03 0.  1.
         11   -1    0    0    0    0 -0.00000000000E+00 -0.00000000000E+00 -0.45593999997E+02  0.45594000000E+02  0.51100000000E-03 0. -1.
    9900012    2    1    2    0    0 -0.33065742039E+02  0.22130801772E+02 -0.83695771615E+01  0.50528861968E+02  0.30000006438E+02 0.  0.
        -12    1    1    2    0    0  0.33065742039E+02 -0.22130801772E+02  0.83695771615E+01  0.40659138032E+02  0.00000000000E+00 0.  1.
         11    1    3    3    0    0 -0.68474257043E+01  0.11480929497E+02 -0.45308685975E+01  0.14114806105E+02  0.51100000000E-03 0. -1.
        -11    1    3    3    0    0 -0.13748565977E+02  0.10071047054E+02  0.83403090418E+01  0.18973924485E+02  0.51100000000E-03 0.  1.
        -12    1    3    3    0    0 -0.12469750358E+02  0.57882522046E+00 -0.12179017606E+02  0.17440131377E+02  0.00000000000E+00 0.  1.
</event>
<event>
 7    1  0.2903212E-011  0.5052885E+02  0.7816164E-02  0.1300439E+00
        -11   -1    0    0    0    0  0.00000000000E+00  0.00000000000E+00  0.45593999997E+02  0.45594000000E+02  0.51100000000E-03 0. -1.
         11   -1    0    0    0    0 -0.00000000000E+00 -0.00000000000E+00 -0.45593999997E+02  0.45594000000E+02  0.51100000000E-03 0.  1.
    9900012    2    1    2    0    0 -0.43263333532E+01  0.13901301502E+02  0.37963177327E+02  0.50528853717E+02  0.29999981358E+02 0.  0.
        -12    1    1    2    0    0  0.43263333532E+01 -0.13901301502E+02 -0.37963177327E+02  0.40659146283E+02  0.00000000000E+00 0.  1.
         11    1    3    3    0    0 -0.22156303796E+01  0.27515745276E+00 -0.48182417680E+00  0.22840499998E+01  0.51100000000E-03 0. -1.
        -11    1    3    3    0    0 -0.45384369249E+01 -0.49946558981E+01  0.16690428604E+01  0.69519566737E+01  0.51100000000E-03 0.  1.
         12    1    3    3    0    0  0.24277339513E+01  0.18620799948E+02  0.36775958643E+02  0.41292847043E+02  0.00000000000E+00 0. -1.
</event>
<event>
 7    1  0.2903212E-011  0.5052888E+02  0.7816164E-02  0.1300439E+00
        -11   -1    0    0    0    0  0.00000000000E+00  0.00000000000E+00  0.45593999997E+02  0.45594000000E+02  0.51100000000E-03 0.  1.
         11   -1    0    0    0    0 -0.00000000000E+00 -0.00000000000E+00 -0.45593999997E+02  0.45594000000E+02  0.51100000000E-03 0. -1.
    9900012    2    1    2    0    0  0.27494246969E+02 -0.39335229273E+01 -0.29694411260E+02  0.50528877050E+02  0.30000052281E+02 0.  0.
        -12    1    1    2    0    0 -0.27494246969E+02  0.39335229273E+01  0.29694411260E+02  0.40659122950E+02  0.00000000000E+00 0.  1.
         11    1    3    3    0    0  0.54777112842E+01 -0.74204264846E+01 -0.51700108260E+00  0.92377129479E+01  0.51100000000E-03 0. -1.
        -11    1    3    3    0    0 -0.23560727464E+01 -0.19411430899E+01 -0.22853357550E+00  0.30612649572E+01  0.51100000000E-03 0.  1.
         12    1    3    3    0    0  0.24372608431E+02  0.54280466472E+01 -0.28948876602E+02  0.38229899145E+02  0.00000000000E+00 0. -1.
</event>
<event>
 7    1  0.2903212E-011  0.5052886E+02  0.7816164E-02  0.1300439E+00
        -11   -1    0    0    0    0  0.00000000000E+00  0.00000000000E+00  0.45593999997E+02  0.45594000000E+02  0.51100000000E-03 0.  1.
         11   -1    0    0    0    0 -0.00000000000E+00 -0.00000000000E+00 -0.45593999997E+02  0.45594000000E+02  0.51100000000E-03 0. -1.
    9900012    2    1    2    0    0  0.29355756582E+00 -0.39617011173E+02 -0.91417604436E+01  0.50528861614E+02  0.30000005361E+02 0.  0.
        -12    1    1    2    0    0 -0.29355756582E+00  0.39617011173E+02  0.91417604436E+01  0.40659138386E+02  0.00000000000E+00 0.  1.
         11    1    3    3    0    0  0.20531128038E+00 -0.18636199754E+01  0.68758346425E+01  0.71268740993E+01  0.51100000000E-03 0. -1.
        -11    1    3    3    0    0 -0.17182321907E+01 -0.13625394103E+01  0.18056246272E+01  0.28406189574E+01  0.51100000000E-03 0.  1.
         12    1    3    3    0    0  0.18064784761E+01 -0.36390851787E+02 -0.17823219713E+02  0.40561368557E+02  0.00000000000E+00 0. -1.
</event>
<event>
 7    1  0.2903212E-011  0.5052886E+02  0.7816164E-02  0.1300439E+00
        -11   -1    0    0    0    0  0.00000000000E+00  0.00000000000E+00  0.45593999997E+02  0.45594000000E+02  0.51100000000E-03 0. -1.
         11   -1    0    0    0    0 -0.00000000000E+00 -0.00000000000E+00 -0.45593999997E+02  0.45594000000E+02  0.51100000000E-03 0.  1.
    9900012    2    1    2    0    0 -0.27772697551E+02  0.28260368812E+02  0.91210829022E+01  0.50528864151E+02  0.30000013075E+02 0.  0.
        -12    1    1    2    0    0  0.27772697551E+02 -0.28260368812E+02 -0.91210829022E+01  0.40659135849E+02  0.00000000000E+00 0.  1.
         11    1    3    3    0    0 -0.24112699003E+02  0.10073763563E+02 -0.43427834943E+01  0.26490804712E+02  0.51100000000E-03 0. -1.
        -11    1    3    3    0    0 -0.16217605673E+01  0.51895312350E-01  0.15533306459E+01  0.22462495003E+01  0.51100000000E-03 0.  1.
        -12    1    3    3    0    0 -0.20382379803E+01  0.18134709937E+02  0.11910535751E+02  0.21791809940E+02  0.00000000000E+00 0.  1.
</event>
<event>
 7    1  0.2903212E-011  0.5052887E+02  0.7816164E-02  0.1300439E+00
        -11   -1    0    0    0    0  0.00000000000E+00  0.00000000000E+00  0.45593999997E+02  0.45594000000E+02  0.51100000000E-03 0.  1.
         11   -1    0    0    0    0 -0.00000000000E+00 -0.00000000000E+00 -0.45593999997E+02  0.45594000000E+02  0.51100000000E-03 0. -1.
    9900012    2    1    2    0    0  0.17737421205E+02  0.22036704289E+02 -0.29205012605E+02  0.50528865625E+02  0.30000017553E+02 0.  0.
        -12    1    1    2    0    0 -0.17737421205E+02 -0.22036704289E+02  0.29205012605E+02  0.40659134375E+02  0.00000000000E+00 0.  1.
         11    1    3    3    0    0  0.13308696996E+02  0.19743461243E+02 -0.25947911644E+02  0.35216754486E+02  0.51100000000E-03 0. -1.
        -11    1    3    3    0    0  0.15687967523E+01  0.70212650284E+01 -0.57887020387E+01  0.92340867120E+01  0.51100000000E-03 0.  1.
         12    1    3    3    0    0  0.28599274560E+01 -0.47280219817E+01  0.25316010782E+01  0.60780244268E+01  0.00000000000E+00 0. -1.
</event>
<event>
 7    1  0.2903212E-011  0.5052887E+02  0.7816164E-02  0.1300439E+00
        -11   -1    0    0    0    0  0.00000000000E+00  0.00000000000E+00  0.45593999997E+02  0.45594000000E+02  0.51100000000E-03 0. -1.
         11   -1    0    0    0    0 -0.00000000000E+00 -0.00000000000E+00 -0.45593999997E+02  0.45594000000E+02  0.51100000000E-03 0.  1.
    9900012    2    1    2    0    0 -0.16824024595E+02 -0.21047820162E+02  0.30448420880E+02  0.50528869768E+02  0.30000030147E+02 0.  0.
        -12    1    1    2    0    0  0.16824024595E+02  0.21047820162E+02 -0.30448420880E+02  0.40659130232E+02  0.00000000000E+00 0.  1.
         11    1    3    3    0    0 -0.26318744755E+01 -0.26597850950E+00  0.60012315108E+01  0.65583753880E+01  0.51100000000E-03 0. -1.
        -11    1    3    3    0    0  0.44750600822E+01  0.35000825329E+01  0.21020234298E+01  0.60576598813E+01  0.51100000000E-03 0.  1.
         12    1    3    3    0    0 -0.18667210202E+02 -0.24281924186E+02  0.22345165939E+02  0.37912834499E+02  0.00000000000E+00 0. -1.
</event>
<event>
 7    1  0.2903212E-011  0.5052892E+02  0.7816164E-02  0.1300439E+00
        -11   -1    0    0    0    0  0.00000000000E+00  0.00000000000E+00  0.45593999997E+02  0.45594000000E+02  0.51100000000E-03 0.  1.
         11   -1    0    0    0    0 -0.00000000000E+00 -0.00000000000E+00 -0.45593999997E+02  0.45594000000E+02  0.51100000000E-03 0. -1.
    9900012    2    1    2    0    0  0.20122842688E+02  0.28605001273E+02 -0.20736104091E+02  0.50528918499E+02  0.30000178268E+02 0.  0.
        -12    1    1    2    0    0 -0.20122842688E+02 -0.28605001273E+02  0.20736104091E+02  0.40659081501E+02  0.00000000000E+00 0.  1.
         11    1    3    3    0    0  0.17749484566E+01  0.59249488485E+01 -0.17184310506E+02  0.18263515234E+02  0.51100000000E-03 0. -1.
        -11    1    3    3    0    0  0.30050477774E+00 -0.84529219280E+00 -0.24337883564E+01  0.25938673901E+01  0.51100000000E-03 0.  1.
        -12    1    3    3    0    0  0.18047389454E+02  0.23525344617E+02 -0.11180052279E+01  0.29671535874E+02  0.00000000000E+00 0.  1.
</event>
<event>
 7    1  0.2903212E-011  0.5052887E+02  0.7816164E-02  0.1300439E+00
        -11   -1    0    0    0    0  0.00000000000E+00  0.00000000000E+00  0.45593999997E+02  0.45594000000E+02  0.51100000000E-03 0.  1.
         11   -1    0    0    0    0 -0.00000000000E+00 -0.00000000000E+00 -0.45593999997E+02  0.45594000000E+02  0.51100000000E-03 0. -1.
    9900012    2    1    2    0    0  0.24603562607E+02  0.12596858511E+02 -0.29818602227E+02  0.50528866019E+02  0.30000018752E+02 0.  0.
        -12    1    1    2    0    0 -0.24603562607E+02 -0.12596858511E+02  0.29818602227E+02  0.40659133981E+02  0.00000000000E+00 0.  1.
         11    1    3    3    0    0  0.14521364744E+02  0.14237070333E+02 -0.20695884240E+02  0.29015234454E+02  0.51100000000E-03 0. -1.
        -11    1    3    3    0    0 -0.47140390944E+00  0.43362930882E+01 -0.82768030435E+01  0.93558071952E+01  0.51100000000E-03 0.  1.
        -12    1    3    3    0    0  0.10553601773E+02 -0.59765049096E+01 -0.84591494290E+00  0.12157824370E+02  0.00000000000E+00 0.  1.
</event>
<event>
 7    1  0.2903212E-011  0.5052885E+02  0.7816164E-02  0.1300439E+00
        -11   -1    0    0    0    0  0.00000000000E+00  0.00000000000E+00  0.45593999997E+02  0.45594000000E+02  0.51100000000E-03 0. -1.
         11   -1    0    0    0    0 -0.00000000000E+00 -0.00000000000E+00 -0.45593999997E+02  0.45594000000E+02  0.51100000000E-03 0.  1.
    9900012    2    1    2    0    0  0.35486580551E+02  0.10524094351E+02  0.16825942206E+02  0.50528852293E+02  0.29999977031E+02 0.  0.
        -12    1    1    2    0    0 -0.35486580551E+02 -0.10524094351E+02 -0.16825942206E+02  0.40659147707E+02  0.00000000000E+00 0.  1.
         11    1    3    3    0    0  0.87569946361E+01 -0.52467426623E+01  0.34479834060E+01  0.10775057004E+02  0.51100000000E-03 0. -1.
        -11    1    3    3    0    0  0.11978142531E+01 -0.40955657173E+01 -0.95144769410E+00  0.43719184011E+01  0.51100000000E-03 0.  1.
        -12    1    3    3    0    0  0.25531771662E+02  0.19866402731E+02  0.14329406494E+02  0.35381876888E+02  0.00000000000E+00 0.  1.
</event>
<event>
 7    1  0.2903212E-011  0.5052886E+02  0.7816164E-02  0.1300439E+00
        -11   -1    0    0    0    0  0.00000000000E+00  0.00000000000E+00  0.45593999997E+02  0.45594000000E+02  0.51100000000E-03 0.  1.
         11   -1    0    0    0    0 -0.00000000000E+00 -0.00000000000E+00 -0.45593999997E+02  0.45594000000E+02  0.51100000000E-03 0. -1.
    9900012    2    1    2    0    0 -0.29365520068E+02  0.25762391588E+02 -0.11275240468E+02  0.50528860353E+02  0.30000001529E+02 0.  0.
        -12    1    1    2    0    0  0.29365520068E+02 -0.25762391588E+02  0.11275240468E+02  0.40659139647E+02  0.00000000000E+00 0.  1.
         11    1    3    3    0    0 -0.18965648633E+01  0.84099551326E+00 -0.99969410346E+00  0.23029590304E+01  0.51100000000E-03 0. -1.
        -11    1    3    3    0    0 -0.97948332448E+01  0.15445508403E+02 -0.18985553750E+02  0.26361975259E+02  0.51100000000E-03 0.  1.
        -12    1    3    3    0    0 -0.17674121960E+02  0.94758876718E+01  0.87100073859E+01  0.21863926063E+02  0.00000000000E+00 0.  1.
</event>
<event>
 7    1  0.2903212E-011  0.5052887E+02  0.7816164E-02  0.1300439E+00
        -11   -1    0    0    0    0  0.00000000000E+00  0.00000000000E+00  0.45593999997E+02  0.45594000000E+02  0.51100000000E-03 0.  1.
         11   -1    0    0    0    0 -0.00000000000E+00 -0.00000000000E+00 -0.45593999997E+02  0.45594000000E+02  0.51100000000E-03 0. -1.
    9900012    2    1    2    0    0  0.13457188764E+02 -0.32023169093E+02 -0.21132574284E+02  0.50528868381E+02  0.30000025929E+02 0.  0.
        -12    1    1    2    0    0 -0.13457188764E+02  0.32023169093E+02  0.21132574284E+02  0.40659131619E+02  0.00000000000E+00 0.  1.
         11    1    3    3    0    0  0.10434342314E+02 -0.74738344578E+01 -0.50385378058E+01  0.13788421393E+02  0.51100000000E-03 0. -1.
        -11    1    3    3    0    0  0.50025363284E+01 -0.10810099370E+00 -0.10437938646E+02  0.11575302112E+02  0.51100000000E-03 0.  1.
        -12    1    3    3    0    0 -0.19796898782E+01 -0.24441233641E+02 -0.56560978321E+01  0.25165144876E+02  0.00000000000E+00 0.  1.
</event>
<event>
 7    1  0.2903212E-011  0.5052885E+02  0.7816164E-02  0.1300439E+00
        -11   -1    0    0    0    0  0.00000000000E+00  0.00000000000E+00  0.45593999997E+02  0.45594000000E+02  0.51100000000E-03 0.  1.
         11   -1    0    0    0    0 -0.00000000000E+00 -0.00000000000E+00 -0.45593999997E+02  0.45594000000E+02  0.51100000000E-03 0. -1.
    9900012    2    1    2    0    0 -0.19082974723E+02 -0.35085404665E+02  0.76171233269E+01  0.50528854503E+02  0.29999983746E+02 0.  0.
        -12    1    1    2    0    0  0.19082974723E+02  0.35085404665E+02 -0.76171233269E+01  0.40659145497E+02  0.00000000000E+00 0.  1.
         11    1    3    3    0    0  0.10462392892E+01 -0.57735064590E+00 -0.19549864339E+01  0.22912709653E+01  0.51100000000E-03 0. -1.
        -11    1    3    3    0    0  0.44541840396E+01  0.51752339129E+00  0.10510416557E+01  0.46056785323E+01  0.51100000000E-03 0.  1.
         12    1    3    3    0    0 -0.24583398052E+02 -0.35025577411E+02  0.85210681051E+01  0.43631905005E+02  0.00000000000E+00 0. -1.
</event>
<event>
 7    1  0.2903212E-011  0.5052886E+02  0.7816164E-02  0.1300439E+00
        -11   -1    0    0    0    0  0.00000000000E+00  0.00000000000E+00  0.45593999997E+02  0.45594000000E+02  0.51100000000E-03 0.  1.
         11   -1    0    0    0    0 -0.00000000000E+00 -0.00000000000E+00 -0.45593999997E+02  0.45594000000E+02  0.51100000000E-03 0. -1.
    9900012    2    1    2    0    0 -0.25488808688E+02 -0.10026436283E+02 -0.30049245721E+02  0.50528856363E+02  0.29999989400E+02 0.  0.
        -12    1    1    2    0    0  0.25488808688E+02  0.10026436283E+02  0.30049245721E+02  0.40659143637E+02  0.00000000000E+00 0.  1.
         11    1    3    3    0    0  0.53683640065E+01  0.16087013597E+01 -0.92092948071E+00  0.56793805596E+01  0.51100000000E-03 0. -1.
        -11    1    3    3    0    0 -0.16394527436E+02 -0.99314860068E+01 -0.13235204694E+02  0.23293466632E+02  0.51100000000E-03 0.  1.
        -12    1    3    3    0    0 -0.14462645259E+02 -0.17036516363E+01 -0.15893111547E+02  0.21556009172E+02  0.00000000000E+00 0.  1.
</event>
<event>
 7    1  0.2903212E-011  0.5052886E+02  0.7816164E-02  0.1300439E+00
        -11   -1    0    0    0    0  0.00000000000E+00  0.00000000000E+00  0.45593999997E+02  0.45594000000E+02  0.51100000000E-03 0.  1.
         11   -1    0    0    0    0 -0.00000000000E+00 -0.00000000000E+00 -0.45593999997E+02  0.45594000000E+02  0.51100000000E-03 0. -1.
    9900012    2    1    2    0    0 -0.20784777744E+02  0.12204076214E+02 -0.32744757868E+02  0.50528860437E+02  0.30000001785E+02 0.  0.
        -12    1    1    2    0    0  0.20784777744E+02 -0.12204076214E+02  0.32744757868E+02  0.40659139563E+02  0.00000000000E+00 0.  1.
         11    1    3    3    0    0 -0.10701991683E+01  0.31537722664E+01  0.18361373150E+01  0.38030259358E+01  0.51100000000E-03 0. -1.
        -11    1    3    3    0    0 -0.12106023775E+02  0.10889024316E+02 -0.64289784361E+01  0.17505954021E+02  0.51100000000E-03 0.  1.
         12    1    3    3    0    0 -0.76085548009E+01 -0.18387203677E+01 -0.28151916747E+02  0.29219880480E+02  0.00000000000E+00 0. -1.
</event>
<event>
 7    1  0.2903212E-011  0.5052885E+02  0.7816164E-02  0.1300439E+00
        -11   -1    0    0    0    0  0.00000000000E+00  0.00000000000E+00  0.45593999997E+02  0.45594000000E+02  0.51100000000E-03 0.  1.
         11   -1    0    0    0    0 -0.00000000000E+00 -0.00000000000E+00 -0.45593999997E+02  0.45594000000E+02  0.51100000000E-03 0. -1.
    9900012    2    1    2    0    0  0.32961897993E+02  0.17569701544E+02 -0.16061929585E+02  0.50528847112E+02  0.29999961280E+02 0.  0.
        -12    1    1    2    0    0 -0.32961897993E+02 -0.17569701544E+02  0.16061929585E+02  0.40659152888E+02  0.00000000000E+00 0.  1.
         11    1    3    3    0    0  0.60116734697E+01 -0.26887513890E+01 -0.90033397506E+01  0.11154807433E+02  0.51100000000E-03 0. -1.
        -11    1    3    3    0    0  0.29772908958E+01 -0.28213489819E+01 -0.43620963749E+01  0.59876670082E+01  0.51100000000E-03 0.  1.
        -12    1    3    3    0    0  0.23972933627E+02  0.23079801915E+02 -0.26964934594E+01  0.33386372670E+02  0.00000000000E+00 0.  1.
</event>
<event>
 7    1  0.2903212E-011  0.5052887E+02  0.7816164E-02  0.1300439E+00
        -11   -1    0    0    0    0  0.00000000000E+00  0.00000000000E+00  0.45593999997E+02  0.45594000000E+02  0.51100000000E-03 0. -1.
         11   -1    0    0    0    0 -0.00000000000E+00 -0.00000000000E+00 -0.45593999997E+02  0.45594000000E+02  0.51100000000E-03 0.  1.
    9900012    2    1    2    0    0 -0.30300881121E+02  0.26441548090E+02  0.59887998988E+01  0.50528873271E+02  0.30000040795E+02 0.  0.
        -12    1    1    2    0    0  0.30300881121E+02 -0.26441548090E+02 -0.59887998988E+01  0.40659126729E+02  0.00000000000E+00 0.  1.
         11    1    3    3    0    0 -0.10998510348E+01  0.61595911940E+01  0.63409641949E+00  0.62890630866E+01  0.51100000000E-03 0. -1.
        -11    1    3    3    0    0 -0.88571343766E+01  0.10805195102E+02 -0.98823759223E+01  0.17113223679E+02  0.51100000000E-03 0.  1.
         12    1    3    3    0    0 -0.20343895710E+02  0.94767617946E+01  0.15237079402E+02  0.27126586506E+02  0.00000000000E+00 0. -1.
</event>
<event>
 7    1  0.2903212E-011  0.5052886E+02  0.7816164E-02  0.1300439E+00
        -11   -1    0    0    0    0  0.00000000000E+00  0.00000000000E+00  0.45593999997E+02  0.45594000000E+02  0.51100000000E-03 0.  1.
         11   -1    0    0    0    0 -0.00000000000E+00 -0.00000000000E+00 -0.45593999997E+02  0.45594000000E+02  0.51100000000E-03 0. -1.
    9900012    2    1    2    0    0 -0.27110837351E+02  0.30266268634E+02  0.14563201072E+01  0.50528863423E+02  0.30000010860E+02 0.  0.
        -12    1    1    2    0    0  0.27110837351E+02 -0.30266268634E+02 -0.14563201072E+01  0.40659136577E+02  0.00000000000E+00 0.  1.
         11    1    3    3    0    0 -0.45070747105E+01  0.53819603719E+01  0.24117304011E+01  0.74226453290E+01  0.51100000000E-03 0. -1.
        -11    1    3    3    0    0 -0.11883488925E+02  0.11809963696E+02  0.12981827727E+02  0.21194820191E+02  0.51100000000E-03 0.  1.
        -12    1    3    3    0    0 -0.10720273716E+02  0.13074344566E+02 -0.13937238021E+02  0.21911397903E+02  0.00000000000E+00 0.  1.
</event>
<event>
 7    1  0.2903212E-011  0.5052886E+02  0.7816164E-02  0.1300439E+00
        -11   -1    0    0    0    0  0.00000000000E+00  0.00000000000E+00  0.45593999997E+02  0.45594000000E+02  0.51100000000E-03 0. -1.
         11   -1    0    0    0    0 -0.00000000000E+00 -0.00000000000E+00 -0.45593999997E+02  0.45594000000E+02  0.51100000000E-03 0.  1.
    9900012    2    1    2    0    0 -0.18664114978E+02 -0.34252954437E+01  0.35959480015E+02  0.50528855399E+02  0.29999986470E+02 0.  0.
        -12    1    1    2    0    0  0.18664114978E+02  0.34252954437E+01 -0.35959480015E+02  0.40659144601E+02  0.00000000000E+00 0.  1.
         11    1    3    3    0    0  0.29993921679E+00 -0.60879785407E+01  0.48243288369E+01  0.77735188450E+01  0.51100000000E-03 0. -1.
        -11    1    3    3    0    0 -0.11155054044E+02 -0.77895368215E+01  0.69560835788E+01  0.15280681059E+02  0.51100000000E-03 0.  1.
         12    1    3    3    0    0 -0.78090001508E+01  0.10452219918E+02  0.24179067599E+02  0.27474655494E+02  0.00000000000E+00 0. -1.
</event>
<event>
 7    1  0.2903212E-011  0.5052886E+02  0.7816164E-02  0.1300439E+00
        -11   -1    0    0    0    0  0.00000000000E+00  0.00000000000E+00  0.45593999997E+02  0.45594000000E+02  0.51100000000E-03 0.  1.
         11   -1    0    0    0    0 -0.00000000000E+00 -0.00000000000E+00 -0.45593999997E+02  0.45594000000E+02  0.51100000000E-03 0. -1.
    9900012    2    1    2    0    0  0.25943923673E+02 -0.17361347982E+00 -0.31305721486E+02  0.50528861852E+02  0.30000006084E+02 0.  0.
        -12    1    1    2    0    0 -0.25943923673E+02  0.17361347982E+00  0.31305721486E+02  0.40659138148E+02  0.00000000000E+00 0.  1.
         11    1    3    3    0    0  0.86101001416E+01  0.14470324275E+01  0.48595210715E+01  0.99921305336E+01  0.51100000000E-03 0.  1.
        -11    1    3    3    0    0  0.27438000881E+01 -0.11352308803E+01 -0.11482448627E+02  0.11860177689E+02  0.51100000000E-03 0. -1.
        -12    1    3    3    0    0  0.14590023444E+02 -0.48541502702E+00 -0.24682793930E+02  0.28676553629E+02  0.00000000000E+00 0.  1.
</event>
<event>
 7    1  0.2903212E-011  0.5052886E+02  0.7816164E-02  0.1300439E+00
        -11   -1    0    0    0    0  0.00000000000E+00  0.00000000000E+00  0.45593999997E+02  0.45594000000E+02  0.51100000000E-03 0.  1.
         11   -1    0    0    0    0 -0.00000000000E+00 -0.00000000000E+00 -0.45593999997E+02  0.45594000000E+02  0.51100000000E-03 0. -1.
    9900012    2    1    2    0    0 -0.16252832999E+02  0.34122500193E+02 -0.14988864230E+02  0.50528860181E+02  0.30000001005E+02 0.  0.
        -12    1    1    2    0    0  0.16252832999E+02 -0.34122500193E+02  0.14988864230E+02  0.40659139819E+02  0.00000000000E+00 0.  1.
         11    1    3    3    0    0 -0.48090044580E+00  0.72880652519E+00  0.40312437316E+01  0.41247242907E+01  0.51100000000E-03 0. -1.
        -11    1    3    3    0    0 -0.28564748958E+01  0.16173115523E+01  0.39398748893E+01  0.51281341530E+01  0.51100000000E-03 0.  1.
         12    1    3    3    0    0 -0.12915457658E+02  0.31776382116E+02 -0.22959982851E+02  0.41276001737E+02  0.00000000000E+00 0. -1.
</event>
<event>
 7    1  0.2903212E-011  0.5052886E+02  0.7816164E-02  0.1300439E+00
        -11   -1    0    0    0    0  0.00000000000E+00  0.00000000000E+00  0.45593999997E+02  0.45594000000E+02  0.51100000000E-03 0.  1.
         11   -1    0    0    0    0 -0.00000000000E+00 -0.00000000000E+00 -0.45593999997E+02  0.45594000000E+02  0.51100000000E-03 0. -1.
    9900012    2    1    2    0    0  0.29389754980E+02  0.16658634609E+02  0.22625156362E+02  0.50528861972E+02  0.30000006449E+02 0.  0.
        -12    1    1    2    0    0 -0.29389754980E+02 -0.16658634609E+02 -0.22625156362E+02  0.40659138028E+02  0.00000000000E+00 0.  1.
         11    1    3    3    0    0  0.12165733664E+02  0.59104068992E+01  0.21274847622E+02  0.25210258366E+02  0.51100000000E-03 0. -1.
        -11    1    3    3    0    0  0.17013524723E+02  0.33201978184E+01  0.32778749453E+01  0.17641660961E+02  0.51100000000E-03 0.  1.
        -12    1    3    3    0    0  0.21049659312E+00  0.74280298910E+01 -0.19275662054E+01  0.76769426436E+01  0.00000000000E+00 0.  1.
</event>
<event>
 7    1  0.2903212E-011  0.5052886E+02  0.7816164E-02  0.1300439E+00
        -11   -1    0    0    0    0  0.00000000000E+00  0.00000000000E+00  0.45593999997E+02  0.45594000000E+02  0.51100000000E-03 0. -1.
         11   -1    0    0    0    0 -0.00000000000E+00 -0.00000000000E+00 -0.45593999997E+02  0.45594000000E+02  0.51100000000E-03 0.  1.
    9900012    2    1    2    0    0 -0.36928153815E+02 -0.16045516259E+02 -0.56584925770E+01  0.50528859890E+02  0.30000000123E+02 0.  0.
        -12    1    1    2    0    0  0.36928153815E+02  0.16045516259E+02  0.56584925770E+01  0.40659140110E+02  0.00000000000E+00 0.  1.
         11    1    3    3    0    0 -0.24016345339E+01 -0.46779807640E+01  0.51988494806E+01  0.73945512809E+01  0.51100000000E-03 0. -1.
        -11    1    3    3    0    0 -0.18755172396E+02 -0.42406612222E+01  0.47750667084E+01  0.19812646505E+02  0.51100000000E-03 0.  1.
        -12    1    3    3    0    0 -0.15771346885E+02 -0.71268742727E+01 -0.15632408766E+02  0.23321662104E+02  0.00000000000E+00 0.  1.
</event>
<event>
 7    1  0.2903212E-011  0.5052884E+02  0.7816164E-02  0.1300439E+00
        -11   -1    0    0    0    0  0.00000000000E+00  0.00000000000E+00  0.45593999997E+02  0.45594000000E+02  0.51100000000E-03 0. -1.
         11   -1    0    0    0    0 -0.00000000000E+00 -0.00000000000E+00 -0.45593999997E+02  0.45594000000E+02  0.51100000000E-03 0.  1.
    9900012    2    1    2    0    0  0.15047896298E+02 -0.87822851286E+01  0.36736892082E+02  0.50528844144E+02  0.29999952260E+02 0.  0.
        -12    1    1    2    0    0 -0.15047896298E+02  0.87822851286E+01 -0.36736892082E+02  0.40659155856E+02  0.00000000000E+00 0.  1.
         11    1    3    3    0    0  0.72529039638E+01 -0.11477747594E+02  0.14145055097E+02  0.19606781727E+02  0.51100000000E-03 0. -1.
        -11    1    3    3    0    0 -0.13211726767E+00 -0.77639137292E+01  0.62838679259E+01  0.99891344839E+01  0.51100000000E-03 0.  1.
        -12    1    3    3    0    0  0.79271096015E+01  0.10459376194E+02  0.16307969060E+02  0.20932927933E+02  0.00000000000E+00 0.  1.
</event>
<event>
 7    1  0.2903212E-011  0.5052887E+02  0.7816164E-02  0.1300439E+00
        -11   -1    0    0    0    0  0.00000000000E+00  0.00000000000E+00  0.45593999997E+02  0.45594000000E+02  0.51100000000E-03 0.  1.
         11   -1    0    0    0    0 -0.00000000000E+00 -0.00000000000E+00 -0.45593999997E+02  0.45594000000E+02  0.51100000000E-03 0. -1.
    9900012    2    1    2    0    0  0.27769752541E+02 -0.25002604256E+02 -0.16027341737E+02  0.50528867460E+02  0.30000023131E+02 0.  0.
        -12    1    1    2    0    0 -0.27769752541E+02  0.25002604256E+02  0.16027341737E+02  0.40659132540E+02  0.00000000000E+00 0.  1.
         11    1    3    3    0    0  0.17988436590E+02 -0.14725802745E+02 -0.24333440281E+02  0.33653371801E+02  0.51100000000E-03 0. -1.
        -11    1    3    3    0    0  0.50477767358E+00 -0.14695932422E+00  0.14122298332E+01  0.15069143658E+01  0.51100000000E-03 0.  1.
         12    1    3    3    0    0  0.92765382773E+01 -0.10129842187E+02  0.68938687109E+01  0.15368581293E+02  0.00000000000E+00 0. -1.
</event>
<event>
 7    1  0.2903212E-011  0.5052885E+02  0.7816164E-02  0.1300439E+00
        -11   -1    0    0    0    0  0.00000000000E+00  0.00000000000E+00  0.45593999997E+02  0.45594000000E+02  0.51100000000E-03 0. -1.
         11   -1    0    0    0    0 -0.00000000000E+00 -0.00000000000E+00 -0.45593999997E+02  0.45594000000E+02  0.51100000000E-03 0.  1.
    9900012    2    1    2    0    0  0.30164117258E+02  0.25933738583E+02 -0.84103224558E+01  0.50528852313E+02  0.29999977090E+02 0.  0.
        -12    1    1    2    0    0 -0.30164117258E+02 -0.25933738583E+02  0.84103224558E+01  0.40659147687E+02  0.00000000000E+00 0.  1.
         11    1    3    3    0    0  0.11458311201E+02  0.15476075710E+02  0.40532945914E+01  0.19678186204E+02  0.51100000000E-03 0. -1.
        -11    1    3    3    0    0  0.66912194573E+01  0.12517297286E+02 -0.11840265267E+01  0.14242790044E+02  0.51100000000E-03 0.  1.
        -12    1    3    3    0    0  0.12014586599E+02 -0.20596344131E+01 -0.11279590520E+02  0.16607876064E+02  0.00000000000E+00 0.  1.
</event>
<event>
 7    1  0.2903212E-011  0.5052887E+02  0.7816164E-02  0.1300439E+00
        -11   -1    0    0    0    0  0.00000000000E+00  0.00000000000E+00  0.45593999997E+02  0.45594000000E+02  0.51100000000E-03 0.  1.
         11   -1    0    0    0    0 -0.00000000000E+00 -0.00000000000E+00 -0.45593999997E+02  0.45594000000E+02  0.51100000000E-03 0. -1.
    9900012    2    1    2    0    0 -0.31410285379E+02  0.84337321854E+01 -0.24401459923E+02  0.50528866801E+02  0.30000021127E+02 0.  0.
        -12    1    1    2    0    0  0.31410285379E+02 -0.84337321854E+01  0.24401459923E+02  0.40659133199E+02  0.00000000000E+00 0.  1.
         11    1    3    3    0    0 -0.10970799354E+02  0.39107107001E+01 -0.22988394249E+02  0.25770494118E+02  0.51100000000E-03 0. -1.
        -11    1    3    3    0    0  0.75350615337E+00  0.25775980485E+01 -0.21853005913E+01  0.34622712427E+01  0.51100000000E-03 0.  1.
         12    1    3    3    0    0 -0.21192992178E+02  0.19454234368E+01  0.77223491710E+00  0.21296101440E+02  0.00000000000E+00 0. -1.
</event>
<event>
 7    1  0.2903212E-011  0.5052886E+02  0.7816164E-02  0.1300439E+00
        -11   -1    0    0    0    0  0.00000000000E+00  0.00000000000E+00  0.45593999997E+02  0.45594000000E+02  0.51100000000E-03 0. -1.
         11   -1    0    0    0    0 -0.00000000000E+00 -0.00000000000E+00 -0.45593999997E+02  0.45594000000E+02  0.51100000000E-03 0.  1.
    9900012    2    1    2    0    0 -0.19720315448E+02  0.31754234652E+02  0.15998229918E+02  0.50528860558E+02  0.30000002151E+02 0.  0.
        -12    1    1    2    0    0  0.19720315448E+02 -0.31754234652E+02 -0.15998229918E+02  0.40659139442E+02  0.00000000000E+00 0.  1.
         11    1    3    3    0    0 -0.64633069321E+01  0.15490084544E+02  0.22790924998E+01  0.16938456794E+02  0.51100000000E-03 0.  1.
        -11    1    3    3    0    0 -0.99029059415E+01  0.17205480981E+02  0.43452213082E+00  0.19856609268E+02  0.51100000000E-03 0. -1.
        -12    1    3    3    0    0 -0.33541025741E+01 -0.94133087368E+00  0.13284615288E+02  0.13733794495E+02  0.00000000000E+00 0.  1.
</event>
<event>
 7    1  0.2903212E-011  0.5052883E+02  0.7816164E-02  0.1300439E+00
        -11   -1    0    0    0    0  0.00000000000E+00  0.00000000000E+00  0.45593999997E+02  0.45594000000E+02  0.51100000000E-03 0.  1.
         11   -1    0    0    0    0 -0.00000000000E+00 -0.00000000000E+00 -0.45593999997E+02  0.45594000000E+02  0.51100000000E-03 0. -1.
    9900012    2    1    2    0    0  0.14906871796E+02  0.63617234784E+01 -0.37289161413E+02  0.50528832383E+02  0.29999916512E+02 0.  0.
        -12    1    1    2    0    0 -0.14906871796E+02 -0.63617234784E+01  0.37289161413E+02  0.40659167617E+02  0.00000000000E+00 0.  1.
         11    1    3    3    0    0  0.97390163309E+01  0.26297537716E+01 -0.26862164891E+02  0.28693900865E+02  0.51100000000E-03 0. -1.
        -11    1    3    3    0    0  0.50517595744E+01  0.52936717870E+01 -0.15168658372E+02  0.16841360778E+02  0.51100000000E-03 0.  1.
        -12    1    3    3    0    0  0.11609589095E+00 -0.15617020802E+01  0.47416618493E+01  0.49935707401E+01  0.00000000000E+00 0.  1.
</event>
<event>
 7    1  0.2903212E-011  0.5052887E+02  0.7816164E-02  0.1300439E+00
        -11   -1    0    0    0    0  0.00000000000E+00  0.00000000000E+00  0.45593999997E+02  0.45594000000E+02  0.51100000000E-03 0. -1.
         11   -1    0    0    0    0 -0.00000000000E+00 -0.00000000000E+00 -0.45593999997E+02  0.45594000000E+02  0.51100000000E-03 0.  1.
    9900012    2    1    2    0    0  0.14261778664E+02 -0.36246335131E+02 -0.11660618064E+02  0.50528866282E+02  0.30000019550E+02 0.  0.
        -12    1    1    2    0    0 -0.14261778664E+02  0.36246335131E+02  0.11660618064E+02  0.40659133718E+02  0.00000000000E+00 0.  1.
         11    1    3    3    0    0  0.34496987369E+01 -0.14177969909E+02  0.20548938292E+01  0.14735597749E+02  0.51100000000E-03 0. -1.
        -11    1    3    3    0    0  0.12243102160E+02 -0.22808743218E+02 -0.43008757381E+01  0.26241757755E+02  0.51100000000E-03 0.  1.
        -12    1    3    3    0    0 -0.14310222329E+01  0.74037799590E+00 -0.94146361548E+01  0.95515107776E+01  0.00000000000E+00 0.  1.
</event>
<event>
 7    1  0.2903212E-011  0.5052882E+02  0.7816164E-02  0.1300439E+00
        -11   -1    0    0    0    0  0.00000000000E+00  0.00000000000E+00  0.45593999997E+02  0.45594000000E+02  0.51100000000E-03 0. -1.
         11   -1    0    0    0    0 -0.00000000000E+00 -0.00000000000E+00 -0.45593999997E+02  0.45594000000E+02  0.51100000000E-03 0.  1.
    9900012    2    1    2    0    0  0.27382264383E+01  0.27909417226E+02  0.29440371848E+02  0.50528819629E+02  0.29999877743E+02 0.  0.
        -12    1    1    2    0    0 -0.27382264383E+01 -0.27909417226E+02 -0.29440371848E+02  0.40659180371E+02  0.00000000000E+00 0.  1.
         11    1    3    3    0    0 -0.90028537413E+00 -0.19131878624E+01  0.35305801400E+01  0.41153126172E+01  0.51100000000E-03 0.  1.
        -11    1    3    3    0    0 -0.38462070972E+01  0.30521646201E+02  0.22739485638E+02  0.38255044153E+02  0.51100000000E-03 0. -1.
         12    1    3    3    0    0  0.74847189096E+01 -0.69904111234E+00  0.31703060702E+01  0.81584628584E+01  0.00000000000E+00 0. -1.
</event>
<event>
 7    1  0.2903212E-011  0.5052890E+02  0.7816164E-02  0.1300439E+00
        -11   -1    0    0    0    0  0.00000000000E+00  0.00000000000E+00  0.45593999997E+02  0.45594000000E+02  0.51100000000E-03 0. -1.
         11   -1    0    0    0    0 -0.00000000000E+00 -0.00000000000E+00 -0.45593999997E+02  0.45594000000E+02  0.51100000000E-03 0.  1.
    9900012    2    1    2    0    0  0.38214881600E+02 -0.94676916473E+01  0.10156174927E+02  0.50528902002E+02  0.30000128126E+02 0.  0.
        -12    1    1    2    0    0 -0.38214881600E+02  0.94676916473E+01 -0.10156174927E+02  0.40659097998E+02  0.00000000000E+00 0.  1.
         11    1    3    3    0    0  0.92926438844E+01 -0.12415767895E+02  0.37805178598E+01  0.15962356917E+02  0.51100000000E-03 0.  1.
        -11    1    3    3    0    0  0.48365349867E+00  0.29661977015E+01 -0.33597066185E+01  0.45077575728E+01  0.51100000000E-03 0. -1.
         12    1    3    3    0    0  0.28438584217E+02 -0.18121454023E-01  0.97353636861E+01  0.30058787513E+02  0.00000000000E+00 0. -1.
</event>
<event>
 7    1  0.2903212E-011  0.5052887E+02  0.7816164E-02  0.1300439E+00
        -11   -1    0    0    0    0  0.00000000000E+00  0.00000000000E+00  0.45593999997E+02  0.45594000000E+02  0.51100000000E-03 0.  1.
         11   -1    0    0    0    0 -0.00000000000E+00 -0.00000000000E+00 -0.45593999997E+02  0.45594000000E+02  0.51100000000E-03 0. -1.
    9900012    2    1    2    0    0  0.13310020792E+02 -0.14343581244E+02 -0.35640844479E+02  0.50528870993E+02  0.30000033872E+02 0.  0.
        -12    1    1    2    0    0 -0.13310020792E+02  0.14343581244E+02  0.35640844479E+02  0.40659129007E+02  0.00000000000E+00 0.  1.
         11    1    3    3    0    0  0.71262264782E+01 -0.61941628803E+01 -0.64698075469E+01  0.11445923622E+02  0.51100000000E-03 0. -1.
        -11    1    3    3    0    0  0.11633467204E+02 -0.13726339655E+02 -0.17923434977E+02  0.25396839983E+02  0.51100000000E-03 0.  1.
        -12    1    3    3    0    0 -0.54496728897E+01  0.55769212914E+01 -0.11247601955E+02  0.13686107388E+02  0.00000000000E+00 0.  1.
</event>
<event>
 7    1  0.2903212E-011  0.5052887E+02  0.7816164E-02  0.1300439E+00
        -11   -1    0    0    0    0  0.00000000000E+00  0.00000000000E+00  0.45593999997E+02  0.45594000000E+02  0.51100000000E-03 0.  1.
         11   -1    0    0    0    0 -0.00000000000E+00 -0.00000000000E+00 -0.45593999997E+02  0.45594000000E+02  0.51100000000E-03 0. -1.
    9900012    2    1    2    0    0 -0.16644203978E+02 -0.12591265308E+02 -0.34894055896E+02  0.50528872796E+02  0.30000039350E+02 0.  0.
        -12    1    1    2    0    0  0.16644203978E+02  0.12591265308E+02  0.34894055896E+02  0.40659127204E+02  0.00000000000E+00 0.  1.
         11    1    3    3    0    0 -0.77387201599E+01  0.53860076598E+01 -0.17431142048E+01  0.95882905472E+01  0.51100000000E-03 0. -1.
        -11    1    3    3    0    0 -0.61698514949E+01 -0.28222781756E+01 -0.37536199900E+01  0.77538367832E+01  0.51100000000E-03 0.  1.
        -12    1    3    3    0    0 -0.27356323232E+01 -0.15154994792E+02 -0.29397321702E+02  0.33186745465E+02  0.00000000000E+00 0.  1.
</event>
<event>
 7    1  0.2903212E-011  0.5052887E+02  0.7816164E-02  0.1300439E+00
        -11   -1    0    0    0    0  0.00000000000E+00  0.00000000000E+00  0.45593999997E+02  0.45594000000E+02  0.51100000000E-03 0. -1.
         11   -1    0    0    0    0 -0.00000000000E+00 -0.00000000000E+00 -0.45593999997E+02  0.45594000000E+02  0.51100000000E-03 0.  1.
    9900012    2    1    2    0    0 -0.18454875375E+02 -0.33120921050E+02  0.14682894813E+02  0.50528865277E+02  0.30000016497E+02 0.  0.
        -12    1    1    2    0    0  0.18454875375E+02  0.33120921050E+02 -0.14682894813E+02  0.40659134723E+02  0.00000000000E+00 0.  1.
         11    1    3    3    0    0 -0.27925480547E+01 -0.56241375257E+01 -0.71227570169E+01  0.94954154901E+01  0.51100000000E-03 0. -1.
        -11    1    3    3    0    0 -0.43939194936E+01 -0.48899713107E+01 -0.14125660387E+01  0.67241126560E+01  0.51100000000E-03 0.  1.
         12    1    3    3    0    0 -0.11268407827E+02 -0.22606812213E+02  0.23218217869E+02  0.34309337131E+02  0.00000000000E+00 0. -1.
</event>
<event>
 7    1  0.2903212E-011  0.5052888E+02  0.7816164E-02  0.1300439E+00
        -11   -1    0    0    0    0  0.00000000000E+00  0.00000000000E+00  0.45593999997E+02  0.45594000000E+02  0.51100000000E-03 0. -1.
         11   -1    0    0    0    0 -0.00000000000E+00 -0.00000000000E+00 -0.45593999997E+02  0.45594000000E+02  0.51100000000E-03 0.  1.
    9900012    2    1    2    0    0  0.23895230322E+02 -0.98755915088E+01  0.31379211340E+02  0.50528877480E+02  0.30000053587E+02 0.  0.
        -12    1    1    2    0    0 -0.23895230322E+02  0.98755915088E+01 -0.31379211340E+02  0.40659122520E+02  0.00000000000E+00 0.  1.
         11    1    3    3    0    0  0.17622677631E+02 -0.93261665027E+01  0.26833362741E+02  0.33430009045E+02  0.51100000000E-03 0. -1.
        -11    1    3    3    0    0  0.10295423451E+02 -0.16419674982E-02  0.69112760427E+01  0.12400059820E+02  0.51100000000E-03 0.  1.
         12    1    3    3    0    0 -0.40228707599E+01 -0.54778303866E+00 -0.23654274431E+01  0.46988086147E+01  0.00000000000E+00 0. -1.
</event>
<event>
 7    1  0.2903212E-011  0.5052884E+02  0.7816164E-02  0.1300439E+00
        -11   -1    0    0    0    0  0.00000000000E+00  0.00000000000E+00  0.45593999997E+02  0.45594000000E+02  0.51100000000E-03 0.  1.
         11   -1    0    0    0    0 -0.00000000000E+00 -0.00000000000E+00 -0.45593999997E+02  0.45594000000E+02  0.51100000000E-03 0. -1.
    9900012    2    1    2    0    0  0.12730039075E+02  0.43325559138E+01 -0.38371117547E+02  0.50528836243E+02  0.29999928244E+02 0.  0.
        -12    1    1    2    0    0 -0.12730039075E+02 -0.43325559138E+01  0.38371117547E+02  0.40659163757E+02  0.00000000000E+00 0.  1.
         11    1    3    3    0    0  0.14672702265E+02 -0.28612229381E+01 -0.26830793375E+02  0.30714268050E+02  0.51100000000E-03 0. -1.
        -11    1    3    3    0    0  0.56560420653E+01  0.22484108098E+00 -0.53487796932E+01  0.77878629818E+01  0.51100000000E-03 0.  1.
         12    1    3    3    0    0 -0.75987052549E+01  0.69689377710E+01 -0.61915444792E+01  0.12026705212E+02  0.00000000000E+00 0. -1.
</event>
<event>
 7    1  0.2903212E-011  0.5052886E+02  0.7816164E-02  0.1300439E+00
        -11   -1    0    0    0    0  0.00000000000E+00  0.00000000000E+00  0.45593999997E+02  0.45594000000E+02  0.51100000000E-03 0.  1.
         11   -1    0    0    0    0 -0.00000000000E+00 -0.00000000000E+00 -0.45593999997E+02  0.45594000000E+02  0.51100000000E-03 0. -1.
    9900012    2    1    2    0    0  0.28483931021E+02 -0.12656166179E+01 -0.28986714402E+02  0.50528859285E+02  0.29999998283E+02 0.  0.
        -12    1    1    2    0    0 -0.28483931021E+02  0.12656166179E+01  0.28986714402E+02  0.40659140715E+02  0.00000000000E+00 0.  1.
         11    1    3    3    0    0  0.27554348475E+01 -0.42578918139E+01  0.10273658968E+01  0.51747023919E+01  0.51100000000E-03 0. -1.
        -11    1    3    3    0    0  0.11680295373E+02 -0.10961688377E+01  0.25506734995E+00  0.11734391580E+02  0.51100000000E-03 0.  1.
         12    1    3    3    0    0  0.14048200801E+02  0.40884440336E+01 -0.30269147649E+02  0.33619765313E+02  0.00000000000E+00 0. -1.
</event>
<event>
 7    1  0.2903212E-011  0.5052883E+02  0.7816164E-02  0.1300439E+00
        -11   -1    0    0    0    0  0.00000000000E+00  0.00000000000E+00  0.45593999997E+02  0.45594000000E+02  0.51100000000E-03 0. -1.
         11   -1    0    0    0    0 -0.00000000000E+00 -0.00000000000E+00 -0.45593999997E+02  0.45594000000E+02  0.51100000000E-03 0.  1.
    9900012    2    1    2    0    0  0.25115625640E+02 -0.51821450443E+01  0.31551848618E+02  0.50528826007E+02  0.29999897131E+02 0.  0.
        -12    1    1    2    0    0 -0.25115625640E+02  0.51821450443E+01 -0.31551848618E+02  0.40659173993E+02  0.00000000000E+00 0.  1.
         11    1    3    3    0    0  0.18397523394E+02 -0.53303036825E+01  0.22709395121E+02  0.29708544754E+02  0.51100000000E-03 0. -1.
        -11    1    3    3    0    0 -0.47943635749E+01 -0.18862503486E+01  0.74341676816E+01  0.90449274096E+01  0.51100000000E-03 0.  1.
        -12    1    3    3    0    0  0.11512465821E+02  0.20344089868E+01  0.14082858159E+01  0.11775353844E+02  0.00000000000E+00 0.  1.
</event>
<event>
 7    1  0.2903212E-011  0.5052886E+02  0.7816164E-02  0.1300439E+00
        -11   -1    0    0    0    0  0.00000000000E+00  0.00000000000E+00  0.45593999997E+02  0.45594000000E+02  0.51100000000E-03 0.  1.
         11   -1    0    0    0    0 -0.00000000000E+00 -0.00000000000E+00 -0.45593999997E+02  0.45594000000E+02  0.51100000000E-03 0. -1.
    9900012    2    1    2    0    0  0.27941831979E+02  0.21036829328E+01 -0.29461744662E+02  0.50528857673E+02  0.29999993383E+02 0.  0.
        -12    1    1    2    0    0 -0.27941831979E+02 -0.21036829328E+01  0.29461744662E+02  0.40659142327E+02  0.00000000000E+00 0.  1.
         11    1    3    3    0    0  0.10987182196E+02 -0.48297924369E+01 -0.26247219408E+02  0.28861074036E+02  0.51100000000E-03 0. -1.
        -11    1    3    3    0    0 -0.25056122176E+00  0.39904758694E+00  0.23845361574E+01  0.24306445338E+01  0.51100000000E-03 0.  1.
        -12    1    3    3    0    0  0.17205211006E+02  0.65344277828E+01 -0.55990614111E+01  0.19237139103E+02  0.00000000000E+00 0.  1.
</event>
<event>
 7    1  0.2903212E-011  0.5052892E+02  0.7816164E-02  0.1300439E+00
        -11   -1    0    0    0    0  0.00000000000E+00  0.00000000000E+00  0.45593999997E+02  0.45594000000E+02  0.51100000000E-03 0.  1.
         11   -1    0    0    0    0 -0.00000000000E+00 -0.00000000000E+00 -0.45593999997E+02  0.45594000000E+02  0.51100000000E-03 0. -1.
    9900012    2    1    2    0    0  0.37302298439E+02  0.13999713891E+02  0.81059840528E+01  0.50528924318E+02  0.30000195955E+02 0.  0.
        -12    1    1    2    0    0 -0.37302298439E+02 -0.13999713891E+02 -0.81059840528E+01  0.40659075682E+02  0.00000000000E+00 0.  1.
         11    1    3    3    0    0  0.24836031162E+02 -0.27307488177E+01 -0.75905895819E+00  0.24997231922E+02  0.51100000000E-03 0.  1.
        -11    1    3    3    0    0  0.66980697984E+01  0.41589886444E+01 -0.17743715864E+01  0.80814429625E+01  0.51100000000E-03 0. -1.
        -12    1    3    3    0    0  0.57681974788E+01  0.12571474065E+02  0.10639414597E+02  0.17450249433E+02  0.00000000000E+00 0.  1.
</event>
<event>
 7    1  0.2903212E-011  0.5052886E+02  0.7816164E-02  0.1300439E+00
        -11   -1    0    0    0    0  0.00000000000E+00  0.00000000000E+00  0.45593999997E+02  0.45594000000E+02  0.51100000000E-03 0.  1.
         11   -1    0    0    0    0 -0.00000000000E+00 -0.00000000000E+00 -0.45593999997E+02  0.45594000000E+02  0.51100000000E-03 0. -1.
    9900012    2    1    2    0    0 -0.20199353945E+01 -0.12580932026E+02 -0.38610954193E+02  0.50528858674E+02  0.29999996426E+02 0.  0.
        -12    1    1    2    0    0  0.20199353945E+01  0.12580932026E+02  0.38610954193E+02  0.40659141326E+02  0.00000000000E+00 0.  1.
         11    1    3    3    0    0 -0.32321955260E+01 -0.59272578224E+01 -0.13364008668E+02  0.14972514857E+02  0.51100000000E-03 0. -1.
        -11    1    3    3    0    0  0.11594056874E+02 -0.86437428160E+01 -0.14251249555E+02  0.20303560250E+02  0.51100000000E-03 0.  1.
         12    1    3    3    0    0 -0.10381796743E+02  0.19900686120E+01 -0.10995695969E+02  0.15252783567E+02  0.00000000000E+00 0. -1.
</event>
<event>
 7    1  0.2903212E-011  0.5052887E+02  0.7816164E-02  0.1300439E+00
        -11   -1    0    0    0    0  0.00000000000E+00  0.00000000000E+00  0.45593999997E+02  0.45594000000E+02  0.51100000000E-03 0. -1.
         11   -1    0    0    0    0 -0.00000000000E+00 -0.00000000000E+00 -0.45593999997E+02  0.45594000000E+02  0.51100000000E-03 0.  1.
    9900012    2    1    2    0    0  0.20115673395E+02 -0.32421012880E+02  0.14049986829E+02  0.50528874060E+02  0.30000043193E+02 0.  0.
        -12    1    1    2    0    0 -0.20115673395E+02  0.32421012880E+02 -0.14049986829E+02  0.40659125940E+02  0.00000000000E+00 0.  1.
         11    1    3    3    0    0 -0.44313505953E+01 -0.11276669751E+02  0.31917631557E+01  0.12529465315E+02  0.51100000000E-03 0. -1.
        -11    1    3    3    0    0  0.30410332561E+00 -0.60171381568E+01 -0.24162319297E+01  0.64912716343E+01  0.51100000000E-03 0.  1.
        -12    1    3    3    0    0  0.24242920665E+02 -0.15127204972E+02  0.13274455603E+02  0.31508137111E+02  0.00000000000E+00 0.  1.
</event>
<event>
 7    1  0.2903212E-011  0.5052892E+02  0.7816164E-02  0.1300439E+00
        -11   -1    0    0    0    0  0.00000000000E+00  0.00000000000E+00  0.45593999997E+02  0.45594000000E+02  0.51100000000E-03 0.  1.
         11   -1    0    0    0    0 -0.00000000000E+00 -0.00000000000E+00 -0.45593999997E+02  0.45594000000E+02  0.51100000000E-03 0. -1.
    9900012    2    1    2    0    0  0.33744592190E+02  0.29632546527E+01  0.22487380620E+02  0.50528921464E+02  0.30000187282E+02 0.  0.
        -12    1    1    2    0    0 -0.33744592190E+02 -0.29632546527E+01 -0.22487380620E+02  0.40659078536E+02  0.00000000000E+00 0.  1.
         11    1    3    3    0    0  0.27402170133E+02 -0.63223497622E+01  0.75745925637E+01  0.29124310932E+02  0.51100000000E-03 0. -1.
        -11    1    3    3    0    0  0.65467165896E+01  0.33820781850E+01  0.27171635711E+01  0.78537207162E+01  0.51100000000E-03 0.  1.
         12    1    3    3    0    0 -0.20429453226E+00  0.59035262300E+01  0.12195624486E+02  0.13550889816E+02  0.00000000000E+00 0. -1.
</event>
<event>
 7    1  0.2903212E-011  0.5052886E+02  0.7816164E-02  0.1300439E+00
        -11   -1    0    0    0    0  0.00000000000E+00  0.00000000000E+00  0.45593999997E+02  0.45594000000E+02  0.51100000000E-03 0.  1.
         11   -1    0    0    0    0 -0.00000000000E+00 -0.00000000000E+00 -0.45593999997E+02  0.45594000000E+02  0.51100000000E-03 0. -1.
    9900012    2    1    2    0    0 -0.27910998282E+01  0.38120521593E+02 -0.13863657594E+02  0.50528863184E+02  0.30000010134E+02 0.  0.
        -12    1    1    2    0    0  0.27910998282E+01 -0.38120521593E+02  0.13863657594E+02  0.40659136816E+02  0.00000000000E+00 0.  1.
         11    1    3    3    0    0 -0.89093469139E+01  0.11788099858E+02 -0.59104277654E+01  0.15914424819E+02  0.51100000000E-03 0. -1.
        -11    1    3    3    0    0 -0.56442376695E+01  0.14392091542E+02  0.12202287136E+01  0.15507374897E+02  0.51100000000E-03 0.  1.
         12    1    3    3    0    0  0.11762484755E+02  0.11940330192E+02 -0.91734585422E+01  0.19107063467E+02  0.00000000000E+00 0. -1.
</event>
<event>
 7    1  0.2903212E-011  0.5052886E+02  0.7816164E-02  0.1300439E+00
        -11   -1    0    0    0    0  0.00000000000E+00  0.00000000000E+00  0.45593999997E+02  0.45594000000E+02  0.51100000000E-03 0.  1.
         11   -1    0    0    0    0 -0.00000000000E+00 -0.00000000000E+00 -0.45593999997E+02  0.45594000000E+02  0.51100000000E-03 0. -1.
    9900012    2    1    2    0    0 -0.34857206112E+02 -0.14125168196E+02 -0.15447340871E+02  0.50528861612E+02  0.30000005356E+02 0.  0.
        -12    1    1    2    0    0  0.34857206112E+02  0.14125168196E+02  0.15447340871E+02  0.40659138388E+02  0.00000000000E+00 0.  1.
         11    1    3    3    0    0 -0.43786221645E+01  0.30196007512E+01  0.41441371890E+01  0.67427141462E+01  0.51100000000E-03 0. -1.
        -11    1    3    3    0    0 -0.57536015595E+01  0.35956502915E+01 -0.46342422307E+01  0.82163759187E+01  0.51100000000E-03 0.  1.
         12    1    3    3    0    0 -0.24724982388E+02 -0.20740419238E+02 -0.14957235829E+02  0.35569771547E+02  0.00000000000E+00 0. -1.
</event>
<event>
 7    1  0.3585647E-011  0.5052883E+02  0.7816164E-02  0.1300439E+00
        -11   -1    0    0    0    0  0.00000000000E+00  0.00000000000E+00  0.45593999997E+02  0.45594000000E+02  0.51100000000E-03 0. -1.
         11   -1    0    0    0    0 -0.00000000000E+00 -0.00000000000E+00 -0.45593999997E+02  0.45594000000E+02  0.51100000000E-03 0.  1.
    9900012    2    1    2    0    0 -0.20006830778E+02  0.29947844529E+02  0.18868523598E+02  0.50528833106E+02  0.29999918710E+02 0.  0.
        -12    1    1    2    0    0  0.20006830778E+02 -0.29947844529E+02 -0.18868523598E+02  0.40659166894E+02  0.00000000000E+00 0.  1.
         11    1    3    3    0    0 -0.22632965771E+01  0.73325902113E+01  0.15935365687E+02  0.17686867174E+02  0.51100000000E-03 0. -1.
        -11    1    3    3    0    0  0.99413154631E+00  0.16315305123E+01 -0.34964993088E+01  0.39844318317E+01  0.51100000000E-03 0.  1.
         12    1    3    3    0    0 -0.18737665747E+02  0.20983723806E+02  0.64296572196E+01  0.28857534101E+02  0.00000000000E+00 0. -1.
</event>
<event>
 7    1  0.2903212E-011  0.5052881E+02  0.7816164E-02  0.1300439E+00
        -11   -1    0    0    0    0  0.00000000000E+00  0.00000000000E+00  0.45593999997E+02  0.45594000000E+02  0.51100000000E-03 0.  1.
         11   -1    0    0    0    0 -0.00000000000E+00 -0.00000000000E+00 -0.45593999997E+02  0.45594000000E+02  0.51100000000E-03 0. -1.
    9900012    2    1    2    0    0  0.10532075035E+02  0.38648879517E+02  0.69648551329E+01  0.50528810393E+02  0.29999849671E+02 0.  0.
        -12    1    1    2    0    0 -0.10532075035E+02 -0.38648879517E+02 -0.69648551329E+01  0.40659189607E+02  0.00000000000E+00 0.  1.
         11    1    3    3    0    0 -0.33054789344E+00  0.10258431927E+02 -0.70467766644E+01  0.12449969845E+02  0.51100000000E-03 0.  1.
        -11    1    3    3    0    0 -0.19612918813E+01  0.49518811000E+00 -0.25022216780E+01  0.32176063611E+01  0.51100000000E-03 0. -1.
        -12    1    3    3    0    0  0.12823914810E+02  0.27895259479E+02  0.16513853475E+02  0.34861234187E+02  0.00000000000E+00 0.  1.
</event>
<event>
 7    1  0.2903212E-011  0.5052886E+02  0.7816164E-02  0.1300439E+00
        -11   -1    0    0    0    0  0.00000000000E+00  0.00000000000E+00  0.45593999997E+02  0.45594000000E+02  0.51100000000E-03 0. -1.
         11   -1    0    0    0    0 -0.00000000000E+00 -0.00000000000E+00 -0.45593999997E+02  0.45594000000E+02  0.51100000000E-03 0.  1.
    9900012    2    1    2    0    0 -0.18197573809E+02 -0.88251978355E+01  0.35272221399E+02  0.50528863121E+02  0.30000009942E+02 0.  0.
        -12    1    1    2    0    0  0.18197573809E+02  0.88251978355E+01 -0.35272221399E+02  0.40659136879E+02  0.00000000000E+00 0.  1.
         11    1    3    3    0    0 -0.43252481199E+01 -0.56058746635E+01  0.18127378909E+02  0.19461127111E+02  0.51100000000E-03 0. -1.
        -11    1    3    3    0    0 -0.18708419904E+02 -0.47590934170E+01  0.17396240807E+02  0.25986210572E+02  0.51100000000E-03 0.  1.
        -12    1    3    3    0    0  0.48360942147E+01  0.15397702450E+01 -0.25139831745E+00  0.50815254378E+01  0.00000000000E+00 0.  1.
</event>
<event>
 7    1  0.2903212E-011  0.5052886E+02  0.7816164E-02  0.1300439E+00
        -11   -1    0    0    0    0  0.00000000000E+00  0.00000000000E+00  0.45593999997E+02  0.45594000000E+02  0.51100000000E-03 0.  1.
         11   -1    0    0    0    0 -0.00000000000E+00 -0.00000000000E+00 -0.45593999997E+02  0.45594000000E+02  0.51100000000E-03 0. -1.
    9900012    2    1    2    0    0  0.28420245078E+01 -0.44618075497E+01 -0.40313534956E+02  0.50528856741E+02  0.29999990549E+02 0.  0.
        -12    1    1    2    0    0 -0.28420245078E+01  0.44618075497E+01  0.40313534956E+02  0.40659143259E+02  0.00000000000E+00 0.  1.
         11    1    3    3    0    0 -0.47009319784E+00  0.23661967923E+01 -0.19449274544E+02  0.19598320219E+02  0.51100000000E-03 0. -1.
        -11    1    3    3    0    0 -0.63885658180E+01  0.29240050041E+01 -0.15102131211E+01  0.71863984308E+01  0.51100000000E-03 0.  1.
         12    1    3    3    0    0  0.97006835236E+01 -0.97520093460E+01 -0.19354047291E+02  0.23744138091E+02  0.00000000000E+00 0. -1.
</event>
<event>
 7    1  0.2903212E-011  0.5052886E+02  0.7816164E-02  0.1300439E+00
        -11   -1    0    0    0    0  0.00000000000E+00  0.00000000000E+00  0.45593999997E+02  0.45594000000E+02  0.51100000000E-03 0. -1.
         11   -1    0    0    0    0 -0.00000000000E+00 -0.00000000000E+00 -0.45593999997E+02  0.45594000000E+02  0.51100000000E-03 0.  1.
    9900012    2    1    2    0    0  0.65749956217E+01 -0.62904380339E+01  0.39627837675E+02  0.50528859615E+02  0.29999999285E+02 0.  0.
        -12    1    1    2    0    0 -0.65749956217E+01  0.62904380339E+01 -0.39627837675E+02  0.40659140385E+02  0.00000000000E+00 0.  1.
         11    1    3    3    0    0  0.31510904046E+01 -0.48738879139E+01  0.25560530618E+02  0.26211159453E+02  0.51100000000E-03 0.  1.
        -11    1    3    3    0    0 -0.34100885679E+01 -0.66171738996E+00  0.16623341980E+02  0.16982404800E+02  0.51100000000E-03 0. -1.
        -12    1    3    3    0    0  0.68339937850E+01 -0.75483273002E+00 -0.25560349239E+01  0.73352953612E+01  0.00000000000E+00 0.  1.
</event>
<event>
 7    1  0.2903212E-011  0.5052886E+02  0.7816164E-02  0.1300439E+00
        -11   -1    0    0    0    0  0.00000000000E+00  0.00000000000E+00  0.45593999997E+02  0.45594000000E+02  0.51100000000E-03 0.  1.
         11   -1    0    0    0    0 -0.00000000000E+00 -0.00000000000E+00 -0.45593999997E+02  0.45594000000E+02  0.51100000000E-03 0. -1.
    9900012    2    1    2    0    0  0.30547939880E+02 -0.44770100237E+00 -0.26828877044E+02  0.50528859447E+02  0.29999998775E+02 0.  0.
        -12    1    1    2    0    0 -0.30547939880E+02  0.44770100237E+00  0.26828877044E+02  0.40659140553E+02  0.00000000000E+00 0.  1.
         11    1    3    3    0    0  0.73679504257E+01  0.36057102296E+00 -0.12026671648E+01  0.74741630641E+01  0.51100000000E-03 0. -1.
        -11    1    3    3    0    0  0.10489074306E+02  0.11727432535E+02 -0.68636163156E+01  0.17165738634E+02  0.51100000000E-03 0.  1.
         12    1    3    3    0    0  0.12690915148E+02 -0.12535704560E+02 -0.18762593563E+02  0.25888957749E+02  0.00000000000E+00 0. -1.
</event>
<event>
 7    1  0.2903212E-011  0.5052886E+02  0.7816164E-02  0.1300439E+00
        -11   -1    0    0    0    0  0.00000000000E+00  0.00000000000E+00  0.45593999997E+02  0.45594000000E+02  0.51100000000E-03 0. -1.
         11   -1    0    0    0    0 -0.00000000000E+00 -0.00000000000E+00 -0.45593999997E+02  0.45594000000E+02  0.51100000000E-03 0.  1.
    9900012    2    1    2    0    0  0.32867254193E+02 -0.30226607188E+01  0.23743902088E+02  0.50528858809E+02  0.29999996837E+02 0.  0.
        -12    1    1    2    0    0 -0.32867254193E+02  0.30226607188E+01 -0.23743902088E+02  0.40659141191E+02  0.00000000000E+00 0.  1.
         11    1    3    3    0    0  0.62667852053E+01 -0.20812554278E+00  0.24009753300E+00  0.62748354670E+01  0.51100000000E-03 0. -1.
        -11    1    3    3    0    0  0.16868166521E+02 -0.10865190799E+02  0.31652838146E+01  0.20312716085E+02  0.51100000000E-03 0.  1.
        -12    1    3    3    0    0  0.97323024667E+01  0.80506556230E+01  0.20338520740E+02  0.23941307257E+02  0.00000000000E+00 0.  1.
</event>
<event>
 7    1  0.2903212E-011  0.5052885E+02  0.7816164E-02  0.1300439E+00
        -11   -1    0    0    0    0  0.00000000000E+00  0.00000000000E+00  0.45593999997E+02  0.45594000000E+02  0.51100000000E-03 0. -1.
         11   -1    0    0    0    0 -0.00000000000E+00 -0.00000000000E+00 -0.45593999997E+02  0.45594000000E+02  0.51100000000E-03 0.  1.
    9900012    2    1    2    0    0 -0.31616744145E+02 -0.11473851214E+02 -0.22845103167E+02  0.50528849607E+02  0.29999968865E+02 0.  0.
        -12    1    1    2    0    0  0.31616744145E+02  0.11473851214E+02  0.22845103167E+02  0.40659150393E+02  0.00000000000E+00 0.  1.
         11    1    3    3    0    0 -0.91920747900E+01 -0.11724510604E+02 -0.10331274700E+02  0.18129909681E+02  0.51100000000E-03 0. -1.
        -11    1    3    3    0    0 -0.45429871726E+01  0.22901253312E+01  0.51090068074E+01  0.72100871911E+01  0.51100000000E-03 0.  1.
         12    1    3    3    0    0 -0.17881682182E+02 -0.20394659407E+01 -0.17622835274E+02  0.25188852734E+02  0.00000000000E+00 0. -1.
</event>
<event>
 7    1  0.2903212E-011  0.5052887E+02  0.7816164E-02  0.1300439E+00
        -11   -1    0    0    0    0  0.00000000000E+00  0.00000000000E+00  0.45593999997E+02  0.45594000000E+02  0.51100000000E-03 0. -1.
         11   -1    0    0    0    0 -0.00000000000E+00 -0.00000000000E+00 -0.45593999997E+02  0.45594000000E+02  0.51100000000E-03 0.  1.
    9900012    2    1    2    0    0 -0.36122657110E+02 -0.59211139551E+01  0.17699131952E+02  0.50528865491E+02  0.30000017146E+02 0.  0.
        -12    1    1    2    0    0  0.36122657110E+02  0.59211139551E+01 -0.17699131952E+02  0.40659134509E+02  0.00000000000E+00 0.  1.
         11    1    3    3    0    0 -0.12535694600E+01 -0.23586492868E+00  0.90487746951E+01  0.91382379264E+01  0.51100000000E-03 0. -1.
        -11    1    3    3    0    0 -0.76117833310E+01 -0.96688045909E+01 -0.63249469428E+00  0.12321731919E+02  0.51100000000E-03 0.  1.
        -12    1    3    3    0    0 -0.27257304319E+02  0.39835555644E+01  0.92828519513E+01  0.29068895645E+02  0.00000000000E+00 0.  1.
</event>
<event>
 7    1  0.2903212E-011  0.5052885E+02  0.7816164E-02  0.1300439E+00
        -11   -1    0    0    0    0  0.00000000000E+00  0.00000000000E+00  0.45593999997E+02  0.45594000000E+02  0.51100000000E-03 0.  1.
         11   -1    0    0    0    0 -0.00000000000E+00 -0.00000000000E+00 -0.45593999997E+02  0.45594000000E+02  0.51100000000E-03 0. -1.
    9900012    2    1    2    0    0 -0.14835201473E+01  0.40483397616E+02 -0.34727713664E+01  0.50528850285E+02  0.29999970927E+02 0.  0.
        -12    1    1    2    0    0  0.14835201473E+01 -0.40483397616E+02  0.34727713664E+01  0.40659149715E+02  0.00000000000E+00 0.  1.
         11    1    3    3    0    0 -0.40074275395E+01  0.34485158713E+02  0.80388062153E+01  0.35635769285E+02  0.51100000000E-03 0. -1.
        -11    1    3    3    0    0 -0.10094032244E+01  0.74817818259E+00  0.47120391112E+00  0.13419012069E+01  0.51100000000E-03 0.  1.
         12    1    3    3    0    0  0.35333106166E+01  0.52500607207E+01 -0.11982781493E+02  0.13551179793E+02  0.00000000000E+00 0. -1.
</event>
<event>
 7    1  0.2903212E-011  0.5052886E+02  0.7816164E-02  0.1300439E+00
        -11   -1    0    0    0    0  0.00000000000E+00  0.00000000000E+00  0.45593999997E+02  0.45594000000E+02  0.51100000000E-03 0.  1.
         11   -1    0    0    0    0 -0.00000000000E+00 -0.00000000000E+00 -0.45593999997E+02  0.45594000000E+02  0.51100000000E-03 0. -1.
    9900012    2    1    2    0    0 -0.11706717087E+02 -0.18564352302E+01 -0.38893086308E+02  0.50528859093E+02  0.29999997699E+02 0.  0.
        -12    1    1    2    0    0  0.11706717087E+02  0.18564352302E+01  0.38893086308E+02  0.40659140907E+02  0.00000000000E+00 0.  1.
         11    1    3    3    0    0 -0.42001851566E+01 -0.64570588345E+01 -0.17418646304E+02  0.19045850033E+02  0.51100000000E-03 0. -1.
        -11    1    3    3    0    0 -0.10114517484E+01 -0.16395833267E+01  0.40126906534E+01  0.44511745265E+01  0.51100000000E-03 0.  1.
         12    1    3    3    0    0 -0.64950801820E+01  0.62402069310E+01 -0.25487130658E+02  0.27031834534E+02  0.00000000000E+00 0. -1.
</event>
<event>
 7    1  0.2903212E-011  0.5052887E+02  0.7816164E-02  0.1300439E+00
        -11   -1    0    0    0    0  0.00000000000E+00  0.00000000000E+00  0.45593999997E+02  0.45594000000E+02  0.51100000000E-03 0. -1.
         11   -1    0    0    0    0 -0.00000000000E+00 -0.00000000000E+00 -0.45593999997E+02  0.45594000000E+02  0.51100000000E-03 0.  1.
    9900012    2    1    2    0    0 -0.40345297004E+02  0.52874038446E+00  0.50142421630E+01  0.50528865956E+02  0.30000018561E+02 0.  0.
        -12    1    1    2    0    0  0.40345297004E+02 -0.52874038446E+00 -0.50142421630E+01  0.40659134044E+02  0.00000000000E+00 0.  1.
         11    1    3    3    0    0 -0.14854966931E+02 -0.70738146862E+01 -0.58612980198E+01  0.17466073156E+02  0.51100000000E-03 0. -1.
        -11    1    3    3    0    0 -0.41081559406E+01 -0.36462364522E+01 -0.17983903819E+01  0.57798091426E+01  0.51100000000E-03 0.  1.
        -12    1    3    3    0    0 -0.21382174132E+02  0.11248791523E+02  0.12673930565E+02  0.27282983658E+02  0.00000000000E+00 0.  1.
</event>
<event>
 7    1  0.2903212E-011  0.5052887E+02  0.7816164E-02  0.1300439E+00
        -11   -1    0    0    0    0  0.00000000000E+00  0.00000000000E+00  0.45593999997E+02  0.45594000000E+02  0.51100000000E-03 0.  1.
         11   -1    0    0    0    0 -0.00000000000E+00 -0.00000000000E+00 -0.45593999997E+02  0.45594000000E+02  0.51100000000E-03 0. -1.
    9900012    2    1    2    0    0 -0.13483627463E+02  0.28407481382E+02 -0.25775414118E+02  0.50528865959E+02  0.30000018569E+02 0.  0.
        -12    1    1    2    0    0  0.13483627463E+02 -0.28407481382E+02  0.25775414118E+02  0.40659134041E+02  0.00000000000E+00 0.  1.
         11    1    3    3    0    0 -0.14332362698E+02  0.13802627294E+02 -0.17714794079E+02  0.26641003552E+02  0.51100000000E-03 0. -1.
        -11    1    3    3    0    0 -0.48351014067E+01  0.84096385119E+01  0.28529291514E+01  0.10111351567E+02  0.51100000000E-03 0.  1.
         12    1    3    3    0    0  0.56838366412E+01  0.61952155757E+01 -0.10913549190E+02  0.13776510840E+02  0.00000000000E+00 0. -1.
</event>
<event>
 7    1  0.2903212E-011  0.5052886E+02  0.7816164E-02  0.1300439E+00
        -11   -1    0    0    0    0  0.00000000000E+00  0.00000000000E+00  0.45593999997E+02  0.45594000000E+02  0.51100000000E-03 0.  1.
         11   -1    0    0    0    0 -0.00000000000E+00 -0.00000000000E+00 -0.45593999997E+02  0.45594000000E+02  0.51100000000E-03 0. -1.
    9900012    2    1    2    0    0  0.26681128161E+02  0.77911286829E+01 -0.29674591883E+02  0.50528859705E+02  0.29999999560E+02 0.  0.
        -12    1    1    2    0    0 -0.26681128161E+02 -0.77911286829E+01  0.29674591883E+02  0.40659140295E+02  0.00000000000E+00 0.  1.
         11    1    3    3    0    0  0.69247264058E+01  0.25091695572E+00 -0.82575377948E+01  0.10779690432E+02  0.51100000000E-03 0. -1.
        -11    1    3    3    0    0  0.62166314651E+01 -0.95515242058E+01 -0.49505781897E+01  0.12425230223E+02  0.51100000000E-03 0.  1.
        -12    1    3    3    0    0  0.13539770290E+02  0.17091735933E+02 -0.16466475899E+02  0.27323939050E+02  0.00000000000E+00 0.  1.
</event>
<event>
 7    1  0.2903212E-011  0.5052896E+02  0.7816164E-02  0.1300438E+00
        -11   -1    0    0    0    0  0.00000000000E+00  0.00000000000E+00  0.45593999997E+02  0.45594000000E+02  0.51100000000E-03 0.  1.
         11   -1    0    0    0    0 -0.00000000000E+00 -0.00000000000E+00 -0.45593999997E+02  0.45594000000E+02  0.51100000000E-03 0. -1.
    9900012    2    1    2    0    0 -0.10251756778E+02  0.31297530645E+02 -0.23843731323E+02  0.50528960846E+02  0.30000306986E+02 0.  0.
        -12    1    1    2    0    0  0.10251756778E+02 -0.31297530645E+02  0.23843731323E+02  0.40659039154E+02  0.00000000000E+00 0.  1.
         11    1    3    3    0    0 -0.17894318513E+01  0.25864717473E+01 -0.10360793145E+02  0.10827646896E+02  0.51100000000E-03 0. -1.
        -11    1    3    3    0    0 -0.15104299257E+02  0.25775513989E+02 -0.91487884652E+01  0.31244476441E+02  0.51100000000E-03 0.  1.
         12    1    3    3    0    0  0.66419743300E+01  0.29355449086E+01 -0.43341497131E+01  0.84568375085E+01  0.00000000000E+00 0. -1.
</event>
<event>
 7    1  0.2903212E-011  0.5052886E+02  0.7816164E-02  0.1300439E+00
        -11   -1    0    0    0    0  0.00000000000E+00  0.00000000000E+00  0.45593999997E+02  0.45594000000E+02  0.51100000000E-03 0.  1.
         11   -1    0    0    0    0 -0.00000000000E+00 -0.00000000000E+00 -0.45593999997E+02  0.45594000000E+02  0.51100000000E-03 0. -1.
    9900012    2    1    2    0    0 -0.20638800528E+01 -0.24050753199E+02 -0.32718002960E+02  0.50528855297E+02  0.29999986161E+02 0.  0.
        -12    1    1    2    0    0  0.20638800528E+01  0.24050753199E+02  0.32718002960E+02  0.40659144703E+02  0.00000000000E+00 0.  1.
         11    1    3    3    0    0 -0.19152513224E+01  0.18629951911E+01 -0.50492695520E+00  0.27191708665E+01  0.51100000000E-03 0. -1.
        -11    1    3    3    0    0  0.27033875617E+01 -0.34762526882E+01  0.34395933877E+01  0.55877938397E+01  0.51100000000E-03 0.  1.
         12    1    3    3    0    0 -0.28520162921E+01 -0.22437495702E+02 -0.35652669392E+02  0.42221890591E+02  0.00000000000E+00 0. -1.
</event>
<event>
 7    1  0.2903212E-011  0.5052886E+02  0.7816164E-02  0.1300439E+00
        -11   -1    0    0    0    0  0.00000000000E+00  0.00000000000E+00  0.45593999997E+02  0.45594000000E+02  0.51100000000E-03 0. -1.
         11   -1    0    0    0    0 -0.00000000000E+00 -0.00000000000E+00 -0.45593999997E+02  0.45594000000E+02  0.51100000000E-03 0.  1.
    9900012    2    1    2    0    0 -0.33330090263E+02 -0.12719281829E+02  0.19506169937E+02  0.50528859419E+02  0.29999998689E+02 0.  0.
        -12    1    1    2    0    0  0.33330090263E+02  0.12719281829E+02 -0.19506169937E+02  0.40659140581E+02  0.00000000000E+00 0.  1.
         11    1    3    3    0    0  0.41745007522E+01 -0.48583513746E+01  0.62932749424E+01  0.89797185018E+01  0.51100000000E-03 0. -1.
        -11    1    3    3    0    0 -0.10032630520E+02 -0.42719530134E+01  0.75715554629E+01  0.13275229192E+02  0.51100000000E-03 0.  1.
        -12    1    3    3    0    0 -0.27471960495E+02 -0.35889774409E+01  0.56413395318E+01  0.28273911725E+02  0.00000000000E+00 0.  1.
</event>
<event>
 7    1  0.2903212E-011  0.5052889E+02  0.7816164E-02  0.1300439E+00
        -11   -1    0    0    0    0  0.00000000000E+00  0.00000000000E+00  0.45593999997E+02  0.45594000000E+02  0.51100000000E-03 0.  1.
         11   -1    0    0    0    0 -0.00000000000E+00 -0.00000000000E+00 -0.45593999997E+02  0.45594000000E+02  0.51100000000E-03 0. -1.
    9900012    2    1    2    0    0 -0.21735799400E+02 -0.34331378773E+02  0.14403729591E+01  0.50528890095E+02  0.30000091932E+02 0.  0.
        -12    1    1    2    0    0  0.21735799400E+02  0.34331378773E+02 -0.14403729591E+01  0.40659109905E+02  0.00000000000E+00 0.  1.
         11    1    3    3    0    0 -0.46291249568E+01 -0.69280632995E+01  0.26719218047E+01  0.87502014456E+01  0.51100000000E-03 0. -1.
        -11    1    3    3    0    0  0.75519591056E+00 -0.20950485002E+02  0.54242283357E+01  0.21654454414E+02  0.51100000000E-03 0.  1.
         12    1    3    3    0    0 -0.17861870354E+02 -0.64528304715E+01 -0.66557771813E+01  0.20124234235E+02  0.00000000000E+00 0. -1.
</event>
<event>
 7    1  0.2903212E-011  0.5052885E+02  0.7816164E-02  0.1300439E+00
        -11   -1    0    0    0    0  0.00000000000E+00  0.00000000000E+00  0.45593999997E+02  0.45594000000E+02  0.51100000000E-03 0.  1.
         11   -1    0    0    0    0 -0.00000000000E+00 -0.00000000000E+00 -0.45593999997E+02  0.45594000000E+02  0.51100000000E-03 0. -1.
    9900012    2    1    2    0    0  0.30839193972E+02 -0.18848975994E+02 -0.18623278605E+02  0.50528852359E+02  0.29999977231E+02 0.  0.
        -12    1    1    2    0    0 -0.30839193972E+02  0.18848975994E+02  0.18623278605E+02  0.40659147641E+02  0.00000000000E+00 0.  1.
         11    1    3    3    0    0  0.29201000235E+00  0.65501269223E+00 -0.12128728456E+01  0.14090323876E+01  0.51100000000E-03 0. -1.
        -11    1    3    3    0    0 -0.51011528476E+01 -0.45664946978E+01 -0.30724960092E+00  0.68533960033E+01  0.51100000000E-03 0.  1.
         12    1    3    3    0    0  0.35648336817E+02 -0.14937493989E+02 -0.17103156159E+02  0.42266423968E+02  0.00000000000E+00 0. -1.
</event>
<event>
 7    1  0.2903212E-011  0.5052889E+02  0.7816164E-02  0.1300439E+00
        -11   -1    0    0    0    0  0.00000000000E+00  0.00000000000E+00  0.45593999997E+02  0.45594000000E+02  0.51100000000E-03 0. -1.
         11   -1    0    0    0    0 -0.00000000000E+00 -0.00000000000E+00 -0.45593999997E+02  0.45594000000E+02  0.51100000000E-03 0.  1.
    9900012    2    1    2    0    0  0.23882279846E+02 -0.31305974269E+02  0.10135889765E+02  0.50528885685E+02  0.30000078528E+02 0.  0.
        -12    1    1    2    0    0 -0.23882279846E+02  0.31305974269E+02 -0.10135889765E+02  0.40659114315E+02  0.00000000000E+00 0.  1.
         11    1    3    3    0    0  0.56820105304E+01  0.89328929738E+00 -0.17780046790E+01  0.60203413804E+01  0.51100000000E-03 0.  1.
        -11    1    3    3    0    0  0.10849040652E+02 -0.27257741568E+01 -0.15294913149E+01  0.11290299897E+02  0.51100000000E-03 0. -1.
         12    1    3    3    0    0  0.73512286629E+01 -0.29473489410E+02  0.13443385759E+02  0.33218244407E+02  0.00000000000E+00 0. -1.
</event>
<event>
 7    1  0.2903212E-011  0.5052886E+02  0.7816164E-02  0.1300439E+00
        -11   -1    0    0    0    0  0.00000000000E+00  0.00000000000E+00  0.45593999997E+02  0.45594000000E+02  0.51100000000E-03 0. -1.
         11   -1    0    0    0    0 -0.00000000000E+00 -0.00000000000E+00 -0.45593999997E+02  0.45594000000E+02  0.51100000000E-03 0.  1.
    9900012    2    1    2    0    0 -0.20771432761E+02 -0.28851982297E+02  0.19730096914E+02  0.50528855571E+02  0.29999986995E+02 0.  0.
        -12    1    1    2    0    0  0.20771432761E+02  0.28851982297E+02 -0.19730096914E+02  0.40659144429E+02  0.00000000000E+00 0.  1.
         11    1    3    3    0    0 -0.34331652529E+01 -0.93940972664E+01  0.13771592294E+02  0.17020353747E+02  0.51100000000E-03 0.  1.
        -11    1    3    3    0    0  0.23170731476E+01 -0.99373594191E+01  0.56561454507E+01  0.11666701411E+02  0.51100000000E-03 0. -1.
        -12    1    3    3    0    0 -0.19655340656E+02 -0.95205256114E+01  0.30235916942E+00  0.21841800413E+02  0.00000000000E+00 0.  1.
</event>
<event>
 7    1  0.2903212E-011  0.5052887E+02  0.7816164E-02  0.1300439E+00
        -11   -1    0    0    0    0  0.00000000000E+00  0.00000000000E+00  0.45593999997E+02  0.45594000000E+02  0.51100000000E-03 0.  1.
         11   -1    0    0    0    0 -0.00000000000E+00 -0.00000000000E+00 -0.45593999997E+02  0.45594000000E+02  0.51100000000E-03 0. -1.
    9900012    2    1    2    0    0  0.21144656175E+02  0.15557555827E+02 -0.31048851885E+02  0.50528865338E+02  0.30000016683E+02 0.  0.
        -12    1    1    2    0    0 -0.21144656175E+02 -0.15557555827E+02  0.31048851885E+02  0.40659134662E+02  0.00000000000E+00 0.  1.
         11    1    3    3    0    0 -0.69657766097E+00  0.16585668122E+01 -0.74338852609E+01  0.76484452434E+01  0.51100000000E-03 0. -1.
        -11    1    3    3    0    0  0.42544261356E+01 -0.24636669825E+01  0.39578222804E+01  0.63114304407E+01  0.51100000000E-03 0.  1.
         12    1    3    3    0    0  0.17586807700E+02  0.16362655997E+02 -0.27572788904E+02  0.36568989654E+02  0.00000000000E+00 0. -1.
</event>
<event>
 7    1  0.2903212E-011  0.5052886E+02  0.7816164E-02  0.1300439E+00
        -11   -1    0    0    0    0  0.00000000000E+00  0.00000000000E+00  0.45593999997E+02  0.45594000000E+02  0.51100000000E-03 0. -1.
         11   -1    0    0    0    0 -0.00000000000E+00 -0.00000000000E+00 -0.45593999997E+02  0.45594000000E+02  0.51100000000E-03 0.  1.
    9900012    2    1    2    0    0  0.13283226224E+02  0.26067777070E+02  0.28234602574E+02  0.50528857328E+02  0.29999992334E+02 0.  0.
        -12    1    1    2    0    0 -0.13283226224E+02 -0.26067777070E+02 -0.28234602574E+02  0.40659142672E+02  0.00000000000E+00 0.  1.
         11    1    3    3    0    0  0.15785496826E+02  0.90622243292E+01  0.19632592691E+02  0.26772084638E+02  0.51100000000E-03 0. -1.
        -11    1    3    3    0    0 -0.13126956114E+01 -0.23349783539E+01  0.37210396261E+00  0.27043955520E+01  0.51100000000E-03 0.  1.
        -12    1    3    3    0    0 -0.11895749907E+01  0.19340531095E+02  0.82299059210E+01  0.21052377138E+02  0.00000000000E+00 0.  1.
</event>
<event>
 7    1  0.2903212E-011  0.5052887E+02  0.7816164E-02  0.1300439E+00
        -11   -1    0    0    0    0  0.00000000000E+00  0.00000000000E+00  0.45593999997E+02  0.45594000000E+02  0.51100000000E-03 0.  1.
         11   -1    0    0    0    0 -0.00000000000E+00 -0.00000000000E+00 -0.45593999997E+02  0.45594000000E+02  0.51100000000E-03 0. -1.
    9900012    2    1    2    0    0  0.27666013202E+02  0.14081921724E+02 -0.26257492494E+02  0.50528871652E+02  0.30000035874E+02 0.  0.
        -12    1    1    2    0    0 -0.27666013202E+02 -0.14081921724E+02  0.26257492494E+02  0.40659128348E+02  0.00000000000E+00 0.  1.
         11    1    3    3    0    0  0.34537868881E+01  0.68485489662E+01 -0.80665549405E+01  0.11131063547E+02  0.51100000000E-03 0. -1.
        -11    1    3    3    0    0  0.38275124403E+01  0.13057949565E+02 -0.54143976510E+01  0.14644985507E+02  0.51100000000E-03 0.  1.
        -12    1    3    3    0    0  0.20384713874E+02 -0.58245768071E+01 -0.12776539902E+02  0.24752822598E+02  0.00000000000E+00 0.  1.
</event>
<event>
 7    1  0.2903212E-011  0.5052886E+02  0.7816164E-02  0.1300439E+00
        -11   -1    0    0    0    0  0.00000000000E+00  0.00000000000E+00  0.45593999997E+02  0.45594000000E+02  0.51100000000E-03 0.  1.
         11   -1    0    0    0    0 -0.00000000000E+00 -0.00000000000E+00 -0.45593999997E+02  0.45594000000E+02  0.51100000000E-03 0. -1.
    9900012    2    1    2    0    0  0.97607273897E+00  0.30747246386E+02 -0.26586080907E+02  0.50528861097E+02  0.30000003791E+02 0.  0.
        -12    1    1    2    0    0 -0.97607273897E+00 -0.30747246386E+02  0.26586080907E+02  0.40659138903E+02  0.00000000000E+00 0.  1.
         11    1    3    3    0    0 -0.41172652864E+01  0.17805752363E+02 -0.10962117630E+02  0.21311140604E+02  0.51100000000E-03 0. -1.
        -11    1    3    3    0    0 -0.40259830275E+01  0.12263073459E+02 -0.23818050513E+01  0.13124957355E+02  0.51100000000E-03 0.  1.
         12    1    3    3    0    0  0.91193210529E+01  0.67842056345E+00 -0.13242158226E+02  0.16092763138E+02  0.00000000000E+00 0. -1.
</event>
<event>
 7    1  0.2903212E-011  0.5052886E+02  0.7816164E-02  0.1300439E+00
        -11   -1    0    0    0    0  0.00000000000E+00  0.00000000000E+00  0.45593999997E+02  0.45594000000E+02  0.51100000000E-03 0.  1.
         11   -1    0    0    0    0 -0.00000000000E+00 -0.00000000000E+00 -0.45593999997E+02  0.45594000000E+02  0.51100000000E-03 0. -1.
    9900012    2    1    2    0    0 -0.27127350298E+02 -0.54125395826E+01 -0.29798945348E+02  0.50528857574E+02  0.29999993083E+02 0.  0.
        -12    1    1    2    0    0  0.27127350298E+02  0.54125395826E+01  0.29798945348E+02  0.40659142426E+02  0.00000000000E+00 0.  1.
         11    1    3    3    0    0 -0.96367044183E+01 -0.39829957721E+01 -0.21804379484E+01  0.10652916843E+02  0.51100000000E-03 0. -1.
        -11    1    3    3    0    0 -0.19400213260E+02  0.51917932933E+00 -0.95994499576E+01  0.21651495594E+02  0.51100000000E-03 0.  1.
        -12    1    3    3    0    0  0.19095673799E+01 -0.19487231399E+01 -0.18019057442E+02  0.18224445137E+02  0.00000000000E+00 0.  1.
</event>
<event>
 7    1  0.2903212E-011  0.5052886E+02  0.7816164E-02  0.1300439E+00
        -11   -1    0    0    0    0  0.00000000000E+00  0.00000000000E+00  0.45593999997E+02  0.45594000000E+02  0.51100000000E-03 0.  1.
         11   -1    0    0    0    0 -0.00000000000E+00 -0.00000000000E+00 -0.45593999997E+02  0.45594000000E+02  0.51100000000E-03 0. -1.
    9900012    2    1    2    0    0 -0.77537901593E+01  0.37099550310E+02 -0.14719639025E+02  0.50528859969E+02  0.30000000362E+02 0.  0.
        -12    1    1    2    0    0  0.77537901593E+01 -0.37099550310E+02  0.14719639025E+02  0.40659140031E+02  0.00000000000E+00 0.  1.
         11    1    3    3    0    0 -0.80347285831E+01  0.37074881375E+01  0.11872918364E+01  0.89281573609E+01  0.51100000000E-03 0. -1.
        -11    1    3    3    0    0 -0.61429077032E+01  0.55359416354E+01 -0.89373858385E+01  0.12176158291E+02  0.51100000000E-03 0.  1.
        -12    1    3    3    0    0  0.64238461270E+01  0.27856120537E+02 -0.69695450224E+01  0.29424544317E+02  0.00000000000E+00 0.  1.
</event>
<event>
 7    1  0.2903212E-011  0.5052885E+02  0.7816164E-02  0.1300439E+00
        -11   -1    0    0    0    0  0.00000000000E+00  0.00000000000E+00  0.45593999997E+02  0.45594000000E+02  0.51100000000E-03 0.  1.
         11   -1    0    0    0    0 -0.00000000000E+00 -0.00000000000E+00 -0.45593999997E+02  0.45594000000E+02  0.51100000000E-03 0. -1.
    9900012    2    1    2    0    0  0.40288769120E+01 -0.21169845661E+02 -0.34478573521E+02  0.50528852856E+02  0.29999978740E+02 0.  0.
        -12    1    1    2    0    0 -0.40288769120E+01  0.21169845661E+02  0.34478573521E+02  0.40659147144E+02  0.00000000000E+00 0.  1.
         11    1    3    3    0    0  0.14569885957E+01 -0.16809690189E+01 -0.20256979011E+02  0.20378755397E+02  0.51100000000E-03 0. -1.
        -11    1    3    3    0    0 -0.19247686081E+01  0.30475066659E+01 -0.19658012836E+01  0.41056553705E+01  0.51100000000E-03 0.  1.
        -12    1    3    3    0    0  0.44966569244E+01 -0.22536383308E+02 -0.12255793226E+02  0.26044442088E+02  0.00000000000E+00 0.  1.
</event>
<event>
 7    1  0.2903212E-011  0.5052886E+02  0.7816164E-02  0.1300439E+00
        -11   -1    0    0    0    0  0.00000000000E+00  0.00000000000E+00  0.45593999997E+02  0.45594000000E+02  0.51100000000E-03 0.  1.
         11   -1    0    0    0    0 -0.00000000000E+00 -0.00000000000E+00 -0.45593999997E+02  0.45594000000E+02  0.51100000000E-03 0. -1.
    9900012    2    1    2    0    0  0.15363043098E+02 -0.28673099958E+02 -0.24392530993E+02  0.50528864216E+02  0.30000013270E+02 0.  0.
        -12    1    1    2    0    0 -0.15363043098E+02  0.28673099958E+02  0.24392530993E+02  0.40659135784E+02  0.00000000000E+00 0.  1.
         11    1    3    3    0    0  0.16244132681E+02 -0.93555329010E+01 -0.57965658050E+01  0.19621366360E+02  0.51100000000E-03 0.  1.
        -11    1    3    3    0    0  0.54098568059E+01 -0.11852866391E+02 -0.45467048851E+01  0.13799620209E+02  0.51100000000E-03 0. -1.
         12    1    3    3    0    0 -0.62909463891E+01 -0.74647006662E+01 -0.14049260303E+02  0.17107877647E+02  0.00000000000E+00 0. -1.
</event>
<event>
 7    1  0.2903212E-011  0.5052885E+02  0.7816164E-02  0.1300439E+00
        -11   -1    0    0    0    0  0.00000000000E+00  0.00000000000E+00  0.45593999997E+02  0.45594000000E+02  0.51100000000E-03 0.  1.
         11   -1    0    0    0    0 -0.00000000000E+00 -0.00000000000E+00 -0.45593999997E+02  0.45594000000E+02  0.51100000000E-03 0. -1.
    9900012    2    1    2    0    0 -0.29184227306E+02  0.22282213593E+02 -0.17462819023E+02  0.50528853252E+02  0.29999979944E+02 0.  0.
        -12    1    1    2    0    0  0.29184227306E+02 -0.22282213593E+02  0.17462819023E+02  0.40659146748E+02  0.00000000000E+00 0.  1.
         11    1    3    3    0    0  0.20844560277E+01  0.57927691845E+01 -0.11643623753E+02  0.13170994880E+02  0.51100000000E-03 0. -1.
        -11    1    3    3    0    0 -0.14962869674E+02  0.91114236293E+01 -0.81276067488E+01  0.19312262974E+02  0.51100000000E-03 0.  1.
        -12    1    3    3    0    0 -0.16305813660E+02  0.73780207794E+01  0.23084114792E+01  0.18045595398E+02  0.00000000000E+00 0.  1.
</event>
<event>
 7    1  0.2903212E-011  0.5052886E+02  0.7816164E-02  0.1300439E+00
        -11   -1    0    0    0    0  0.00000000000E+00  0.00000000000E+00  0.45593999997E+02  0.45594000000E+02  0.51100000000E-03 0.  1.
         11   -1    0    0    0    0 -0.00000000000E+00 -0.00000000000E+00 -0.45593999997E+02  0.45594000000E+02  0.51100000000E-03 0. -1.
    9900012    2    1    2    0    0  0.27162184323E+02  0.15549301522E+02 -0.25953810595E+02  0.50528864256E+02  0.30000013394E+02 0.  0.
        -12    1    1    2    0    0 -0.27162184323E+02 -0.15549301522E+02  0.25953810595E+02  0.40659135744E+02  0.00000000000E+00 0.  1.
         11    1    3    3    0    0  0.10820331047E+02  0.17761423636E+02 -0.20818260317E+02  0.29426989251E+02  0.51100000000E-03 0. -1.
        -11    1    3    3    0    0  0.22889601473E+01 -0.27872728468E+01 -0.60109777470E+01  0.70099987314E+01  0.51100000000E-03 0.  1.
        -12    1    3    3    0    0  0.14052893129E+02  0.57515073315E+00  0.87542746898E+00  0.14091876274E+02  0.00000000000E+00 0.  1.
</event>
<event>
 7    1  0.2903212E-011  0.5052886E+02  0.7816164E-02  0.1300439E+00
        -11   -1    0    0    0    0  0.00000000000E+00  0.00000000000E+00  0.45593999997E+02  0.45594000000E+02  0.51100000000E-03 0.  1.
         11   -1    0    0    0    0 -0.00000000000E+00 -0.00000000000E+00 -0.45593999997E+02  0.45594000000E+02  0.51100000000E-03 0. -1.
    9900012    2    1    2    0    0  0.19629712290E+02  0.85599311621E+01 -0.34562515378E+02  0.50528862093E+02  0.30000006818E+02 0.  0.
        -12    1    1    2    0    0 -0.19629712290E+02 -0.85599311621E+01  0.34562515378E+02  0.40659137907E+02  0.00000000000E+00 0.  1.
         11    1    3    3    0    0  0.11480017408E+02  0.66595806477E+01 -0.21930454469E+02  0.25633681897E+02  0.51100000000E-03 0. -1.
        -11    1    3    3    0    0  0.80787204767E+01  0.98042547136E+01 -0.43036921201E+01  0.13413086936E+02  0.51100000000E-03 0.  1.
         12    1    3    3    0    0  0.70974404881E-01 -0.79039041992E+01 -0.83283687884E+01  0.11482093260E+02  0.00000000000E+00 0. -1.
</event>
<event>
 7    1  0.2903212E-011  0.5052886E+02  0.7816164E-02  0.1300439E+00
        -11   -1    0    0    0    0  0.00000000000E+00  0.00000000000E+00  0.45593999997E+02  0.45594000000E+02  0.51100000000E-03 0.  1.
         11   -1    0    0    0    0 -0.00000000000E+00 -0.00000000000E+00 -0.45593999997E+02  0.45594000000E+02  0.51100000000E-03 0. -1.
    9900012    2    1    2    0    0 -0.10907224965E+02  0.33787354678E+01 -0.39022847759E+02  0.50528855186E+02  0.29999985824E+02 0.  0.
        -12    1    1    2    0    0  0.10907224965E+02 -0.33787354678E+01  0.39022847759E+02  0.40659144814E+02  0.00000000000E+00 0.  1.
         11    1    3    3    0    0 -0.84973155324E+00 -0.83121728590E+01 -0.17293229755E+02  0.19205990132E+02  0.51100000000E-03 0. -1.
        -11    1    3    3    0    0  0.26890425164E+01 -0.51589427775E-01  0.88471599158E+00  0.28313130825E+01  0.51100000000E-03 0.  1.
         12    1    3    3    0    0 -0.12746535928E+02  0.11742497755E+02 -0.22614333996E+02  0.28491551971E+02  0.00000000000E+00 0. -1.
</event>
<event>
 7    1  0.2903212E-011  0.5052885E+02  0.7816164E-02  0.1300439E+00
        -11   -1    0    0    0    0  0.00000000000E+00  0.00000000000E+00  0.45593999997E+02  0.45594000000E+02  0.51100000000E-03 0.  1.
         11   -1    0    0    0    0 -0.00000000000E+00 -0.00000000000E+00 -0.45593999997E+02  0.45594000000E+02  0.51100000000E-03 0. -1.
    9900012    2    1    2    0    0 -0.25467557723E+01  0.40500044162E+02 -0.25350659847E+01  0.50528854637E+02  0.29999984156E+02 0.  0.
        -12    1    1    2    0    0  0.25467557723E+01 -0.40500044162E+02  0.25350659847E+01  0.40659145363E+02  0.00000000000E+00 0.  1.
         11    1    3    3    0    0  0.21918892591E+01 -0.59883438672E+00  0.28609645154E+00  0.22901599480E+01  0.51100000000E-03 0. -1.
        -11    1    3    3    0    0  0.77352046598E+01  0.20155868024E+02  0.58471378054E+01  0.22366971804E+02  0.51100000000E-03 0.  1.
         12    1    3    3    0    0 -0.12473849691E+02  0.20943010525E+02 -0.86683002416E+01  0.25871722885E+02  0.00000000000E+00 0. -1.
</event>
<event>
 7    1  0.2903212E-011  0.5052886E+02  0.7816164E-02  0.1300439E+00
        -11   -1    0    0    0    0  0.00000000000E+00  0.00000000000E+00  0.45593999997E+02  0.45594000000E+02  0.51100000000E-03 0. -1.
         11   -1    0    0    0    0 -0.00000000000E+00 -0.00000000000E+00 -0.45593999997E+02  0.45594000000E+02  0.51100000000E-03 0.  1.
    9900012    2    1    2    0    0 -0.33642131325E+02 -0.14274413446E+02 -0.17821711006E+02  0.50528864956E+02  0.30000015520E+02 0.  0.
        -12    1    1    2    0    0  0.33642131325E+02  0.14274413446E+02  0.17821711006E+02  0.40659135044E+02  0.00000000000E+00 0.  1.
         11    1    3    3    0    0 -0.11595619902E+02 -0.78167510662E+01 -0.16328598998E+02  0.21498445145E+02  0.51100000000E-03 0.  1.
        -11    1    3    3    0    0 -0.89538059320E+00 -0.74245080597E+01  0.15569096731E+01  0.76386513421E+01  0.51100000000E-03 0. -1.
        -12    1    3    3    0    0 -0.21151130831E+02  0.96684567975E+00 -0.30500216809E+01  0.21391768469E+02  0.00000000000E+00 0.  1.
</event>
<event>
 7    1  0.2903212E-011  0.5052886E+02  0.7816164E-02  0.1300439E+00
        -11   -1    0    0    0    0  0.00000000000E+00  0.00000000000E+00  0.45593999997E+02  0.45594000000E+02  0.51100000000E-03 0. -1.
         11   -1    0    0    0    0 -0.00000000000E+00 -0.00000000000E+00 -0.45593999997E+02  0.45594000000E+02  0.51100000000E-03 0.  1.
    9900012    2    1    2    0    0 -0.92792596597E+01  0.38499924175E+02  0.92096116009E+01  0.50528858750E+02  0.29999996658E+02 0.  0.
        -12    1    1    2    0    0  0.92792596597E+01 -0.38499924175E+02 -0.92096116009E+01  0.40659141250E+02  0.00000000000E+00 0.  1.
         11    1    3    3    0    0 -0.95612441640E+00  0.32253158572E+02  0.13193899909E+02  0.34860570948E+02  0.51100000000E-03 0. -1.
        -11    1    3    3    0    0 -0.13804229954E+00  0.32825305984E+01  0.30448368111E+01  0.44794078039E+01  0.51100000000E-03 0.  1.
        -12    1    3    3    0    0 -0.81850929438E+01  0.29642350045E+01 -0.70291251198E+01  0.11188879998E+02  0.00000000000E+00 0.  1.
</event>
<event>
 7    1  0.2903212E-011  0.5052885E+02  0.7816164E-02  0.1300439E+00
        -11   -1    0    0    0    0  0.00000000000E+00  0.00000000000E+00  0.45593999997E+02  0.45594000000E+02  0.51100000000E-03 0.  1.
         11   -1    0    0    0    0 -0.00000000000E+00 -0.00000000000E+00 -0.45593999997E+02  0.45594000000E+02  0.51100000000E-03 0. -1.
    9900012    2    1    2    0    0  0.21708303067E+02 -0.33665493663E+02  0.69678503491E+01  0.50528845753E+02  0.29999957150E+02 0.  0.
        -12    1    1    2    0    0 -0.21708303067E+02  0.33665493663E+02 -0.69678503491E+01  0.40659154247E+02  0.00000000000E+00 0.  1.
         11    1    3    3    0    0 -0.45154852472E+00 -0.79051559555E+00  0.28908239342E+01  0.30307877288E+01  0.51100000000E-03 0. -1.
        -11    1    3    3    0    0  0.13131084107E+02 -0.22633032934E+02  0.14867718219E+02  0.30095325135E+02  0.51100000000E-03 0.  1.
         12    1    3    3    0    0  0.90287674847E+01 -0.10241945133E+02 -0.10790691805E+02  0.17402732889E+02  0.00000000000E+00 0. -1.
</event>
<event>
 7    1  0.2903212E-011  0.5052886E+02  0.7816164E-02  0.1300439E+00
        -11   -1    0    0    0    0  0.00000000000E+00  0.00000000000E+00  0.45593999997E+02  0.45594000000E+02  0.51100000000E-03 0.  1.
         11   -1    0    0    0    0 -0.00000000000E+00 -0.00000000000E+00 -0.45593999997E+02  0.45594000000E+02  0.51100000000E-03 0. -1.
    9900012    2    1    2    0    0 -0.25484149999E+02 -0.18419338385E+02 -0.25776957778E+02  0.50528862281E+02  0.30000007390E+02 0.  0.
        -12    1    1    2    0    0  0.25484149999E+02  0.18419338385E+02  0.25776957778E+02  0.40659137719E+02  0.00000000000E+00 0.  1.
         11    1    3    3    0    0 -0.17753566600E+02 -0.23432038544E+02 -0.26043425759E+02  0.39274795771E+02  0.51100000000E-03 0. -1.
        -11    1    3    3    0    0  0.81593294863E+00 -0.25171272786E+00  0.84279915254E+00  0.11997568698E+01  0.51100000000E-03 0.  1.
        -12    1    3    3    0    0 -0.85465163479E+01  0.52644128867E+01 -0.57633117233E+00  0.10054309640E+02  0.00000000000E+00 0.  1.
</event>
<event>
 7    1  0.2903212E-011  0.5052886E+02  0.7816164E-02  0.1300439E+00
        -11   -1    0    0    0    0  0.00000000000E+00  0.00000000000E+00  0.45593999997E+02  0.45594000000E+02  0.51100000000E-03 0. -1.
         11   -1    0    0    0    0 -0.00000000000E+00 -0.00000000000E+00 -0.45593999997E+02  0.45594000000E+02  0.51100000000E-03 0.  1.
    9900012    2    1    2    0    0  0.26753814742E+02 -0.29153579157E+02 -0.93524084837E+01  0.50528864183E+02  0.30000013172E+02 0.  0.
        -12    1    1    2    0    0 -0.26753814742E+02  0.29153579157E+02  0.93524084837E+01  0.40659135817E+02  0.00000000000E+00 0.  1.
         11    1    3    3    0    0 -0.41104095038E+01 -0.85978511821E+01  0.23431300982E+01  0.98137031827E+01  0.51100000000E-03 0. -1.
        -11    1    3    3    0    0  0.26620068164E+01  0.97269656076E+00  0.10394702000E+01  0.30187609126E+01  0.51100000000E-03 0.  1.
        -12    1    3    3    0    0  0.28202217429E+02 -0.21528424536E+02 -0.12735008782E+02  0.37696400088E+02  0.00000000000E+00 0.  1.
</event>
<event>
 7    1  0.2903212E-011  0.5052886E+02  0.7816164E-02  0.1300439E+00
        -11   -1    0    0    0    0  0.00000000000E+00  0.00000000000E+00  0.45593999997E+02  0.45594000000E+02  0.51100000000E-03 0.  1.
         11   -1    0    0    0    0 -0.00000000000E+00 -0.00000000000E+00 -0.45593999997E+02  0.45594000000E+02  0.51100000000E-03 0. -1.
    9900012    2    1    2    0    0  0.39501834078E+02  0.40836434034E+01  0.87232039626E+01  0.50528864171E+02  0.30000013135E+02 0.  0.
        -12    1    1    2    0    0 -0.39501834078E+02 -0.40836434034E+01 -0.87232039626E+01  0.40659135829E+02  0.00000000000E+00 0.  1.
         11    1    3    3    0    0  0.20351323411E+02 -0.25278779796E+01  0.12431730713E+02  0.23981544163E+02  0.51100000000E-03 0. -1.
        -11    1    3    3    0    0  0.82638846813E+00  0.60903909703E+01  0.32340925631E+01  0.69451519090E+01  0.51100000000E-03 0.  1.
         12    1    3    3    0    0  0.18324122199E+02  0.52113041265E+00 -0.69426193137E+01  0.19602168099E+02  0.00000000000E+00 0. -1.
</event>
<event>
 7    1  0.2903212E-011  0.5052884E+02  0.7816164E-02  0.1300439E+00
        -11   -1    0    0    0    0  0.00000000000E+00  0.00000000000E+00  0.45593999997E+02  0.45594000000E+02  0.51100000000E-03 0. -1.
         11   -1    0    0    0    0 -0.00000000000E+00 -0.00000000000E+00 -0.45593999997E+02  0.45594000000E+02  0.51100000000E-03 0.  1.
    9900012    2    1    2    0    0  0.37366913809E+02  0.15377630887E+02 -0.45176492712E+01  0.50528844398E+02  0.29999953033E+02 0.  0.
        -12    1    1    2    0    0 -0.37366913809E+02 -0.15377630887E+02  0.45176492712E+01  0.40659155602E+02  0.00000000000E+00 0.  1.
         11    1    3    3    0    0  0.21456228134E+02  0.83804495405E+01  0.76877575962E+01  0.24283806895E+02  0.51100000000E-03 0. -1.
        -11    1    3    3    0    0  0.98762500784E+01 -0.33294083787E+01 -0.22013612946E+01  0.10652289311E+02  0.51100000000E-03 0.  1.
        -12    1    3    3    0    0  0.60344355971E+01  0.10326589726E+02 -0.10004045573E+02  0.15592748191E+02  0.00000000000E+00 0.  1.
</event>
<event>
 7    1  0.2903212E-011  0.5052885E+02  0.7816164E-02  0.1300439E+00
        -11   -1    0    0    0    0  0.00000000000E+00  0.00000000000E+00  0.45593999997E+02  0.45594000000E+02  0.51100000000E-03 0.  1.
         11   -1    0    0    0    0 -0.00000000000E+00 -0.00000000000E+00 -0.45593999997E+02  0.45594000000E+02  0.51100000000E-03 0. -1.
    9900012    2    1    2    0    0  0.18151298213E+02 -0.32128720230E+02 -0.17071669241E+02  0.50528853660E+02  0.29999981184E+02 0.  0.
        -12    1    1    2    0    0 -0.18151298213E+02  0.32128720230E+02  0.17071669241E+02  0.40659146340E+02  0.00000000000E+00 0.  1.
         11    1    3    3    0    0  0.12761175277E+02 -0.88290340726E+01 -0.53749183482E+01  0.16422216191E+02  0.51100000000E-03 0. -1.
        -11    1    3    3    0    0  0.50110692061E+01 -0.60494429715E+01  0.56218382913E+01  0.96597950749E+01  0.51100000000E-03 0.  1.
         12    1    3    3    0    0  0.37905373029E+00 -0.17250243186E+02 -0.17318589184E+02  0.24446842394E+02  0.00000000000E+00 0. -1.
</event>
<event>
 7    1  0.2903212E-011  0.5052886E+02  0.7816164E-02  0.1300439E+00
        -11   -1    0    0    0    0  0.00000000000E+00  0.00000000000E+00  0.45593999997E+02  0.45594000000E+02  0.51100000000E-03 0.  1.
         11   -1    0    0    0    0 -0.00000000000E+00 -0.00000000000E+00 -0.45593999997E+02  0.45594000000E+02  0.51100000000E-03 0. -1.
    9900012    2    1    2    0    0 -0.24401113647E+00  0.23863236223E+02 -0.32918868791E+02  0.50528861951E+02  0.30000006386E+02 0.  0.
        -12    1    1    2    0    0  0.24401113647E+00 -0.23863236223E+02  0.32918868791E+02  0.40659138049E+02  0.00000000000E+00 0.  1.
         11    1    3    3    0    0  0.30307299315E+01  0.12121109183E+02 -0.25302963177E+01  0.12747902237E+02  0.51100000000E-03 0. -1.
        -11    1    3    3    0    0  0.23294038968E+01 -0.28355765791E+01 -0.63240927170E-01  0.36702338789E+01  0.51100000000E-03 0.  1.
         12    1    3    3    0    0 -0.56041449648E+01  0.14577703619E+02 -0.30325331546E+02  0.34110725834E+02  0.00000000000E+00 0. -1.
</event>
<event>
 7    1  0.2903212E-011  0.5052886E+02  0.7816164E-02  0.1300439E+00
        -11   -1    0    0    0    0  0.00000000000E+00  0.00000000000E+00  0.45593999997E+02  0.45594000000E+02  0.51100000000E-03 0.  1.
         11   -1    0    0    0    0 -0.00000000000E+00 -0.00000000000E+00 -0.45593999997E+02  0.45594000000E+02  0.51100000000E-03 0. -1.
    9900012    2    1    2    0    0 -0.29629372278E+02 -0.21319300043E+02 -0.17909594315E+02  0.50528858046E+02  0.29999994516E+02 0.  0.
        -12    1    1    2    0    0  0.29629372278E+02  0.21319300043E+02  0.17909594315E+02  0.40659141954E+02  0.00000000000E+00 0.  1.
         11    1    3    3    0    0 -0.95581927307E+01  0.13171269970E+01 -0.48946539052E+01  0.10819034565E+02  0.51100000000E-03 0. -1.
        -11    1    3    3    0    0 -0.50689291622E+01 -0.54243065503E+01  0.63513923946E+01  0.97702267126E+01  0.51100000000E-03 0.  1.
        -12    1    3    3    0    0 -0.15002250385E+02 -0.17212120490E+02 -0.19366332804E+02  0.29939596768E+02  0.00000000000E+00 0.  1.
</event>
<event>
 7    1  0.2903212E-011  0.5052886E+02  0.7816164E-02  0.1300439E+00
        -11   -1    0    0    0    0  0.00000000000E+00  0.00000000000E+00  0.45593999997E+02  0.45594000000E+02  0.51100000000E-03 0. -1.
         11   -1    0    0    0    0 -0.00000000000E+00 -0.00000000000E+00 -0.45593999997E+02  0.45594000000E+02  0.51100000000E-03 0.  1.
    9900012    2    1    2    0    0 -0.28311793320E+02  0.45762011636E+01  0.28821283763E+02  0.50528860119E+02  0.30000000818E+02 0.  0.
        -12    1    1    2    0    0  0.28311793320E+02 -0.45762011636E+01 -0.28821283763E+02  0.40659139881E+02  0.00000000000E+00 0.  1.
         11    1    3    3    0    0 -0.19125113515E+02  0.44843025553E+01  0.18701308631E+02  0.27122276474E+02  0.51100000000E-03 0. -1.
        -11    1    3    3    0    0 -0.12969463093E+02  0.51033229218E+01  0.99514466840E+01  0.17125483033E+02  0.51100000000E-03 0.  1.
        -12    1    3    3    0    0  0.37827832877E+01 -0.50114243135E+01  0.16852844829E+00  0.62811006114E+01  0.00000000000E+00 0.  1.
</event>
<event>
 7    1  0.2903212E-011  0.5052885E+02  0.7816164E-02  0.1300439E+00
        -11   -1    0    0    0    0  0.00000000000E+00  0.00000000000E+00  0.45593999997E+02  0.45594000000E+02  0.51100000000E-03 0.  1.
         11   -1    0    0    0    0 -0.00000000000E+00 -0.00000000000E+00 -0.45593999997E+02  0.45594000000E+02  0.51100000000E-03 0. -1.
    9900012    2    1    2    0    0  0.30148534811E+02 -0.16886773149E+02 -0.21425892969E+02  0.50528854066E+02  0.29999982418E+02 0.  0.
        -12    1    1    2    0    0 -0.30148534811E+02  0.16886773149E+02  0.21425892969E+02  0.40659145934E+02  0.00000000000E+00 0.  1.
         11    1    3    3    0    0  0.93523852042E+01 -0.95389843072E+01 -0.14001900948E+02  0.19352327018E+02  0.51100000000E-03 0. -1.
        -11    1    3    3    0    0 -0.13344139087E+01 -0.47614238721E+01 -0.73942525554E+01  0.88953239899E+01  0.51100000000E-03 0.  1.
        -12    1    3    3    0    0  0.22130563515E+02 -0.25863649692E+01 -0.29739465534E-01  0.22281203058E+02  0.00000000000E+00 0.  1.
</event>
<event>
 7    1  0.2903212E-011  0.5052874E+02  0.7816164E-02  0.1300439E+00
        -11   -1    0    0    0    0  0.00000000000E+00  0.00000000000E+00  0.45593999997E+02  0.45594000000E+02  0.51100000000E-03 0.  1.
         11   -1    0    0    0    0 -0.00000000000E+00 -0.00000000000E+00 -0.45593999997E+02  0.45594000000E+02  0.51100000000E-03 0. -1.
    9900012    2    1    2    0    0  0.36661887216E+02  0.72681214707E+01 -0.16007998861E+02  0.50528737937E+02  0.29999629431E+02 0.  0.
        -12    1    1    2    0    0 -0.36661887216E+02 -0.72681214707E+01  0.16007998861E+02  0.40659262063E+02  0.00000000000E+00 0.  1.
         11    1    3    3    0    0  0.48289204142E+01  0.14834098375E+01 -0.77481269618E+01  0.92494566754E+01  0.51100000000E-03 0. -1.
        -11    1    3    3    0    0  0.15842798546E+01 -0.52373524385E+01 -0.72318980667E+01  0.90686356819E+01  0.51100000000E-03 0.  1.
        -12    1    3    3    0    0  0.30248686948E+02  0.11022064072E+02 -0.10279738327E+01  0.32210645580E+02  0.00000000000E+00 0.  1.
</event>
<event>
 7    1  0.2903212E-011  0.5052883E+02  0.7816164E-02  0.1300439E+00
        -11   -1    0    0    0    0  0.00000000000E+00  0.00000000000E+00  0.45593999997E+02  0.45594000000E+02  0.51100000000E-03 0. -1.
         11   -1    0    0    0    0 -0.00000000000E+00 -0.00000000000E+00 -0.45593999997E+02  0.45594000000E+02  0.51100000000E-03 0.  1.
    9900012    2    1    2    0    0 -0.65137854508E+01  0.39220649944E+02 -0.85134945587E+01  0.50528826711E+02  0.29999899270E+02 0.  0.
        -12    1    1    2    0    0  0.65137854508E+01 -0.39220649944E+02  0.85134945587E+01  0.40659173289E+02  0.00000000000E+00 0.  1.
         11    1    3    3    0    0  0.75411953705E+00  0.33592625043E+02 -0.39940767195E+01  0.33837638845E+02  0.51100000000E-03 0. -1.
        -11    1    3    3    0    0 -0.21300023816E+01  0.91574368236E+01 -0.80793581581E+00  0.94365417324E+01  0.51100000000E-03 0.  1.
        -12    1    3    3    0    0 -0.51379026062E+01 -0.35294119218E+01 -0.37114820234E+01  0.72546461329E+01  0.00000000000E+00 0.  1.
</event>
<event>
 7    1  0.2903212E-011  0.5052886E+02  0.7816164E-02  0.1300439E+00
        -11   -1    0    0    0    0  0.00000000000E+00  0.00000000000E+00  0.45593999997E+02  0.45594000000E+02  0.51100000000E-03 0.  1.
         11   -1    0    0    0    0 -0.00000000000E+00 -0.00000000000E+00 -0.45593999997E+02  0.45594000000E+02  0.51100000000E-03 0. -1.
    9900012    2    1    2    0    0 -0.29659853547E+02 -0.22497271678E+02 -0.16350285724E+02  0.50528856027E+02  0.29999988379E+02 0.  0.
        -12    1    1    2    0    0  0.29659853547E+02  0.22497271678E+02  0.16350285724E+02  0.40659143973E+02  0.00000000000E+00 0.  1.
         11    1    3    3    0    0 -0.13683038312E+02 -0.20340648829E+01 -0.12056093728E+02  0.18349723531E+02  0.51100000000E-03 0. -1.
        -11    1    3    3    0    0 -0.37516169529E+01  0.21315879747E+01  0.32526156025E+01  0.54034993823E+01  0.51100000000E-03 0.  1.
        -12    1    3    3    0    0 -0.12225198282E+02 -0.22594794770E+02 -0.75468075982E+01  0.26775633114E+02  0.00000000000E+00 0.  1.
</event>
<event>
 7    1  0.2903212E-011  0.5052885E+02  0.7816164E-02  0.1300439E+00
        -11   -1    0    0    0    0  0.00000000000E+00  0.00000000000E+00  0.45593999997E+02  0.45594000000E+02  0.51100000000E-03 0.  1.
         11   -1    0    0    0    0 -0.00000000000E+00 -0.00000000000E+00 -0.45593999997E+02  0.45594000000E+02  0.51100000000E-03 0. -1.
    9900012    2    1    2    0    0 -0.35517599275E+01  0.39769173806E+01 -0.40308005015E+02  0.50528854181E+02  0.29999982770E+02 0.  0.
        -12    1    1    2    0    0  0.35517599275E+01 -0.39769173806E+01  0.40308005015E+02  0.40659145819E+02  0.00000000000E+00 0.  1.
         11    1    3    3    0    0 -0.63830513636E+01 -0.10327980093E+02 -0.12170811890E+02  0.17191253003E+02  0.51100000000E-03 0. -1.
        -11    1    3    3    0    0 -0.17172361438E+01  0.17715592971E+01 -0.31720927672E+00  0.24875578994E+01  0.51100000000E-03 0.  1.
         12    1    3    3    0    0  0.45485275800E+01  0.12533338176E+02 -0.27819983848E+02  0.30850043279E+02  0.00000000000E+00 0. -1.
</event>
<event>
 7    1  0.2903212E-011  0.5052887E+02  0.7816164E-02  0.1300439E+00
        -11   -1    0    0    0    0  0.00000000000E+00  0.00000000000E+00  0.45593999997E+02  0.45594000000E+02  0.51100000000E-03 0.  1.
         11   -1    0    0    0    0 -0.00000000000E+00 -0.00000000000E+00 -0.45593999997E+02  0.45594000000E+02  0.51100000000E-03 0. -1.
    9900012    2    1    2    0    0  0.19991162248E+02  0.24566220496E+02 -0.25495475299E+02  0.50528867961E+02  0.30000024654E+02 0.  0.
        -12    1    1    2    0    0 -0.19991162248E+02 -0.24566220496E+02  0.25495475299E+02  0.40659132039E+02  0.00000000000E+00 0.  1.
         11    1    3    3    0    0  0.11604280191E+02  0.81432867862E+01 -0.19847222852E+01  0.14314732315E+02  0.51100000000E-03 0. -1.
        -11    1    3    3    0    0 -0.35839234265E+01  0.98201861469E+01 -0.18741499701E+01  0.10620404957E+02  0.51100000000E-03 0.  1.
        -12    1    3    3    0    0  0.11970805483E+02  0.66027475625E+01 -0.21636603044E+02  0.25593730688E+02  0.00000000000E+00 0.  1.
</event>
<event>
 7    1  0.2903212E-011  0.5052886E+02  0.7816164E-02  0.1300439E+00
        -11   -1    0    0    0    0  0.00000000000E+00  0.00000000000E+00  0.45593999997E+02  0.45594000000E+02  0.51100000000E-03 0.  1.
         11   -1    0    0    0    0 -0.00000000000E+00 -0.00000000000E+00 -0.45593999997E+02  0.45594000000E+02  0.51100000000E-03 0. -1.
    9900012    2    1    2    0    0  0.43430450437E+01 -0.36174602828E+02 -0.18047204749E+02  0.50528861676E+02  0.30000005549E+02 0.  0.
        -12    1    1    2    0    0 -0.43430450437E+01  0.36174602828E+02  0.18047204749E+02  0.40659138324E+02  0.00000000000E+00 0.  1.
         11    1    3    3    0    0  0.65796958240E+01 -0.10832517268E+02 -0.11982051567E+02  0.17441484670E+02  0.51100000000E-03 0. -1.
        -11    1    3    3    0    0  0.67264667761E+01 -0.16451505455E+02  0.23310471530E+01  0.17925712485E+02  0.51100000000E-03 0.  1.
        -12    1    3    3    0    0 -0.89631175564E+01 -0.88905801063E+01 -0.83962003346E+01  0.15161664520E+02  0.00000000000E+00 0.  1.
</event>
<event>
 7    1  0.2903212E-011  0.5052886E+02  0.7816164E-02  0.1300439E+00
        -11   -1    0    0    0    0  0.00000000000E+00  0.00000000000E+00  0.45593999997E+02  0.45594000000E+02  0.51100000000E-03 0.  1.
         11   -1    0    0    0    0 -0.00000000000E+00 -0.00000000000E+00 -0.45593999997E+02  0.45594000000E+02  0.51100000000E-03 0. -1.
    9900012    2    1    2    0    0  0.19468202178E+02 -0.34782210483E+02 -0.80219933985E+01  0.50528862771E+02  0.30000008879E+02 0.  0.
        -12    1    1    2    0    0 -0.19468202178E+02  0.34782210483E+02  0.80219933985E+01  0.40659137229E+02  0.00000000000E+00 0.  1.
         11    1    3    3    0    0  0.21121548620E+01 -0.14413322469E+02  0.43901553545E+01  0.15214418393E+02  0.51100000000E-03 0. -1.
        -11    1    3    3    0    0  0.24582539777E+01  0.20846310850E+01  0.28876827678E+01  0.43275179270E+01  0.51100000000E-03 0.  1.
        -12    1    3    3    0    0  0.14897793339E+02 -0.22453519099E+02 -0.15299831521E+02  0.30986926451E+02  0.00000000000E+00 0.  1.
</event>
<event>
 7    1  0.2903212E-011  0.5052886E+02  0.7816164E-02  0.1300439E+00
        -11   -1    0    0    0    0  0.00000000000E+00  0.00000000000E+00  0.45593999997E+02  0.45594000000E+02  0.51100000000E-03 0. -1.
         11   -1    0    0    0    0 -0.00000000000E+00 -0.00000000000E+00 -0.45593999997E+02  0.45594000000E+02  0.51100000000E-03 0.  1.
    9900012    2    1    2    0    0  0.55792665595E+01  0.27926178070E+02  0.29020103554E+02  0.50528855307E+02  0.29999986190E+02 0.  0.
        -12    1    1    2    0    0 -0.55792665595E+01 -0.27926178070E+02 -0.29020103554E+02  0.40659144693E+02  0.00000000000E+00 0.  1.
         11    1    3    3    0    0  0.26013762826E+01 -0.22681412637E+01  0.45186362506E+01  0.56859209617E+01  0.51100000000E-03 0. -1.
        -11    1    3    3    0    0 -0.89573369457E+01  0.10548819906E+02  0.13597072009E+02  0.19400820963E+02  0.51100000000E-03 0.  1.
        -12    1    3    3    0    0  0.11935227223E+02  0.19645499427E+02  0.10904395294E+02  0.25442113382E+02  0.00000000000E+00 0.  1.
</event>
<event>
 7    1  0.2903212E-011  0.5052884E+02  0.7816164E-02  0.1300439E+00
        -11   -1    0    0    0    0  0.00000000000E+00  0.00000000000E+00  0.45593999997E+02  0.45594000000E+02  0.51100000000E-03 0.  1.
         11   -1    0    0    0    0 -0.00000000000E+00 -0.00000000000E+00 -0.45593999997E+02  0.45594000000E+02  0.51100000000E-03 0. -1.
    9900012    2    1    2    0    0 -0.79825054335E+01 -0.93029959895E+01 -0.38767268652E+02  0.50528840563E+02  0.29999941377E+02 0.  0.
        -12    1    1    2    0    0  0.79825054335E+01  0.93029959895E+01  0.38767268652E+02  0.40659159437E+02  0.00000000000E+00 0.  1.
         11    1    3    3    0    0 -0.11070341199E+02  0.14820918940E+00 -0.10037275289E+02  0.14943939096E+02  0.51100000000E-03 0. -1.
        -11    1    3    3    0    0 -0.56719651695E+01 -0.49085135154E+01 -0.30915502490E+01  0.81130991007E+01  0.51100000000E-03 0.  1.
         12    1    3    3    0    0  0.87598009350E+01 -0.45426916636E+01 -0.25638443113E+02  0.27471802366E+02  0.00000000000E+00 0. -1.
</event>
<event>
 7    1  0.2903212E-011  0.5052886E+02  0.7816164E-02  0.1300439E+00
        -11   -1    0    0    0    0  0.00000000000E+00  0.00000000000E+00  0.45593999997E+02  0.45594000000E+02  0.51100000000E-03 0. -1.
         11   -1    0    0    0    0 -0.00000000000E+00 -0.00000000000E+00 -0.45593999997E+02  0.45594000000E+02  0.51100000000E-03 0.  1.
    9900012    2    1    2    0    0  0.16662972954E+02 -0.75251013086E+01  0.36316442311E+02  0.50528858353E+02  0.29999995449E+02 0.  0.
        -12    1    1    2    0    0 -0.16662972954E+02  0.75251013086E+01 -0.36316442311E+02  0.40659141647E+02  0.00000000000E+00 0.  1.
         11    1    3    3    0    0 -0.41256679821E+01 -0.73992779722E+01  0.58800338641E+01  0.10312383299E+02  0.51100000000E-03 0. -1.
        -11    1    3    3    0    0 -0.13663815019E+01  0.29928446347E+01  0.14386813098E+01  0.35908107147E+01  0.51100000000E-03 0.  1.
        -12    1    3    3    0    0  0.22155022438E+02 -0.31186679712E+01  0.28997727137E+02  0.36625664339E+02  0.00000000000E+00 0.  1.
</event>
<event>
 7    1  0.2903212E-011  0.5052887E+02  0.7816164E-02  0.1300439E+00
        -11   -1    0    0    0    0  0.00000000000E+00  0.00000000000E+00  0.45593999997E+02  0.45594000000E+02  0.51100000000E-03 0. -1.
         11   -1    0    0    0    0 -0.00000000000E+00 -0.00000000000E+00 -0.45593999997E+02  0.45594000000E+02  0.51100000000E-03 0.  1.
    9900012    2    1    2    0    0  0.59000709328E+01 -0.39228169796E+02  0.89165455569E+01  0.50528869080E+02  0.30000028054E+02 0.  0.
        -12    1    1    2    0    0 -0.59000709328E+01  0.39228169796E+02 -0.89165455569E+01  0.40659130920E+02  0.00000000000E+00 0.  1.
         11    1    3    3    0    0  0.30843103303E+01 -0.97436986645E+01 -0.24130994668E+01  0.10501222937E+02  0.51100000000E-03 0. -1.
        -11    1    3    3    0    0 -0.22752625795E+01 -0.24563910132E+01 -0.64573730030E+01  0.72738121350E+01  0.51100000000E-03 0.  1.
        -12    1    3    3    0    0  0.50910231820E+01 -0.27028080118E+02  0.17787018027E+02  0.32753834007E+02  0.00000000000E+00 0.  1.
</event>
<event>
 7    1  0.2903212E-011  0.5052885E+02  0.7816164E-02  0.1300439E+00
        -11   -1    0    0    0    0  0.00000000000E+00  0.00000000000E+00  0.45593999997E+02  0.45594000000E+02  0.51100000000E-03 0. -1.
         11   -1    0    0    0    0 -0.00000000000E+00 -0.00000000000E+00 -0.45593999997E+02  0.45594000000E+02  0.51100000000E-03 0.  1.
    9900012    2    1    2    0    0 -0.25484039261E+02 -0.16351934568E+01  0.31639470859E+02  0.50528853048E+02  0.29999979324E+02 0.  0.
        -12    1    1    2    0    0  0.25484039261E+02  0.16351934568E+01 -0.31639470859E+02  0.40659146952E+02  0.00000000000E+00 0.  1.
         11    1    3    3    0    0 -0.15610241424E+02  0.76243029780E+01  0.91350102467E+01  0.19627991382E+02  0.51100000000E-03 0. -1.
        -11    1    3    3    0    0 -0.22000890051E+01 -0.82475193413E+01  0.17004648932E+01  0.87036514193E+01  0.51100000000E-03 0.  1.
         12    1    3    3    0    0 -0.76737088320E+01 -0.10119770934E+01  0.20803995719E+02  0.22197210247E+02  0.00000000000E+00 0. -1.
</event>
<event>
 7    1  0.2903212E-011  0.5052887E+02  0.7816164E-02  0.1300439E+00
        -11   -1    0    0    0    0  0.00000000000E+00  0.00000000000E+00  0.45593999997E+02  0.45594000000E+02  0.51100000000E-03 0.  1.
         11   -1    0    0    0    0 -0.00000000000E+00 -0.00000000000E+00 -0.45593999997E+02  0.45594000000E+02  0.51100000000E-03 0. -1.
    9900012    2    1    2    0    0  0.16803734288E+02 -0.28980722488E+02 -0.23041645629E+02  0.50528865783E+02  0.30000018035E+02 0.  0.
        -12    1    1    2    0    0 -0.16803734288E+02  0.28980722488E+02  0.23041645629E+02  0.40659134217E+02  0.00000000000E+00 0.  1.
         11    1    3    3    0    0 -0.29048720857E+01 -0.49150335420E+01  0.47404530153E+01  0.74207635459E+01  0.51100000000E-03 0.  1.
        -11    1    3    3    0    0  0.11414936309E+02 -0.68738526125E+01 -0.76458588220E+01  0.15362609741E+02  0.51100000000E-03 0. -1.
        -12    1    3    3    0    0  0.82936700649E+01 -0.17191836333E+02 -0.20136239822E+02  0.27745492496E+02  0.00000000000E+00 0.  1.
</event>
<event>
 7    1  0.2903212E-011  0.5052887E+02  0.7816164E-02  0.1300439E+00
        -11   -1    0    0    0    0  0.00000000000E+00  0.00000000000E+00  0.45593999997E+02  0.45594000000E+02  0.51100000000E-03 0.  1.
         11   -1    0    0    0    0 -0.00000000000E+00 -0.00000000000E+00 -0.45593999997E+02  0.45594000000E+02  0.51100000000E-03 0. -1.
    9900012    2    1    2    0    0 -0.22164899332E+02  0.24014598257E+02 -0.24190518546E+02  0.50528869668E+02  0.30000029841E+02 0.  0.
        -12    1    1    2    0    0  0.22164899332E+02 -0.24014598257E+02  0.24190518546E+02  0.40659130332E+02  0.00000000000E+00 0.  1.
         11    1    3    3    0    0 -0.11610109675E+02  0.27576222241E+00 -0.51488303519E+01  0.12703587907E+02  0.51100000000E-03 0. -1.
        -11    1    3    3    0    0  0.95699583050E+00 -0.25747199321E+01  0.86477001527E+00  0.28797310966E+01  0.51100000000E-03 0.  1.
        -12    1    3    3    0    0 -0.11511785488E+02  0.26313555966E+02 -0.19906458210E+02  0.34945550663E+02  0.00000000000E+00 0.  1.
</event>
<event>
 7    1  0.2903212E-011  0.5052886E+02  0.7816164E-02  0.1300439E+00
        -11   -1    0    0    0    0  0.00000000000E+00  0.00000000000E+00  0.45593999997E+02  0.45594000000E+02  0.51100000000E-03 0.  1.
         11   -1    0    0    0    0 -0.00000000000E+00 -0.00000000000E+00 -0.45593999997E+02  0.45594000000E+02  0.51100000000E-03 0. -1.
    9900012    2    1    2    0    0  0.51538060009E+01  0.12995406244E+01 -0.40310237756E+02  0.50528858468E+02  0.29999995800E+02 0.  0.
        -12    1    1    2    0    0 -0.51538060009E+01 -0.12995406244E+01  0.40310237756E+02  0.40659141532E+02  0.00000000000E+00 0.  1.
         11    1    3    3    0    0 -0.24834603829E+01  0.37485808024E+01  0.12522382285E+01  0.46677118964E+01  0.51100000000E-03 0. -1.
        -11    1    3    3    0    0 -0.48106291230E+01  0.28731200110E+01 -0.90704936106E+01  0.10661652112E+02  0.51100000000E-03 0.  1.
         12    1    3    3    0    0  0.12447895507E+02 -0.53221601890E+01 -0.32491982374E+02  0.35199494460E+02  0.00000000000E+00 0. -1.
</event>
<event>
 7    1  0.2903212E-011  0.5052886E+02  0.7816164E-02  0.1300439E+00
        -11   -1    0    0    0    0  0.00000000000E+00  0.00000000000E+00  0.45593999997E+02  0.45594000000E+02  0.51100000000E-03 0.  1.
         11   -1    0    0    0    0 -0.00000000000E+00 -0.00000000000E+00 -0.45593999997E+02  0.45594000000E+02  0.51100000000E-03 0. -1.
    9900012    2    1    2    0    0 -0.57012734373E+01  0.13186694265E+02 -0.38036460628E+02  0.50528858819E+02  0.29999996867E+02 0.  0.
        -12    1    1    2    0    0  0.57012734373E+01 -0.13186694265E+02  0.38036460628E+02  0.40659141181E+02  0.00000000000E+00 0.  1.
         11    1    3    3    0    0 -0.90403784682E+01  0.49984063521E+01 -0.86277868621E+01  0.13459242747E+02  0.51100000000E-03 0. -1.
        -11    1    3    3    0    0 -0.64135004094E+01  0.46501849150E+01 -0.24194571399E+02  0.25458485672E+02  0.51100000000E-03 0.  1.
        -12    1    3    3    0    0  0.97526054404E+01  0.35381029983E+01 -0.52141023665E+01  0.11611130401E+02  0.00000000000E+00 0.  1.
</event>
<event>
 7    1  0.2903212E-011  0.5052888E+02  0.7816164E-02  0.1300439E+00
        -11   -1    0    0    0    0  0.00000000000E+00  0.00000000000E+00  0.45593999997E+02  0.45594000000E+02  0.51100000000E-03 0.  1.
         11   -1    0    0    0    0 -0.00000000000E+00 -0.00000000000E+00 -0.45593999997E+02  0.45594000000E+02  0.51100000000E-03 0. -1.
    9900012    2    1    2    0    0 -0.29334351322E+02  0.44829426635E+01 -0.27795019062E+02  0.50528880149E+02  0.30000061701E+02 0.  0.
        -12    1    1    2    0    0  0.29334351322E+02 -0.44829426635E+01  0.27795019062E+02  0.40659119851E+02  0.00000000000E+00 0.  1.
         11    1    3    3    0    0 -0.16033737524E+02  0.74430875491E+01 -0.18383338040E+02  0.25503478371E+02  0.51100000000E-03 0. -1.
        -11    1    3    3    0    0  0.25981420320E+01 -0.13457603512E+01 -0.85330309892E+01  0.90207555707E+01  0.51100000000E-03 0.  1.
         12    1    3    3    0    0 -0.15898755829E+02 -0.16143845344E+01 -0.87865003291E+00  0.16004646207E+02  0.00000000000E+00 0. -1.
</event>
<event>
 7    1  0.2903212E-011  0.5052886E+02  0.7816164E-02  0.1300439E+00
        -11   -1    0    0    0    0  0.00000000000E+00  0.00000000000E+00  0.45593999997E+02  0.45594000000E+02  0.51100000000E-03 0.  1.
         11   -1    0    0    0    0 -0.00000000000E+00 -0.00000000000E+00 -0.45593999997E+02  0.45594000000E+02  0.51100000000E-03 0. -1.
    9900012    2    1    2    0    0  0.84238442765E+01 -0.29416040021E+02 -0.26775002888E+02  0.50528863972E+02  0.30000012529E+02 0.  0.
        -12    1    1    2    0    0 -0.84238442765E+01  0.29416040021E+02  0.26775002888E+02  0.40659136028E+02  0.00000000000E+00 0.  1.
         11    1    3    3    0    0 -0.25216281308E+00 -0.45910512228E+01  0.16706047504E+01  0.48920607016E+01  0.51100000000E-03 0.  1.
        -11    1    3    3    0    0  0.10748268079E+02 -0.23169707434E+02 -0.10696637550E+02  0.27690768578E+02  0.51100000000E-03 0. -1.
         12    1    3    3    0    0 -0.20722609892E+01 -0.16552813635E+01 -0.17748970088E+02  0.17946034693E+02  0.00000000000E+00 0. -1.
</event>
<event>
 7    1  0.2903212E-011  0.5052886E+02  0.7816164E-02  0.1300439E+00
        -11   -1    0    0    0    0  0.00000000000E+00  0.00000000000E+00  0.45593999997E+02  0.45594000000E+02  0.51100000000E-03 0. -1.
         11   -1    0    0    0    0 -0.00000000000E+00 -0.00000000000E+00 -0.45593999997E+02  0.45594000000E+02  0.51100000000E-03 0.  1.
    9900012    2    1    2    0    0 -0.81138646280E+01  0.34058202752E+02 -0.20672922624E+02  0.50528859531E+02  0.29999999029E+02 0.  0.
        -12    1    1    2    0    0  0.81138646280E+01 -0.34058202752E+02  0.20672922624E+02  0.40659140469E+02  0.00000000000E+00 0.  1.
         11    1    3    3    0    0  0.59476396260E+00  0.22178184113E+02 -0.51723210247E+01  0.22781099617E+02  0.51100000000E-03 0. -1.
        -11    1    3    3    0    0  0.15775344609E+01  0.12289006246E+02 -0.61131106322E+01  0.13815875338E+02  0.51100000000E-03 0.  1.
        -12    1    3    3    0    0 -0.10286163052E+02 -0.40898760671E+00 -0.93874909669E+01  0.13931884576E+02  0.00000000000E+00 0.  1.
</event>
<event>
 7    1  0.2903212E-011  0.5052885E+02  0.7816164E-02  0.1300439E+00
        -11   -1    0    0    0    0  0.00000000000E+00  0.00000000000E+00  0.45593999997E+02  0.45594000000E+02  0.51100000000E-03 0. -1.
         11   -1    0    0    0    0 -0.00000000000E+00 -0.00000000000E+00 -0.45593999997E+02  0.45594000000E+02  0.51100000000E-03 0.  1.
    9900012    2    1    2    0    0  0.11534163081E+02  0.38595755122E+02  0.55224022751E+01  0.50528853940E+02  0.29999982036E+02 0.  0.
        -12    1    1    2    0    0 -0.11534163081E+02 -0.38595755122E+02 -0.55224022751E+01  0.40659146060E+02  0.00000000000E+00 0.  1.
         11    1    3    3    0    0 -0.30516581022E+01  0.35401500603E+01  0.83281217495E+01  0.95500205109E+01  0.51100000000E-03 0. -1.
        -11    1    3    3    0    0 -0.30442513596E+01  0.71060548333E+01  0.62468321392E+00  0.77558823491E+01  0.51100000000E-03 0.  1.
        -12    1    3    3    0    0  0.17630072543E+02  0.27949550229E+02 -0.34304026883E+01  0.33222951080E+02  0.00000000000E+00 0.  1.
</event>
<event>
 7    1  0.2903212E-011  0.5052885E+02  0.7816164E-02  0.1300439E+00
        -11   -1    0    0    0    0  0.00000000000E+00  0.00000000000E+00  0.45593999997E+02  0.45594000000E+02  0.51100000000E-03 0.  1.
         11   -1    0    0    0    0 -0.00000000000E+00 -0.00000000000E+00 -0.45593999997E+02  0.45594000000E+02  0.51100000000E-03 0. -1.
    9900012    2    1    2    0    0  0.18574094669E+02 -0.16416406947E+02 -0.32228424455E+02  0.50528846631E+02  0.29999959821E+02 0.  0.
        -12    1    1    2    0    0 -0.18574094669E+02  0.16416406947E+02  0.32228424455E+02  0.40659153369E+02  0.00000000000E+00 0.  1.
         11    1    3    3    0    0  0.15049236587E+01 -0.12177867078E+01 -0.19411407331E+02  0.19507704491E+02  0.51100000000E-03 0.  1.
        -11    1    3    3    0    0 -0.21657221526E+01 -0.22609544584E+01 -0.61488011977E+01  0.69000017344E+01  0.51100000000E-03 0. -1.
         12    1    3    3    0    0  0.19234893163E+02 -0.12937665780E+02 -0.66682159262E+01  0.24121140406E+02  0.00000000000E+00 0. -1.
</event>
<event>
 7    1  0.2903212E-011  0.5052886E+02  0.7816164E-02  0.1300439E+00
        -11   -1    0    0    0    0  0.00000000000E+00  0.00000000000E+00  0.45593999997E+02  0.45594000000E+02  0.51100000000E-03 0.  1.
         11   -1    0    0    0    0 -0.00000000000E+00 -0.00000000000E+00 -0.45593999997E+02  0.45594000000E+02  0.51100000000E-03 0. -1.
    9900012    2    1    2    0    0 -0.38121812997E+02  0.13234830071E+02 -0.49731520185E+01  0.50528860878E+02  0.30000003123E+02 0.  0.
        -12    1    1    2    0    0  0.38121812997E+02 -0.13234830071E+02  0.49731520185E+01  0.40659139122E+02  0.00000000000E+00 0.  1.
         11    1    3    3    0    0 -0.11891731919E+01  0.26111835214E+01 -0.56982614675E+01  0.63798586407E+01  0.51100000000E-03 0. -1.
        -11    1    3    3    0    0 -0.16759804333E+02  0.16096897686E+02  0.63764549295E+00  0.23246671771E+02  0.51100000000E-03 0.  1.
         12    1    3    3    0    0 -0.20172835472E+02 -0.54732511358E+01  0.87463956036E-01  0.20902330466E+02  0.00000000000E+00 0. -1.
</event>
<event>
 7    1  0.2903212E-011  0.5052886E+02  0.7816164E-02  0.1300439E+00
        -11   -1    0    0    0    0  0.00000000000E+00  0.00000000000E+00  0.45593999997E+02  0.45594000000E+02  0.51100000000E-03 0.  1.
         11   -1    0    0    0    0 -0.00000000000E+00 -0.00000000000E+00 -0.45593999997E+02  0.45594000000E+02  0.51100000000E-03 0. -1.
    9900012    2    1    2    0    0  0.31610308640E+02 -0.23042373388E+02  0.11090666009E+02  0.50528862575E+02  0.30000008282E+02 0.  0.
        -12    1    1    2    0    0 -0.31610308640E+02  0.23042373388E+02 -0.11090666009E+02  0.40659137425E+02  0.00000000000E+00 0.  1.
         11    1    3    3    0    0  0.11934498402E+02 -0.21016248485E+02  0.38893605755E+01  0.24479421530E+02  0.51100000000E-03 0. -1.
        -11    1    3    3    0    0 -0.63703416521E+00 -0.35697023260E+01 -0.14655223190E+01  0.39110539695E+01  0.51100000000E-03 0.  1.
         12    1    3    3    0    0  0.20312844403E+02  0.15435774234E+01  0.86668277526E+01  0.22138387075E+02  0.00000000000E+00 0. -1.
</event>
<event>
 7    1  0.2903212E-011  0.5052886E+02  0.7816164E-02  0.1300439E+00
        -11   -1    0    0    0    0  0.00000000000E+00  0.00000000000E+00  0.45593999997E+02  0.45594000000E+02  0.51100000000E-03 0.  1.
         11   -1    0    0    0    0 -0.00000000000E+00 -0.00000000000E+00 -0.45593999997E+02  0.45594000000E+02  0.51100000000E-03 0. -1.
    9900012    2    1    2    0    0  0.35950757364E+02  0.15563324398E+02 -0.10885387535E+02  0.50528859783E+02  0.29999999797E+02 0.  0.
        -12    1    1    2    0    0 -0.35950757364E+02 -0.15563324398E+02  0.10885387535E+02  0.40659140217E+02  0.00000000000E+00 0.  1.
         11    1    3    3    0    0  0.16922845691E+01  0.29201962558E+01  0.13210208835E+01  0.36244268059E+01  0.51100000000E-03 0.  1.
        -11    1    3    3    0    0  0.33992829373E+02  0.16065880324E+02 -0.37584848698E+01  0.37785594718E+02  0.51100000000E-03 0. -1.
         12    1    3    3    0    0  0.26564342187E+00 -0.34227521817E+01 -0.84479235484E+01  0.91188382596E+01  0.00000000000E+00 0. -1.
</event>
<event>
 7    1  0.2903212E-011  0.5052885E+02  0.7816164E-02  0.1300439E+00
        -11   -1    0    0    0    0  0.00000000000E+00  0.00000000000E+00  0.45593999997E+02  0.45594000000E+02  0.51100000000E-03 0.  1.
         11   -1    0    0    0    0 -0.00000000000E+00 -0.00000000000E+00 -0.45593999997E+02  0.45594000000E+02  0.51100000000E-03 0. -1.
    9900012    2    1    2    0    0 -0.67957302346E+00  0.32349941365E+02  0.24620846567E+02  0.50528848368E+02  0.29999965098E+02 0.  0.
        -12    1    1    2    0    0  0.67957302346E+00 -0.32349941365E+02 -0.24620846567E+02  0.40659151632E+02  0.00000000000E+00 0.  1.
         11    1    3    3    0    0  0.37427736291E+01  0.96285480466E+01  0.16839700966E+01  0.10466759168E+02  0.51100000000E-03 0. -1.
        -11    1    3    3    0    0 -0.36596650995E+01 -0.22386565682E+01 -0.20335818951E+01  0.47476507302E+01  0.51100000000E-03 0.  1.
         12    1    3    3    0    0 -0.76268155307E+00  0.24960049886E+02  0.24970458365E+02  0.35314438470E+02  0.00000000000E+00 0. -1.
</event>
<event>
 7    1  0.2903212E-011  0.5052888E+02  0.7816164E-02  0.1300439E+00
        -11   -1    0    0    0    0  0.00000000000E+00  0.00000000000E+00  0.45593999997E+02  0.45594000000E+02  0.51100000000E-03 0. -1.
         11   -1    0    0    0    0 -0.00000000000E+00 -0.00000000000E+00 -0.45593999997E+02  0.45594000000E+02  0.51100000000E-03 0.  1.
    9900012    2    1    2    0    0  0.15102544612E+02 -0.39742457077E+01  0.37540416282E+02  0.50528876334E+02  0.30000050105E+02 0.  0.
        -12    1    1    2    0    0 -0.15102544612E+02  0.39742457077E+01 -0.37540416282E+02  0.40659123666E+02  0.00000000000E+00 0.  1.
         11    1    3    3    0    0  0.37188302140E+00  0.38469507766E+01  0.29392022575E+01  0.48555367809E+01  0.51100000000E-03 0. -1.
        -11    1    3    3    0    0  0.13957615519E+02  0.47082161200E+01  0.92760686770E+01  0.17407693138E+02  0.51100000000E-03 0.  1.
        -12    1    3    3    0    0  0.77304607147E+00 -0.12529412604E+02  0.25325145347E+02  0.28265646415E+02  0.00000000000E+00 0.  1.
</event>
<event>
 7    1  0.2903212E-011  0.5052886E+02  0.7816164E-02  0.1300439E+00
        -11   -1    0    0    0    0  0.00000000000E+00  0.00000000000E+00  0.45593999997E+02  0.45594000000E+02  0.51100000000E-03 0.  1.
         11   -1    0    0    0    0 -0.00000000000E+00 -0.00000000000E+00 -0.45593999997E+02  0.45594000000E+02  0.51100000000E-03 0. -1.
    9900012    2    1    2    0    0 -0.63450186153E+01 -0.91164913043E+01  0.39112610984E+02  0.50528855728E+02  0.29999987470E+02 0.  0.
        -12    1    1    2    0    0  0.63450186153E+01  0.91164913043E+01 -0.39112610984E+02  0.40659144272E+02  0.00000000000E+00 0.  1.
         11    1    3    3    0    0 -0.11435467728E+00 -0.39361712532E+01 -0.17826421814E+01  0.43225379738E+01  0.51100000000E-03 0. -1.
        -11    1    3    3    0    0  0.60858206532E+00 -0.97854637890E+01  0.91603832476E+01  0.13417834967E+02  0.51100000000E-03 0.  1.
         12    1    3    3    0    0 -0.68392460034E+01  0.46051437379E+01  0.31734869918E+02  0.32788482787E+02  0.00000000000E+00 0. -1.
</event>
<event>
 7    1  0.2903212E-011  0.5052886E+02  0.7816164E-02  0.1300439E+00
        -11   -1    0    0    0    0  0.00000000000E+00  0.00000000000E+00  0.45593999997E+02  0.45594000000E+02  0.51100000000E-03 0.  1.
         11   -1    0    0    0    0 -0.00000000000E+00 -0.00000000000E+00 -0.45593999997E+02  0.45594000000E+02  0.51100000000E-03 0. -1.
    9900012    2    1    2    0    0 -0.19689216882E+02 -0.16618610292E+02 -0.31453491544E+02  0.50528860809E+02  0.30000002915E+02 0.  0.
        -12    1    1    2    0    0  0.19689216882E+02  0.16618610292E+02  0.31453491544E+02  0.40659139191E+02  0.00000000000E+00 0.  1.
         11    1    3    3    0    0 -0.25542854606E+01 -0.80414615309E+01  0.33887324434E+01  0.90924686198E+01  0.51100000000E-03 0. -1.
        -11    1    3    3    0    0  0.17167827341E+01 -0.16388973940E+00 -0.35706559765E+01  0.39653230848E+01  0.51100000000E-03 0.  1.
         12    1    3    3    0    0 -0.18851714156E+02 -0.84132590217E+01 -0.31271568011E+02  0.37471069104E+02  0.00000000000E+00 0. -1.
</event>
<event>
 7    1  0.2903212E-011  0.5052883E+02  0.7816164E-02  0.1300439E+00
        -11   -1    0    0    0    0  0.00000000000E+00  0.00000000000E+00  0.45593999997E+02  0.45594000000E+02  0.51100000000E-03 0. -1.
         11   -1    0    0    0    0 -0.00000000000E+00 -0.00000000000E+00 -0.45593999997E+02  0.45594000000E+02  0.51100000000E-03 0.  1.
    9900012    2    1    2    0    0  0.68040559999E-01 -0.21693864802E+02  0.34388070794E+02  0.50528833598E+02  0.29999920205E+02 0.  0.
        -12    1    1    2    0    0 -0.68040559999E-01  0.21693864802E+02 -0.34388070794E+02  0.40659166402E+02  0.00000000000E+00 0.  1.
         11    1    3    3    0    0 -0.51686945037E+00 -0.22699130473E+02  0.13320419444E+02  0.26323967267E+02  0.51100000000E-03 0.  1.
        -11    1    3    3    0    0 -0.13930749096E+01 -0.43296584215E+01  0.15833294244E+02  0.16473609399E+02  0.51100000000E-03 0. -1.
        -12    1    3    3    0    0  0.19779849200E+01  0.53349240934E+01  0.52343571063E+01  0.77312569316E+01  0.00000000000E+00 0.  1.
</event>
<event>
 7    1  0.2903212E-011  0.5052885E+02  0.7816164E-02  0.1300439E+00
        -11   -1    0    0    0    0  0.00000000000E+00  0.00000000000E+00  0.45593999997E+02  0.45594000000E+02  0.51100000000E-03 0. -1.
         11   -1    0    0    0    0 -0.00000000000E+00 -0.00000000000E+00 -0.45593999997E+02  0.45594000000E+02  0.51100000000E-03 0.  1.
    9900012    2    1    2    0    0  0.21577113097E+01 -0.38278244216E+02  0.13538349974E+02  0.50528848282E+02  0.29999964838E+02 0.  0.
        -12    1    1    2    0    0 -0.21577113097E+01  0.38278244216E+02 -0.13538349974E+02  0.40659151718E+02  0.00000000000E+00 0.  1.
         11    1    3    3    0    0 -0.54081632984E+01 -0.15718348717E+02  0.66318905333E+01  0.17896834607E+02  0.51100000000E-03 0. -1.
        -11    1    3    3    0    0 -0.41317100985E+01 -0.10624581362E+00  0.60152912761E+01  0.72983591244E+01  0.51100000000E-03 0.  1.
        -12    1    3    3    0    0  0.11697584707E+02 -0.22453649686E+02  0.89116816495E+00  0.25333654550E+02  0.00000000000E+00 0.  1.
</event>
<event>
 7    1  0.2903212E-011  0.5052890E+02  0.7816164E-02  0.1300439E+00
        -11   -1    0    0    0    0  0.00000000000E+00  0.00000000000E+00  0.45593999997E+02  0.45594000000E+02  0.51100000000E-03 0. -1.
         11   -1    0    0    0    0 -0.00000000000E+00 -0.00000000000E+00 -0.45593999997E+02  0.45594000000E+02  0.51100000000E-03 0.  1.
    9900012    2    1    2    0    0  0.22312930907E+02 -0.23768677005E+02  0.24297031914E+02  0.50528897058E+02  0.30000113098E+02 0.  0.
        -12    1    1    2    0    0 -0.22312930907E+02  0.23768677005E+02 -0.24297031914E+02  0.40659102942E+02  0.00000000000E+00 0.  1.
         11    1    3    3    0    0  0.13772800245E+02 -0.17063506029E+02  0.62950868005E+01  0.22814061074E+02  0.51100000000E-03 0. -1.
        -11    1    3    3    0    0  0.66344677022E+01 -0.10108253760E+02  0.19970770962E+02  0.23345762974E+02  0.51100000000E-03 0.  1.
         12    1    3    3    0    0  0.19056629600E+01  0.34030827838E+01 -0.19688258485E+01  0.43690730107E+01  0.00000000000E+00 0. -1.
</event>
<event>
 7    1  0.2903212E-011  0.5052886E+02  0.7816164E-02  0.1300439E+00
        -11   -1    0    0    0    0  0.00000000000E+00  0.00000000000E+00  0.45593999997E+02  0.45594000000E+02  0.51100000000E-03 0.  1.
         11   -1    0    0    0    0 -0.00000000000E+00 -0.00000000000E+00 -0.45593999997E+02  0.45594000000E+02  0.51100000000E-03 0. -1.
    9900012    2    1    2    0    0 -0.78315846411E+01  0.13612986188E+02 -0.37503576797E+02  0.50528863468E+02  0.30000010998E+02 0.  0.
        -12    1    1    2    0    0  0.78315846411E+01 -0.13612986188E+02  0.37503576797E+02  0.40659136532E+02  0.00000000000E+00 0.  1.
         11    1    3    3    0    0  0.37329044253E+01  0.34288155152E+01 -0.53963717390E+01  0.74035248019E+01  0.51100000000E-03 0. -1.
        -11    1    3    3    0    0 -0.52309640080E+01 -0.79601047873E+01 -0.11830649264E+02  0.15188499430E+02  0.51100000000E-03 0.  1.
         12    1    3    3    0    0 -0.63335250584E+01  0.18144275460E+02 -0.20276555794E+02  0.27936839236E+02  0.00000000000E+00 0. -1.
</event>
<event>
 7    1  0.2903212E-011  0.5052886E+02  0.7816164E-02  0.1300439E+00
        -11   -1    0    0    0    0  0.00000000000E+00  0.00000000000E+00  0.45593999997E+02  0.45594000000E+02  0.51100000000E-03 0.  1.
         11   -1    0    0    0    0 -0.00000000000E+00 -0.00000000000E+00 -0.45593999997E+02  0.45594000000E+02  0.51100000000E-03 0. -1.
    9900012    2    1    2    0    0  0.28160728918E+02  0.53466376102E+01 -0.28836656778E+02  0.50528856366E+02  0.29999989409E+02 0.  0.
        -12    1    1    2    0    0 -0.28160728918E+02 -0.53466376102E+01  0.28836656778E+02  0.40659143634E+02  0.00000000000E+00 0.  1.
         11    1    3    3    0    0  0.27569805457E+02 -0.17548918480E+01 -0.17915742321E+02  0.32926397335E+02  0.51100000000E-03 0. -1.
        -11    1    3    3    0    0  0.35411335149E+01 -0.10026125787E+01  0.81502245714E-02  0.36803430873E+01  0.51100000000E-03 0.  1.
        -12    1    3    3    0    0 -0.29502100530E+01  0.81041420370E+01 -0.10929064682E+02  0.13922115943E+02  0.00000000000E+00 0.  1.
</event>
<event>
 7    1  0.2903212E-011  0.5052885E+02  0.7816164E-02  0.1300439E+00
        -11   -1    0    0    0    0  0.00000000000E+00  0.00000000000E+00  0.45593999997E+02  0.45594000000E+02  0.51100000000E-03 0. -1.
         11   -1    0    0    0    0 -0.00000000000E+00 -0.00000000000E+00 -0.45593999997E+02  0.45594000000E+02  0.51100000000E-03 0.  1.
    9900012    2    1    2    0    0 -0.28431388692E+02  0.20378870727E+02  0.20724957057E+02  0.50528854902E+02  0.29999984961E+02 0.  0.
        -12    1    1    2    0    0  0.28431388692E+02 -0.20378870727E+02 -0.20724957057E+02  0.40659145098E+02  0.00000000000E+00 0.  1.
         11    1    3    3    0    0 -0.10125557683E+02  0.35671559923E+01  0.21049519963E+02  0.23629088243E+02  0.51100000000E-03 0. -1.
        -11    1    3    3    0    0 -0.89810368981E+00 -0.14156426125E+01 -0.25103372843E+00  0.16951850748E+01  0.51100000000E-03 0.  1.
         12    1    3    3    0    0 -0.17407727320E+02  0.18227357347E+02 -0.73529178180E-01  0.25204581584E+02  0.00000000000E+00 0. -1.
</event>
<event>
 7    1  0.2903212E-011  0.5052885E+02  0.7816164E-02  0.1300439E+00
        -11   -1    0    0    0    0  0.00000000000E+00  0.00000000000E+00  0.45593999997E+02  0.45594000000E+02  0.51100000000E-03 0.  1.
         11   -1    0    0    0    0 -0.00000000000E+00 -0.00000000000E+00 -0.45593999997E+02  0.45594000000E+02  0.51100000000E-03 0. -1.
    9900012    2    1    2    0    0 -0.38802666868E+02  0.54960903783E+01 -0.10831074408E+02  0.50528854185E+02  0.29999982782E+02 0.  0.
        -12    1    1    2    0    0  0.38802666868E+02 -0.54960903783E+01  0.10831074408E+02  0.40659145815E+02  0.00000000000E+00 0.  1.
         11    1    3    3    0    0 -0.27740139825E+02  0.66994487495E+01 -0.20848492288E+01  0.28613712930E+02  0.51100000000E-03 0. -1.
        -11    1    3    3    0    0 -0.10397021824E+02 -0.66453629017E+01 -0.10454443023E+02  0.16172640170E+02  0.51100000000E-03 0.  1.
        -12    1    3    3    0    0 -0.66550521938E+00  0.54420045306E+01  0.17082178442E+01  0.57425010850E+01  0.00000000000E+00 0.  1.
</event>
<event>
 7    1  0.2903212E-011  0.5052886E+02  0.7816164E-02  0.1300439E+00
        -11   -1    0    0    0    0  0.00000000000E+00  0.00000000000E+00  0.45593999997E+02  0.45594000000E+02  0.51100000000E-03 0.  1.
         11   -1    0    0    0    0 -0.00000000000E+00 -0.00000000000E+00 -0.45593999997E+02  0.45594000000E+02  0.51100000000E-03 0. -1.
    9900012    2    1    2    0    0  0.78418835055E+01 -0.58913249710E+01 -0.39458365207E+02  0.50528862876E+02  0.30000009198E+02 0.  0.
        -12    1    1    2    0    0 -0.78418835055E+01  0.58913249710E+01  0.39458365207E+02  0.40659137124E+02  0.00000000000E+00 0.  1.
         11    1    3    3    0    0 -0.28299574381E+01  0.51797277150E+01 -0.50569409627E+01  0.77724443044E+01  0.51100000000E-03 0. -1.
        -11    1    3    3    0    0  0.21738571903E+01 -0.15094607041E+02 -0.16070431231E+02  0.22154719069E+02  0.51100000000E-03 0.  1.
         12    1    3    3    0    0  0.84979837532E+01  0.40235543553E+01 -0.18330993014E+02  0.20601699503E+02  0.00000000000E+00 0. -1.
</event>
<event>
 7    1  0.2903212E-011  0.5052884E+02  0.7816164E-02  0.1300439E+00
        -11   -1    0    0    0    0  0.00000000000E+00  0.00000000000E+00  0.45593999997E+02  0.45594000000E+02  0.51100000000E-03 0.  1.
         11   -1    0    0    0    0 -0.00000000000E+00 -0.00000000000E+00 -0.45593999997E+02  0.45594000000E+02  0.51100000000E-03 0. -1.
    9900012    2    1    2    0    0  0.10353591265E+02 -0.33896941824E+02 -0.19924041309E+02  0.50528844337E+02  0.29999952848E+02 0.  0.
        -12    1    1    2    0    0 -0.10353591265E+02  0.33896941824E+02  0.19924041309E+02  0.40659155663E+02  0.00000000000E+00 0.  1.
         11    1    3    3    0    0  0.67435920409E+01 -0.18919121857E+02 -0.26629144653E+01  0.20260807465E+02  0.51100000000E-03 0. -1.
        -11    1    3    3    0    0  0.45862475977E+01 -0.70186268104E+01  0.26579813116E+01  0.87954337155E+01  0.51100000000E-03 0.  1.
         12    1    3    3    0    0 -0.97624837308E+00 -0.79591931569E+01 -0.19919108156E+02  0.21472603156E+02  0.00000000000E+00 0. -1.
</event>
<event>
 7    1  0.2903212E-011  0.5052885E+02  0.7816164E-02  0.1300439E+00
        -11   -1    0    0    0    0  0.00000000000E+00  0.00000000000E+00  0.45593999997E+02  0.45594000000E+02  0.51100000000E-03 0.  1.
         11   -1    0    0    0    0 -0.00000000000E+00 -0.00000000000E+00 -0.45593999997E+02  0.45594000000E+02  0.51100000000E-03 0. -1.
    9900012    2    1    2    0    0  0.89280643242E+01  0.12512232837E+02 -0.37641729410E+02  0.50528854705E+02  0.29999984361E+02 0.  0.
        -12    1    1    2    0    0 -0.89280643242E+01 -0.12512232837E+02  0.37641729410E+02  0.40659145295E+02  0.00000000000E+00 0.  1.
         11    1    3    3    0    0 -0.32424105228E+01  0.17804923973E+01 -0.91465577291E+01  0.98662504392E+01  0.51100000000E-03 0. -1.
        -11    1    3    3    0    0 -0.11663577095E+01  0.35132769558E+01 -0.24772244276E+02  0.25047307081E+02  0.51100000000E-03 0.  1.
        -12    1    3    3    0    0  0.13336832556E+02  0.72184634842E+01 -0.37229274049E+01  0.15615297185E+02  0.00000000000E+00 0.  1.
</event>
<event>
 7    1  0.2903212E-011  0.5052886E+02  0.7816164E-02  0.1300439E+00
        -11   -1    0    0    0    0  0.00000000000E+00  0.00000000000E+00  0.45593999997E+02  0.45594000000E+02  0.51100000000E-03 0.  1.
         11   -1    0    0    0    0 -0.00000000000E+00 -0.00000000000E+00 -0.45593999997E+02  0.45594000000E+02  0.51100000000E-03 0. -1.
    9900012    2    1    2    0    0  0.59118901491E+01  0.34891642481E+02 -0.20019696604E+02  0.50528863115E+02  0.30000009923E+02 0.  0.
        -12    1    1    2    0    0 -0.59118901491E+01 -0.34891642481E+02  0.20019696604E+02  0.40659136885E+02  0.00000000000E+00 0.  1.
         11    1    3    3    0    0  0.40006019868E+01  0.21441516168E+02 -0.24632692740E+02  0.32901565065E+02  0.51100000000E-03 0. -1.
        -11    1    3    3    0    0 -0.41488866815E+01  0.56470581415E+01  0.29740363788E+01  0.76123202109E+01  0.51100000000E-03 0.  1.
        -12    1    3    3    0    0  0.60601748438E+01  0.78030681716E+01  0.16389597570E+01  0.10014977839E+02  0.00000000000E+00 0.  1.
</event>
<event>
 7    1  0.2903212E-011  0.5052886E+02  0.7816164E-02  0.1300439E+00
        -11   -1    0    0    0    0  0.00000000000E+00  0.00000000000E+00  0.45593999997E+02  0.45594000000E+02  0.51100000000E-03 0. -1.
         11   -1    0    0    0    0 -0.00000000000E+00 -0.00000000000E+00 -0.45593999997E+02  0.45594000000E+02  0.51100000000E-03 0.  1.
    9900012    2    1    2    0    0  0.15000526909E+02 -0.37629350842E+02  0.34902874587E+01  0.50528856392E+02  0.29999989490E+02 0.  0.
        -12    1    1    2    0    0 -0.15000526909E+02  0.37629350842E+02 -0.34902874587E+01  0.40659143608E+02  0.00000000000E+00 0.  1.
         11    1    3    3    0    0  0.11969387483E+02 -0.25691169425E+02  0.22561834602E+01  0.28432249070E+02  0.51100000000E-03 0. -1.
        -11    1    3    3    0    0  0.98245047682E+01 -0.87495840184E+01 -0.29810708500E+01  0.13489362406E+02  0.51100000000E-03 0.  1.
         12    1    3    3    0    0 -0.67933653422E+01 -0.31885973993E+01  0.42151748484E+01  0.86072449163E+01  0.00000000000E+00 0. -1.
</event>
<event>
 7    1  0.2903212E-011  0.5052886E+02  0.7816164E-02  0.1300439E+00
        -11   -1    0    0    0    0  0.00000000000E+00  0.00000000000E+00  0.45593999997E+02  0.45594000000E+02  0.51100000000E-03 0.  1.
         11   -1    0    0    0    0 -0.00000000000E+00 -0.00000000000E+00 -0.45593999997E+02  0.45594000000E+02  0.51100000000E-03 0. -1.
    9900012    2    1    2    0    0  0.22931225389E+01  0.18256963144E+02 -0.36257277408E+02  0.50528864750E+02  0.30000014894E+02 0.  0.
        -12    1    1    2    0    0 -0.22931225389E+01 -0.18256963144E+02  0.36257277408E+02  0.40659135250E+02  0.00000000000E+00 0.  1.
         11    1    3    3    0    0  0.25775616059E+01  0.14385484016E+02 -0.15082049033E+02  0.21001289901E+02  0.51100000000E-03 0. -1.
        -11    1    3    3    0    0  0.89625444260E+01  0.61462929250E+01 -0.92834754538E+01  0.14292901597E+02  0.51100000000E-03 0.  1.
        -12    1    3    3    0    0 -0.92469834930E+01 -0.22748137975E+01 -0.11891752921E+02  0.15234673251E+02  0.00000000000E+00 0.  1.
</event>
<event>
 7    1  0.2903212E-011  0.5052885E+02  0.7816164E-02  0.1300439E+00
        -11   -1    0    0    0    0  0.00000000000E+00  0.00000000000E+00  0.45593999997E+02  0.45594000000E+02  0.51100000000E-03 0.  1.
         11   -1    0    0    0    0 -0.00000000000E+00 -0.00000000000E+00 -0.45593999997E+02  0.45594000000E+02  0.51100000000E-03 0. -1.
    9900012    2    1    2    0    0 -0.14726418203E+02  0.74306388075E+01 -0.37162945592E+02  0.50528852059E+02  0.29999976319E+02 0.  0.
        -12    1    1    2    0    0  0.14726418203E+02 -0.74306388075E+01  0.37162945592E+02  0.40659147941E+02  0.00000000000E+00 0.  1.
         11    1    3    3    0    0 -0.12452207643E+02  0.23322305002E+01 -0.30067064760E+02  0.32627061741E+02  0.51100000000E-03 0. -1.
        -11    1    3    3    0    0  0.39165827719E+01  0.79442397283E+01 -0.66460043323E+01  0.11073388791E+02  0.51100000000E-03 0.  1.
        -12    1    3    3    0    0 -0.61907933319E+01 -0.28458314210E+01 -0.44987650001E+00  0.68284015275E+01  0.00000000000E+00 0.  1.
</event>
<event>
 7    1  0.2903212E-011  0.5052886E+02  0.7816164E-02  0.1300439E+00
        -11   -1    0    0    0    0  0.00000000000E+00  0.00000000000E+00  0.45593999997E+02  0.45594000000E+02  0.51100000000E-03 0.  1.
         11   -1    0    0    0    0 -0.00000000000E+00 -0.00000000000E+00 -0.45593999997E+02  0.45594000000E+02  0.51100000000E-03 0. -1.
    9900012    2    1    2    0    0 -0.34803715028E+02 -0.17624107363E+02  0.11456795106E+02  0.50528857188E+02  0.29999991910E+02 0.  0.
        -12    1    1    2    0    0  0.34803715028E+02  0.17624107363E+02 -0.11456795106E+02  0.40659142812E+02  0.00000000000E+00 0.  1.
         11    1    3    3    0    0 -0.47685751029E+01  0.44520820272E+01  0.76035403638E+01  0.10018690993E+02  0.51100000000E-03 0. -1.
        -11    1    3    3    0    0 -0.25319604287E+01  0.23146781933E+01 -0.59394716778E+00  0.34815703713E+01  0.51100000000E-03 0.  1.
         12    1    3    3    0    0 -0.27503179496E+02 -0.24390867583E+02  0.44472019104E+01  0.37028595824E+02  0.00000000000E+00 0. -1.
</event>
<event>
 7    1  0.2903212E-011  0.5052886E+02  0.7816164E-02  0.1300439E+00
        -11   -1    0    0    0    0  0.00000000000E+00  0.00000000000E+00  0.45593999997E+02  0.45594000000E+02  0.51100000000E-03 0. -1.
         11   -1    0    0    0    0 -0.00000000000E+00 -0.00000000000E+00 -0.45593999997E+02  0.45594000000E+02  0.51100000000E-03 0.  1.
    9900012    2    1    2    0    0  0.15786984809E+02  0.24128274055E+02  0.28666416943E+02  0.50528856396E+02  0.29999989501E+02 0.  0.
        -12    1    1    2    0    0 -0.15786984809E+02 -0.24128274055E+02 -0.28666416943E+02  0.40659143604E+02  0.00000000000E+00 0.  1.
         11    1    3    3    0    0  0.13728438029E+02  0.17091825659E+02  0.57101746052E+01  0.22654063860E+02  0.51100000000E-03 0. -1.
        -11    1    3    3    0    0  0.10739628773E+01  0.30534958558E+01 -0.11400100654E+01  0.34317424749E+01  0.51100000000E-03 0.  1.
         12    1    3    3    0    0  0.98458390247E+00  0.39829525401E+01  0.24096252404E+02  0.24443050061E+02  0.00000000000E+00 0. -1.
</event>
<event>
 7    1  0.2903212E-011  0.5052886E+02  0.7816164E-02  0.1300439E+00
        -11   -1    0    0    0    0  0.00000000000E+00  0.00000000000E+00  0.45593999997E+02  0.45594000000E+02  0.51100000000E-03 0.  1.
         11   -1    0    0    0    0 -0.00000000000E+00 -0.00000000000E+00 -0.45593999997E+02  0.45594000000E+02  0.51100000000E-03 0. -1.
    9900012    2    1    2    0    0  0.92830749824E+01  0.15381006538E+02 -0.36474849057E+02  0.50528862565E+02  0.30000008252E+02 0.  0.
        -12    1    1    2    0    0 -0.92830749824E+01 -0.15381006538E+02  0.36474849057E+02  0.40659137435E+02  0.00000000000E+00 0.  1.
         11    1    3    3    0    0  0.65454059486E+01  0.51728482795E+01 -0.11781432093E+02  0.14436164337E+02  0.51100000000E-03 0.  1.
        -11    1    3    3    0    0  0.85942779352E+01  0.13668712542E+02 -0.79027125585E+01  0.17976322812E+02  0.51100000000E-03 0. -1.
        -12    1    3    3    0    0 -0.58566089015E+01 -0.34605542834E+01 -0.16790704405E+02  0.18116375415E+02  0.00000000000E+00 0.  1.
</event>
<event>
 7    1  0.2903212E-011  0.5052887E+02  0.7816164E-02  0.1300439E+00
        -11   -1    0    0    0    0  0.00000000000E+00  0.00000000000E+00  0.45593999997E+02  0.45594000000E+02  0.51100000000E-03 0. -1.
         11   -1    0    0    0    0 -0.00000000000E+00 -0.00000000000E+00 -0.45593999997E+02  0.45594000000E+02  0.51100000000E-03 0.  1.
    9900012    2    1    2    0    0 -0.10030106582E+02  0.18269384719E+02  0.34911192781E+02  0.50528870183E+02  0.30000031410E+02 0.  0.
        -12    1    1    2    0    0  0.10030106582E+02 -0.18269384719E+02 -0.34911192781E+02  0.40659129817E+02  0.00000000000E+00 0.  1.
         11    1    3    3    0    0 -0.92385362930E+01  0.27503380041E+01  0.29223884401E+02  0.30772558095E+02  0.51100000000E-03 0. -1.
        -11    1    3    3    0    0 -0.31918148271E+01  0.98421431537E+01  0.80971604519E+01  0.13138472948E+02  0.51100000000E-03 0.  1.
        -12    1    3    3    0    0  0.24002445384E+01  0.56769035610E+01 -0.24098520718E+01  0.66178391408E+01  0.00000000000E+00 0.  1.
</event>
<event>
 7    1  0.2903212E-011  0.5052886E+02  0.7816164E-02  0.1300439E+00
        -11   -1    0    0    0    0  0.00000000000E+00  0.00000000000E+00  0.45593999997E+02  0.45594000000E+02  0.51100000000E-03 0.  1.
         11   -1    0    0    0    0 -0.00000000000E+00 -0.00000000000E+00 -0.45593999997E+02  0.45594000000E+02  0.51100000000E-03 0. -1.
    9900012    2    1    2    0    0  0.26391852707E+02 -0.15683691431E+02 -0.26658162620E+02  0.50528859571E+02  0.29999999151E+02 0.  0.
        -12    1    1    2    0    0 -0.26391852707E+02  0.15683691431E+02  0.26658162620E+02  0.40659140429E+02  0.00000000000E+00 0.  1.
         11    1    3    3    0    0  0.24905350248E+01  0.37461621121E+01 -0.88866778584E+01  0.99603985311E+01  0.51100000000E-03 0. -1.
        -11    1    3    3    0    0  0.71793293740E+01 -0.47781286283E+01  0.39503766422E+01  0.94857134326E+01  0.51100000000E-03 0.  1.
         12    1    3    3    0    0  0.16721988308E+02 -0.14651724915E+02 -0.21721861403E+02  0.31082747607E+02  0.00000000000E+00 0. -1.
</event>
<event>
 7    1  0.2903212E-011  0.5052900E+02  0.7816164E-02  0.1300438E+00
        -11   -1    0    0    0    0  0.00000000000E+00  0.00000000000E+00  0.45593999997E+02  0.45594000000E+02  0.51100000000E-03 0.  1.
         11   -1    0    0    0    0 -0.00000000000E+00 -0.00000000000E+00 -0.45593999997E+02  0.45594000000E+02  0.51100000000E-03 0. -1.
    9900012    2    1    2    0    0 -0.38360887460E+02  0.11979336973E+02 -0.61718608075E+01  0.50529002633E+02  0.30000434000E+02 0.  0.
        -12    1    1    2    0    0  0.38360887460E+02 -0.11979336973E+02  0.61718608075E+01  0.40658997367E+02  0.00000000000E+00 0.  1.
         11    1    3    3    0    0 -0.14545384574E+02  0.32471020153E+01 -0.20047641636E+00  0.14904766853E+02  0.51100000000E-03 0. -1.
        -11    1    3    3    0    0 -0.16842299898E+02  0.11050405665E+02  0.64848700123E+01  0.21161948647E+02  0.51100000000E-03 0.  1.
        -12    1    3    3    0    0 -0.69732029890E+01 -0.23181707065E+01 -0.12456254403E+02  0.14462287133E+02  0.00000000000E+00 0.  1.
</event>
<event>
 7    1  0.2903212E-011  0.5052885E+02  0.7816164E-02  0.1300439E+00
        -11   -1    0    0    0    0  0.00000000000E+00  0.00000000000E+00  0.45593999997E+02  0.45594000000E+02  0.51100000000E-03 0.  1.
         11   -1    0    0    0    0 -0.00000000000E+00 -0.00000000000E+00 -0.45593999997E+02  0.45594000000E+02  0.51100000000E-03 0. -1.
    9900012    2    1    2    0    0  0.28032146232E+02 -0.93089692777E+01 -0.27941159833E+02  0.50528849195E+02  0.29999967614E+02 0.  0.
        -12    1    1    2    0    0 -0.28032146232E+02  0.93089692777E+01  0.27941159833E+02  0.40659150805E+02  0.00000000000E+00 0.  1.
         11    1    3    3    0    0  0.13283455410E+02 -0.14878389353E+02 -0.23249459201E+02  0.30632564548E+02  0.51100000000E-03 0. -1.
        -11    1    3    3    0    0  0.32404410927E+01 -0.85914424097E+00  0.31148211601E+01  0.45761007881E+01  0.51100000000E-03 0.  1.
        -12    1    3    3    0    0  0.11508249729E+02  0.64285643165E+01 -0.78065217921E+01  0.15320183859E+02  0.00000000000E+00 0.  1.
</event>
<event>
 7    1  0.2903212E-011  0.5052886E+02  0.7816164E-02  0.1300439E+00
        -11   -1    0    0    0    0  0.00000000000E+00  0.00000000000E+00  0.45593999997E+02  0.45594000000E+02  0.51100000000E-03 0.  1.
         11   -1    0    0    0    0 -0.00000000000E+00 -0.00000000000E+00 -0.45593999997E+02  0.45594000000E+02  0.51100000000E-03 0. -1.
    9900012    2    1    2    0    0  0.28958750589E+02  0.24516768422E+02 -0.14611115087E+02  0.50528857687E+02  0.29999993425E+02 0.  0.
        -12    1    1    2    0    0 -0.28958750589E+02 -0.24516768422E+02  0.14611115087E+02  0.40659142313E+02  0.00000000000E+00 0.  1.
         11    1    3    3    0    0  0.79350596857E+01  0.17958990141E+02  0.39700250002E+00  0.19637925307E+02  0.51100000000E-03 0. -1.
        -11    1    3    3    0    0  0.57621757491E+01  0.45440449359E+01  0.23355493154E+01  0.77010262049E+01  0.51100000000E-03 0.  1.
         12    1    3    3    0    0  0.15261515154E+02  0.20137333454E+01 -0.17343666903E+02  0.23189906175E+02  0.00000000000E+00 0. -1.
</event>
<event>
 7    1  0.2903212E-011  0.5052886E+02  0.7816164E-02  0.1300439E+00
        -11   -1    0    0    0    0  0.00000000000E+00  0.00000000000E+00  0.45593999997E+02  0.45594000000E+02  0.51100000000E-03 0.  1.
         11   -1    0    0    0    0 -0.00000000000E+00 -0.00000000000E+00 -0.45593999997E+02  0.45594000000E+02  0.51100000000E-03 0. -1.
    9900012    2    1    2    0    0 -0.55683303550E+01 -0.40187602615E+02  0.26675422177E+01  0.50528862179E+02  0.30000007079E+02 0.  0.
        -12    1    1    2    0    0  0.55683303550E+01  0.40187602615E+02 -0.26675422177E+01  0.40659137821E+02  0.00000000000E+00 0.  1.
         11    1    3    3    0    0 -0.38725890398E+01 -0.61117862730E+01  0.24643939459E+01  0.76435669095E+01  0.51100000000E-03 0. -1.
        -11    1    3    3    0    0 -0.10860868517E+02 -0.16373206104E+02  0.83522918195E+01  0.21349499337E+02  0.51100000000E-03 0.  1.
         12    1    3    3    0    0  0.91651272015E+01 -0.17702610238E+02 -0.81491435477E+01  0.21535795932E+02  0.00000000000E+00 0. -1.
</event>
<event>
 7    1  0.2903212E-011  0.5052886E+02  0.7816164E-02  0.1300439E+00
        -11   -1    0    0    0    0  0.00000000000E+00  0.00000000000E+00  0.45593999997E+02  0.45594000000E+02  0.51100000000E-03 0.  1.
         11   -1    0    0    0    0 -0.00000000000E+00 -0.00000000000E+00 -0.45593999997E+02  0.45594000000E+02  0.51100000000E-03 0. -1.
    9900012    2    1    2    0    0 -0.63573703550E+01  0.13712562584E+01 -0.40135635492E+02  0.50528859110E+02  0.29999997750E+02 0.  0.
        -12    1    1    2    0    0  0.63573703550E+01 -0.13712562584E+01  0.40135635492E+02  0.40659140890E+02  0.00000000000E+00 0.  1.
         11    1    3    3    0    0 -0.51421647940E+01  0.11529836808E+02 -0.33110901494E+02  0.35436009843E+02  0.51100000000E-03 0. -1.
        -11    1    3    3    0    0 -0.30528218734E+01 -0.29064006922E+01  0.77433118972E+00  0.42856126081E+01  0.51100000000E-03 0.  1.
        -12    1    3    3    0    0  0.18376163124E+01 -0.72521798574E+01 -0.77990651883E+01  0.10807236659E+02  0.00000000000E+00 0.  1.
</event>
<event>
 7    1  0.2903212E-011  0.5052887E+02  0.7816164E-02  0.1300439E+00
        -11   -1    0    0    0    0  0.00000000000E+00  0.00000000000E+00  0.45593999997E+02  0.45594000000E+02  0.51100000000E-03 0. -1.
         11   -1    0    0    0    0 -0.00000000000E+00 -0.00000000000E+00 -0.45593999997E+02  0.45594000000E+02  0.51100000000E-03 0.  1.
    9900012    2    1    2    0    0 -0.21079687954E+01  0.27526583732E+02  0.29849766820E+02  0.50528869123E+02  0.30000028188E+02 0.  0.
        -12    1    1    2    0    0  0.21079687954E+01 -0.27526583732E+02 -0.29849766820E+02  0.40659130877E+02  0.00000000000E+00 0.  1.
         11    1    3    3    0    0 -0.54858305052E+01  0.12681334777E+02  0.17805153508E+02  0.22537392923E+02  0.51100000000E-03 0. -1.
        -11    1    3    3    0    0 -0.84806187772E+01  0.52671315134E+01  0.55493137501E+01  0.11421841033E+02  0.51100000000E-03 0.  1.
        -12    1    3    3    0    0  0.11858480487E+02  0.95781174412E+01  0.64952995629E+01  0.16569635168E+02  0.00000000000E+00 0.  1.
</event>
<event>
 7    1  0.2903212E-011  0.5052886E+02  0.7816164E-02  0.1300439E+00
        -11   -1    0    0    0    0  0.00000000000E+00  0.00000000000E+00  0.45593999997E+02  0.45594000000E+02  0.51100000000E-03 0.  1.
         11   -1    0    0    0    0 -0.00000000000E+00 -0.00000000000E+00 -0.45593999997E+02  0.45594000000E+02  0.51100000000E-03 0. -1.
    9900012    2    1    2    0    0  0.23555020338E+02 -0.30732706488E+02 -0.12402710595E+02  0.50528862512E+02  0.30000008090E+02 0.  0.
        -12    1    1    2    0    0 -0.23555020338E+02  0.30732706488E+02  0.12402710595E+02  0.40659137488E+02  0.00000000000E+00 0.  1.
         11    1    3    3    0    0  0.12804611285E+02 -0.25654604801E+02 -0.65395450055E+01  0.29408884148E+02  0.51100000000E-03 0. -1.
        -11    1    3    3    0    0  0.10091973014E+02 -0.10350465715E+02 -0.20974029865E+01  0.14607503531E+02  0.51100000000E-03 0.  1.
        -12    1    3    3    0    0  0.65843603836E+00  0.52723640288E+01 -0.37657626033E+01  0.65124748332E+01  0.00000000000E+00 0.  1.
</event>
<event>
 7    1  0.2903212E-011  0.5052886E+02  0.7816164E-02  0.1300439E+00
        -11   -1    0    0    0    0  0.00000000000E+00  0.00000000000E+00  0.45593999997E+02  0.45594000000E+02  0.51100000000E-03 0.  1.
         11   -1    0    0    0    0 -0.00000000000E+00 -0.00000000000E+00 -0.45593999997E+02  0.45594000000E+02  0.51100000000E-03 0. -1.
    9900012    2    1    2    0    0  0.16284505801E+02  0.17618400081E+02 -0.32826393749E+02  0.50528864776E+02  0.30000014973E+02 0.  0.
        -12    1    1    2    0    0 -0.16284505801E+02 -0.17618400081E+02  0.32826393749E+02  0.40659135224E+02  0.00000000000E+00 0.  1.
         11    1    3    3    0    0  0.31529802592E+01  0.24147255122E+01  0.19600416114E+01  0.44287636191E+01  0.51100000000E-03 0. -1.
        -11    1    3    3    0    0  0.83529192061E+01 -0.25669704800E+01 -0.27610784847E+01  0.91642867354E+01  0.51100000000E-03 0.  1.
        -12    1    3    3    0    0  0.47786063358E+01  0.17770645049E+02 -0.32025356876E+02  0.36935814421E+02  0.00000000000E+00 0.  1.
</event>
<event>
 7    1  0.2903212E-011  0.5052887E+02  0.7816164E-02  0.1300439E+00
        -11   -1    0    0    0    0  0.00000000000E+00  0.00000000000E+00  0.45593999997E+02  0.45594000000E+02  0.51100000000E-03 0.  1.
         11   -1    0    0    0    0 -0.00000000000E+00 -0.00000000000E+00 -0.45593999997E+02  0.45594000000E+02  0.51100000000E-03 0. -1.
    9900012    2    1    2    0    0  0.14503692769E+02  0.24370762650E+02 -0.29135438811E+02  0.50528868544E+02  0.30000026425E+02 0.  0.
        -12    1    1    2    0    0 -0.14503692769E+02 -0.24370762650E+02  0.29135438811E+02  0.40659131456E+02  0.00000000000E+00 0.  1.
         11    1    3    3    0    0 -0.35669346311E+00  0.42339216156E+01  0.58366207473E+00  0.42888208347E+01  0.51100000000E-03 0. -1.
        -11    1    3    3    0    0  0.24595353311E+01  0.18396509126E+02 -0.61530125676E+01  0.19553527201E+02  0.51100000000E-03 0.  1.
         12    1    3    3    0    0  0.12400850901E+02  0.17403319085E+01 -0.23566088318E+02  0.26686520508E+02  0.00000000000E+00 0. -1.
</event>
<event>
 7    1  0.2903212E-011  0.5052886E+02  0.7816164E-02  0.1300439E+00
        -11   -1    0    0    0    0  0.00000000000E+00  0.00000000000E+00  0.45593999997E+02  0.45594000000E+02  0.51100000000E-03 0.  1.
         11   -1    0    0    0    0 -0.00000000000E+00 -0.00000000000E+00 -0.45593999997E+02  0.45594000000E+02  0.51100000000E-03 0. -1.
    9900012    2    1    2    0    0  0.17023692552E+02 -0.32765043962E+02 -0.17023858018E+02  0.50528856431E+02  0.29999989607E+02 0.  0.
        -12    1    1    2    0    0 -0.17023692552E+02  0.32765043962E+02  0.17023858018E+02  0.40659143569E+02  0.00000000000E+00 0.  1.
         11    1    3    3    0    0  0.56556045740E+01 -0.34823742433E+01 -0.10734552903E+02  0.12623130347E+02  0.51100000000E-03 0. -1.
        -11    1    3    3    0    0  0.87397471755E+01 -0.22246353425E+01 -0.57874113718E+01  0.10715704071E+02  0.51100000000E-03 0.  1.
        -12    1    3    3    0    0  0.26283408030E+01 -0.27058034376E+02 -0.50189374333E+00  0.27190022012E+02  0.00000000000E+00 0.  1.
</event>
<event>
 7    1  0.2903212E-011  0.5052886E+02  0.7816164E-02  0.1300439E+00
        -11   -1    0    0    0    0  0.00000000000E+00  0.00000000000E+00  0.45593999997E+02  0.45594000000E+02  0.51100000000E-03 0. -1.
         11   -1    0    0    0    0 -0.00000000000E+00 -0.00000000000E+00 -0.45593999997E+02  0.45594000000E+02  0.51100000000E-03 0.  1.
    9900012    2    1    2    0    0  0.40262935004E+02  0.12080114431E+01  0.55319824947E+01  0.50528855185E+02  0.29999985820E+02 0.  0.
        -12    1    1    2    0    0 -0.40262935004E+02 -0.12080114431E+01 -0.55319824947E+01  0.40659144815E+02  0.00000000000E+00 0.  1.
         11    1    3    3    0    0  0.17880961758E+01  0.21536275093E+01 -0.63731716194E+01  0.69607985271E+01  0.51100000000E-03 0. -1.
        -11    1    3    3    0    0  0.11409297172E+02 -0.12406336405E+00 -0.40874049797E+01  0.12119997252E+02  0.51100000000E-03 0.  1.
         12    1    3    3    0    0  0.27065541657E+02 -0.82155270215E+00  0.15992559094E+02  0.31448059405E+02  0.00000000000E+00 0. -1.
</event>
<event>
 7    1  0.2903212E-011  0.5052886E+02  0.7816164E-02  0.1300439E+00
        -11   -1    0    0    0    0  0.00000000000E+00  0.00000000000E+00  0.45593999997E+02  0.45594000000E+02  0.51100000000E-03 0.  1.
         11   -1    0    0    0    0 -0.00000000000E+00 -0.00000000000E+00 -0.45593999997E+02  0.45594000000E+02  0.51100000000E-03 0. -1.
    9900012    2    1    2    0    0  0.23158139826E+02 -0.40371983471E+00 -0.33417109521E+02  0.50528860331E+02  0.30000001461E+02 0.  0.
        -12    1    1    2    0    0 -0.23158139826E+02  0.40371983471E+00  0.33417109521E+02  0.40659139669E+02  0.00000000000E+00 0.  1.
         11    1    3    3    0    0  0.17464709145E+02 -0.65517214280E+01 -0.23009855208E+02  0.29620846648E+02  0.51100000000E-03 0. -1.
        -11    1    3    3    0    0  0.12751433021E+01  0.32136897110E+01 -0.14052926872E+02  0.14471991775E+02  0.51100000000E-03 0.  1.
         12    1    3    3    0    0  0.44182873785E+01  0.29343118823E+01  0.36456725591E+01  0.64360219072E+01  0.00000000000E+00 0. -1.
</event>
<event>
 7    1  0.2903212E-011  0.5052886E+02  0.7816164E-02  0.1300439E+00
        -11   -1    0    0    0    0  0.00000000000E+00  0.00000000000E+00  0.45593999997E+02  0.45594000000E+02  0.51100000000E-03 0. -1.
         11   -1    0    0    0    0 -0.00000000000E+00 -0.00000000000E+00 -0.45593999997E+02  0.45594000000E+02  0.51100000000E-03 0.  1.
    9900012    2    1    2    0    0 -0.22182552042E+02  0.66750773154E+01  0.33414721234E+02  0.50528857517E+02  0.29999992910E+02 0.  0.
        -12    1    1    2    0    0  0.22182552042E+02 -0.66750773154E+01 -0.33414721234E+02  0.40659142483E+02  0.00000000000E+00 0.  1.
         11    1    3    3    0    0 -0.72267012778E+01  0.25888485307E+01  0.14418618808E+02  0.16334745687E+02  0.51100000000E-03 0. -1.
        -11    1    3    3    0    0 -0.12487017816E+01 -0.10419794734E+01  0.19483205343E+02  0.19550965911E+02  0.51100000000E-03 0.  1.
        -12    1    3    3    0    0 -0.13707148983E+02  0.51282082580E+01 -0.48710291605E+00  0.14643145919E+02  0.00000000000E+00 0.  1.
</event>
<event>
 7    1  0.2903212E-011  0.5052885E+02  0.7816164E-02  0.1300439E+00
        -11   -1    0    0    0    0  0.00000000000E+00  0.00000000000E+00  0.45593999997E+02  0.45594000000E+02  0.51100000000E-03 0.  1.
         11   -1    0    0    0    0 -0.00000000000E+00 -0.00000000000E+00 -0.45593999997E+02  0.45594000000E+02  0.51100000000E-03 0. -1.
    9900012    2    1    2    0    0  0.30458043215E+02  0.60867736132E+01 -0.26237855341E+02  0.50528852661E+02  0.29999978147E+02 0.  0.
        -12    1    1    2    0    0 -0.30458043215E+02 -0.60867736132E+01  0.26237855341E+02  0.40659147339E+02  0.00000000000E+00 0.  1.
         11    1    3    3    0    0  0.18886178336E+02  0.60527467757E+01 -0.97187232003E+01  0.22085675371E+02  0.51100000000E-03 0. -1.
        -11    1    3    3    0    0  0.71982758570E+01  0.84949345412E+01 -0.15178834953E+02  0.18824880317E+02  0.51100000000E-03 0.  1.
         12    1    3    3    0    0  0.43735890213E+01 -0.84609077036E+01 -0.13402971872E+01  0.96182969723E+01  0.00000000000E+00 0. -1.
</event>
<event>
 7    1  0.2903212E-011  0.5052886E+02  0.7816164E-02  0.1300439E+00
        -11   -1    0    0    0    0  0.00000000000E+00  0.00000000000E+00  0.45593999997E+02  0.45594000000E+02  0.51100000000E-03 0.  1.
         11   -1    0    0    0    0 -0.00000000000E+00 -0.00000000000E+00 -0.45593999997E+02  0.45594000000E+02  0.51100000000E-03 0. -1.
    9900012    2    1    2    0    0  0.14743019096E+02  0.27370530864E+02 -0.26204261125E+02  0.50528857449E+02  0.29999992703E+02 0.  0.
        -12    1    1    2    0    0 -0.14743019096E+02 -0.27370530864E+02  0.26204261125E+02  0.40659142551E+02  0.00000000000E+00 0.  1.
         11    1    3    3    0    0  0.66314166460E+01  0.87392415586E+01 -0.17908055798E+02  0.21001154551E+02  0.51100000000E-03 0. -1.
        -11    1    3    3    0    0 -0.41017079563E+01  0.42639386014E+01 -0.88697848340E+01  0.10662000929E+02  0.51100000000E-03 0.  1.
        -12    1    3    3    0    0  0.12213310406E+02  0.14367350704E+02  0.57357950646E+00  0.18865701969E+02  0.00000000000E+00 0.  1.
</event>
<event>
 7    1  0.2903212E-011  0.5052885E+02  0.7816164E-02  0.1300439E+00
        -11   -1    0    0    0    0  0.00000000000E+00  0.00000000000E+00  0.45593999997E+02  0.45594000000E+02  0.51100000000E-03 0. -1.
         11   -1    0    0    0    0 -0.00000000000E+00 -0.00000000000E+00 -0.45593999997E+02  0.45594000000E+02  0.51100000000E-03 0.  1.
    9900012    2    1    2    0    0  0.31403514345E+02  0.22499598730E+02 -0.12678860816E+02  0.50528853824E+02  0.29999981682E+02 0.  0.
        -12    1    1    2    0    0 -0.31403514345E+02 -0.22499598730E+02  0.12678860816E+02  0.40659146176E+02  0.00000000000E+00 0.  1.
         11    1    3    3    0    0  0.24308439788E+02  0.20471533565E+01 -0.91201570567E+01  0.26043585522E+02  0.51100000000E-03 0.  1.
        -11    1    3    3    0    0  0.73866810043E+01  0.69746927962E+01 -0.41905899272E+01  0.10989560503E+02  0.51100000000E-03 0. -1.
        -12    1    3    3    0    0 -0.29160644816E+00  0.13477752577E+02  0.63188616838E+00  0.13495707799E+02  0.00000000000E+00 0.  1.
</event>
<event>
 7    1  0.2903212E-011  0.5052888E+02  0.7816164E-02  0.1300439E+00
        -11   -1    0    0    0    0  0.00000000000E+00  0.00000000000E+00  0.45593999997E+02  0.45594000000E+02  0.51100000000E-03 0.  1.
         11   -1    0    0    0    0 -0.00000000000E+00 -0.00000000000E+00 -0.45593999997E+02  0.45594000000E+02  0.51100000000E-03 0. -1.
    9900012    2    1    2    0    0 -0.12854182157E+02  0.14279797046E+02 -0.35833249538E+02  0.50528875869E+02  0.30000048692E+02 0.  0.
        -12    1    1    2    0    0  0.12854182157E+02 -0.14279797046E+02  0.35833249538E+02  0.40659124131E+02  0.00000000000E+00 0.  1.
         11    1    3    3    0    0 -0.17087215527E+02  0.15093015379E+02 -0.36461919449E+02  0.43002832673E+02  0.51100000000E-03 0. -1.
        -11    1    3    3    0    0 -0.90097424500E+00  0.15898150974E+01  0.50398746672E-01  0.18280609752E+01  0.51100000000E-03 0.  1.
        -12    1    3    3    0    0  0.51340076146E+01 -0.24030334307E+01  0.57827116387E+00  0.56979822214E+01  0.00000000000E+00 0.  1.
</event>
<event>
 7    1  0.2903212E-011  0.5052892E+02  0.7816164E-02  0.1300439E+00
        -11   -1    0    0    0    0  0.00000000000E+00  0.00000000000E+00  0.45593999997E+02  0.45594000000E+02  0.51100000000E-03 0.  1.
         11   -1    0    0    0    0 -0.00000000000E+00 -0.00000000000E+00 -0.45593999997E+02  0.45594000000E+02  0.51100000000E-03 0. -1.
    9900012    2    1    2    0    0 -0.18104132550E+02  0.33591764078E+02  0.14035465784E+02  0.50528923166E+02  0.30000192454E+02 0.  0.
        -12    1    1    2    0    0  0.18104132550E+02 -0.33591764078E+02 -0.14035465784E+02  0.40659076834E+02  0.00000000000E+00 0.  1.
         11    1    3    3    0    0 -0.96497149290E+01  0.32678257967E+01 -0.20471118937E+01  0.10391648138E+02  0.51100000000E-03 0. -1.
        -11    1    3    3    0    0 -0.50126213254E+00 -0.81551097858E+00 -0.27328528120E+01  0.28956530585E+01  0.51100000000E-03 0.  1.
         12    1    3    3    0    0 -0.79531554885E+01  0.31139449260E+02  0.18815430490E+02  0.37241621970E+02  0.00000000000E+00 0. -1.
</event>
<event>
 7    1  0.2903212E-011  0.5052886E+02  0.7816164E-02  0.1300439E+00
        -11   -1    0    0    0    0  0.00000000000E+00  0.00000000000E+00  0.45593999997E+02  0.45594000000E+02  0.51100000000E-03 0. -1.
         11   -1    0    0    0    0 -0.00000000000E+00 -0.00000000000E+00 -0.45593999997E+02  0.45594000000E+02  0.51100000000E-03 0.  1.
    9900012    2    1    2    0    0  0.38021886342E+02  0.40636097061E+00  0.14399180214E+02  0.50528863745E+02  0.30000011838E+02 0.  0.
        -12    1    1    2    0    0 -0.38021886342E+02 -0.40636097061E+00 -0.14399180214E+02  0.40659136255E+02  0.00000000000E+00 0.  1.
         11    1    3    3    0    0  0.12742097047E+02  0.11458465460E+02  0.37840129689E+01  0.17549251331E+02  0.51100000000E-03 0. -1.
        -11    1    3    3    0    0  0.11960160067E+01  0.24228832470E+01 -0.12038808064E+01  0.29580647008E+01  0.51100000000E-03 0.  1.
        -12    1    3    3    0    0  0.24083773287E+02 -0.13474987736E+02  0.11819048051E+02  0.30021547713E+02  0.00000000000E+00 0.  1.
</event>
<event>
 7    1  0.2903212E-011  0.5052889E+02  0.7816164E-02  0.1300439E+00
        -11   -1    0    0    0    0  0.00000000000E+00  0.00000000000E+00  0.45593999997E+02  0.45594000000E+02  0.51100000000E-03 0.  1.
         11   -1    0    0    0    0 -0.00000000000E+00 -0.00000000000E+00 -0.45593999997E+02  0.45594000000E+02  0.51100000000E-03 0. -1.
    9900012    2    1    2    0    0 -0.40047562654E+02  0.28998742964E+01 -0.63989661527E+01  0.50528888927E+02  0.30000088382E+02 0.  0.
        -12    1    1    2    0    0  0.40047562654E+02 -0.28998742964E+01  0.63989661527E+01  0.40659111073E+02  0.00000000000E+00 0.  1.
         11    1    3    3    0    0 -0.26041464252E+02 -0.14797178136E+01  0.16725365590E+01  0.26137038929E+02  0.51100000000E-03 0. -1.
        -11    1    3    3    0    0 -0.99715078774E+01  0.32432838053E+01  0.42973142038E+01  0.11332112284E+02  0.51100000000E-03 0.  1.
         12    1    3    3    0    0 -0.40345905247E+01  0.11363083047E+01 -0.12368816916E+02  0.13059737714E+02  0.00000000000E+00 0. -1.
</event>
<event>
 7    1  0.2903212E-011  0.5052886E+02  0.7816164E-02  0.1300439E+00
        -11   -1    0    0    0    0  0.00000000000E+00  0.00000000000E+00  0.45593999997E+02  0.45594000000E+02  0.51100000000E-03 0.  1.
         11   -1    0    0    0    0 -0.00000000000E+00 -0.00000000000E+00 -0.45593999997E+02  0.45594000000E+02  0.51100000000E-03 0. -1.
    9900012    2    1    2    0    0 -0.26084522087E+02 -0.26229363875E+02 -0.16875549164E+02  0.50528856116E+02  0.29999988651E+02 0.  0.
        -12    1    1    2    0    0  0.26084522087E+02  0.26229363875E+02  0.16875549164E+02  0.40659143884E+02  0.00000000000E+00 0.  1.
         11    1    3    3    0    0 -0.86499574042E+01  0.36805199717E+01  0.10851922725E+00  0.94010513796E+01  0.51100000000E-03 0. -1.
        -11    1    3    3    0    0 -0.81138170559E+01 -0.99286073820E+01 -0.13822490604E+02  0.18853978851E+02  0.51100000000E-03 0.  1.
        -12    1    3    3    0    0 -0.93207476270E+01 -0.19981276465E+02 -0.31615777871E+01  0.22273825886E+02  0.00000000000E+00 0.  1.
</event>
<event>
 7    1  0.2903212E-011  0.5052888E+02  0.7816164E-02  0.1300439E+00
        -11   -1    0    0    0    0  0.00000000000E+00  0.00000000000E+00  0.45593999997E+02  0.45594000000E+02  0.51100000000E-03 0.  1.
         11   -1    0    0    0    0 -0.00000000000E+00 -0.00000000000E+00 -0.45593999997E+02  0.45594000000E+02  0.51100000000E-03 0. -1.
    9900012    2    1    2    0    0 -0.24264478943E+02 -0.63270285454E+01 -0.32005746493E+02  0.50528880025E+02  0.30000061323E+02 0.  0.
        -12    1    1    2    0    0  0.24264478943E+02  0.63270285454E+01  0.32005746493E+02  0.40659119975E+02  0.00000000000E+00 0.  1.
         11    1    3    3    0    0 -0.11612376239E+02 -0.84708301300E+01 -0.18829099317E+02  0.23688335238E+02  0.51100000000E-03 0. -1.
        -11    1    3    3    0    0 -0.11923168551E+02 -0.51631101459E+01 -0.14400889370E+02  0.19396011693E+02  0.51100000000E-03 0.  1.
        -12    1    3    3    0    0 -0.72893415262E+00  0.73069117305E+01  0.12242421941E+01  0.74445330938E+01  0.00000000000E+00 0.  1.
</event>
<event>
 7    1  0.2903212E-011  0.5052886E+02  0.7816164E-02  0.1300439E+00
        -11   -1    0    0    0    0  0.00000000000E+00  0.00000000000E+00  0.45593999997E+02  0.45594000000E+02  0.51100000000E-03 0.  1.
         11   -1    0    0    0    0 -0.00000000000E+00 -0.00000000000E+00 -0.45593999997E+02  0.45594000000E+02  0.51100000000E-03 0. -1.
    9900012    2    1    2    0    0 -0.21265511800E+02  0.26441814393E+02 -0.22400310599E+02  0.50528862584E+02  0.30000008309E+02 0.  0.
        -12    1    1    2    0    0  0.21265511800E+02 -0.26441814393E+02  0.22400310599E+02  0.40659137416E+02  0.00000000000E+00 0.  1.
         11    1    3    3    0    0 -0.11735187847E+02  0.22126518090E+01 -0.16377973335E+02  0.20269397442E+02  0.51100000000E-03 0. -1.
        -11    1    3    3    0    0 -0.82487681060E+01  0.80712932378E+01 -0.78361721496E+01  0.13949678993E+02  0.51100000000E-03 0.  1.
        -12    1    3    3    0    0 -0.12815558474E+01  0.16157869346E+02  0.18138348863E+01  0.16309786148E+02  0.00000000000E+00 0.  1.
</event>
<event>
 7    1  0.2903212E-011  0.5052884E+02  0.7816164E-02  0.1300439E+00
        -11   -1    0    0    0    0  0.00000000000E+00  0.00000000000E+00  0.45593999997E+02  0.45594000000E+02  0.51100000000E-03 0. -1.
         11   -1    0    0    0    0 -0.00000000000E+00 -0.00000000000E+00 -0.45593999997E+02  0.45594000000E+02  0.51100000000E-03 0.  1.
    9900012    2    1    2    0    0  0.26994436224E+02 -0.15359797176E+02  0.26240133154E+02  0.50528836897E+02  0.29999930231E+02 0.  0.
        -12    1    1    2    0    0 -0.26994436224E+02  0.15359797176E+02 -0.26240133154E+02  0.40659163103E+02  0.00000000000E+00 0.  1.
         11    1    3    3    0    0  0.18083937548E+02  0.10224766620E+01  0.73440613387E+01  0.19545063136E+02  0.51100000000E-03 0. -1.
        -11    1    3    3    0    0  0.44491677975E+01  0.15670374699E+01  0.86177122977E+01  0.98242386997E+01  0.51100000000E-03 0.  1.
        -12    1    3    3    0    0  0.44613308782E+01 -0.17949311308E+02  0.10278359518E+02  0.21159535061E+02  0.00000000000E+00 0.  1.
</event>
<event>
 7    1  0.2903212E-011  0.5052887E+02  0.7816164E-02  0.1300439E+00
        -11   -1    0    0    0    0  0.00000000000E+00  0.00000000000E+00  0.45593999997E+02  0.45594000000E+02  0.51100000000E-03 0.  1.
         11   -1    0    0    0    0 -0.00000000000E+00 -0.00000000000E+00 -0.45593999997E+02  0.45594000000E+02  0.51100000000E-03 0. -1.
    9900012    2    1    2    0    0 -0.23479894343E+02 -0.32250652359E+02 -0.78584312632E+01  0.50528868703E+02  0.30000026909E+02 0.  0.
        -12    1    1    2    0    0  0.23479894343E+02  0.32250652359E+02  0.78584312632E+01  0.40659131297E+02  0.00000000000E+00 0.  1.
         11    1    3    3    0    0 -0.13913763693E+02 -0.10563480923E+02  0.49264479405E+00  0.17476345398E+02  0.51100000000E-03 0. -1.
        -11    1    3    3    0    0 -0.63848168178E+01 -0.10457057470E+02  0.67326608133E+01  0.13980152310E+02  0.51100000000E-03 0.  1.
         12    1    3    3    0    0 -0.31813138327E+01 -0.11230113966E+02 -0.15083736870E+02  0.19072370995E+02  0.00000000000E+00 0. -1.
</event>
<event>
 7    1  0.2903212E-011  0.5052884E+02  0.7816164E-02  0.1300439E+00
        -11   -1    0    0    0    0  0.00000000000E+00  0.00000000000E+00  0.45593999997E+02  0.45594000000E+02  0.51100000000E-03 0. -1.
         11   -1    0    0    0    0 -0.00000000000E+00 -0.00000000000E+00 -0.45593999997E+02  0.45594000000E+02  0.51100000000E-03 0.  1.
    9900012    2    1    2    0    0  0.16603932909E+02  0.31777874639E+02  0.19174028119E+02  0.50528840406E+02  0.29999940897E+02 0.  0.
        -12    1    1    2    0    0 -0.16603932909E+02 -0.31777874639E+02 -0.19174028119E+02  0.40659159594E+02  0.00000000000E+00 0.  1.
         11    1    3    3    0    0 -0.28048098740E+01  0.31875676948E+01  0.10428327449E+01  0.43720757808E+01  0.51100000000E-03 0. -1.
        -11    1    3    3    0    0  0.67209433458E+01  0.10196921383E+02 -0.57095978536E+01  0.13481386912E+02  0.51100000000E-03 0.  1.
         12    1    3    3    0    0  0.12687799437E+02  0.18393385561E+02  0.23840793228E+02  0.32675377713E+02  0.00000000000E+00 0. -1.
</event>
<event>
 7    1  0.2903212E-011  0.5052886E+02  0.7816164E-02  0.1300439E+00
        -11   -1    0    0    0    0  0.00000000000E+00  0.00000000000E+00  0.45593999997E+02  0.45594000000E+02  0.51100000000E-03 0.  1.
         11   -1    0    0    0    0 -0.00000000000E+00 -0.00000000000E+00 -0.45593999997E+02  0.45594000000E+02  0.51100000000E-03 0. -1.
    9900012    2    1    2    0    0 -0.56478253347E+01 -0.48849763535E+01 -0.39967545908E+02  0.50528860180E+02  0.30000001002E+02 0.  0.
        -12    1    1    2    0    0  0.56478253347E+01  0.48849763535E+01  0.39967545908E+02  0.40659139820E+02  0.00000000000E+00 0.  1.
         11    1    3    3    0    0 -0.11831709913E+02  0.22169833604E+01 -0.21234357117E+02  0.24409061783E+02  0.51100000000E-03 0. -1.
        -11    1    3    3    0    0 -0.13776021678E+01  0.41985942992E+01 -0.30831063754E+01  0.53880912209E+01  0.51100000000E-03 0.  1.
         12    1    3    3    0    0  0.75614867458E+01 -0.11300554013E+02 -0.15650082416E+02  0.20731707176E+02  0.00000000000E+00 0. -1.
</event>
<event>
 7    1  0.2903212E-011  0.5052885E+02  0.7816164E-02  0.1300439E+00
        -11   -1    0    0    0    0  0.00000000000E+00  0.00000000000E+00  0.45593999997E+02  0.45594000000E+02  0.51100000000E-03 0.  1.
         11   -1    0    0    0    0 -0.00000000000E+00 -0.00000000000E+00 -0.45593999997E+02  0.45594000000E+02  0.51100000000E-03 0. -1.
    9900012    2    1    2    0    0  0.10023454362E+02  0.12371385441E+02 -0.37411834990E+02  0.50528853275E+02  0.29999980016E+02 0.  0.
        -12    1    1    2    0    0 -0.10023454362E+02 -0.12371385441E+02  0.37411834990E+02  0.40659146725E+02  0.00000000000E+00 0.  1.
         11    1    3    3    0    0 -0.16291535873E+01  0.43827118443E+01  0.21022314588E+01  0.51265662864E+01  0.51100000000E-03 0. -1.
        -11    1    3    3    0    0  0.99607460056E+00  0.91897362751E+01 -0.83932949620E+01  0.12485624454E+02  0.51100000000E-03 0.  1.
         12    1    3    3    0    0  0.10656533348E+02 -0.12010626781E+01 -0.31120771486E+02  0.32916662535E+02  0.00000000000E+00 0. -1.
</event>
<event>
 7    1  0.2903212E-011  0.5052886E+02  0.7816164E-02  0.1300439E+00
        -11   -1    0    0    0    0  0.00000000000E+00  0.00000000000E+00  0.45593999997E+02  0.45594000000E+02  0.51100000000E-03 0.  1.
         11   -1    0    0    0    0 -0.00000000000E+00 -0.00000000000E+00 -0.45593999997E+02  0.45594000000E+02  0.51100000000E-03 0. -1.
    9900012    2    1    2    0    0  0.20192038288E+02  0.20655701756E+02 -0.28614500326E+02  0.50528855221E+02  0.29999985931E+02 0.  0.
        -12    1    1    2    0    0 -0.20192038288E+02 -0.20655701756E+02  0.28614500326E+02  0.40659144779E+02  0.00000000000E+00 0.  1.
         11    1    3    3    0    0  0.30706329612E+01  0.42503883975E+01 -0.72191432260E+01  0.89224782146E+01  0.51100000000E-03 0. -1.
        -11    1    3    3    0    0  0.19465106101E+02  0.19380078021E+02 -0.94067843693E+01  0.29033865951E+02  0.51100000000E-03 0.  1.
        -12    1    3    3    0    0 -0.23437007745E+01 -0.29747646634E+01 -0.11988572731E+02  0.12572511055E+02  0.00000000000E+00 0.  1.
</event>
<event>
 7    1  0.2903212E-011  0.5052887E+02  0.7816164E-02  0.1300439E+00
        -11   -1    0    0    0    0  0.00000000000E+00  0.00000000000E+00  0.45593999997E+02  0.45594000000E+02  0.51100000000E-03 0. -1.
         11   -1    0    0    0    0 -0.00000000000E+00 -0.00000000000E+00 -0.45593999997E+02  0.45594000000E+02  0.51100000000E-03 0.  1.
    9900012    2    1    2    0    0  0.12990413341E+02  0.33964946806E+02  0.18187819520E+02  0.50528865366E+02  0.30000016766E+02 0.  0.
        -12    1    1    2    0    0 -0.12990413341E+02 -0.33964946806E+02 -0.18187819520E+02  0.40659134634E+02  0.00000000000E+00 0.  1.
         11    1    3    3    0    0  0.12124188724E+01  0.91905100455E+01 -0.19502547152E+01  0.94730632920E+01  0.51100000000E-03 0. -1.
        -11    1    3    3    0    0  0.48895034050E+01 -0.39072022316E+01  0.40736855392E+01  0.74678234419E+01  0.51100000000E-03 0.  1.
         12    1    3    3    0    0  0.68884910633E+01  0.28681638992E+02  0.16064388696E+02  0.33587978632E+02  0.00000000000E+00 0. -1.
</event>
<event>
 7    1  0.2903212E-011  0.5052886E+02  0.7816164E-02  0.1300439E+00
        -11   -1    0    0    0    0  0.00000000000E+00  0.00000000000E+00  0.45593999997E+02  0.45594000000E+02  0.51100000000E-03 0. -1.
         11   -1    0    0    0    0 -0.00000000000E+00 -0.00000000000E+00 -0.45593999997E+02  0.45594000000E+02  0.51100000000E-03 0.  1.
    9900012    2    1    2    0    0 -0.34704493571E+02  0.10624400925E+02  0.18327182943E+02  0.50528863220E+02  0.30000010244E+02 0.  0.
        -12    1    1    2    0    0  0.34704493571E+02 -0.10624400925E+02 -0.18327182943E+02  0.40659136780E+02  0.00000000000E+00 0.  1.
         11    1    3    3    0    0 -0.11734195236E+02  0.13886024648E+02  0.26486606155E+00  0.18181946339E+02  0.51100000000E-03 0.  1.
        -11    1    3    3    0    0 -0.10699161329E+02  0.48589887045E+01  0.53921365091E+01  0.12928919552E+02  0.51100000000E-03 0. -1.
        -12    1    3    3    0    0 -0.12271137006E+02 -0.81206124279E+01  0.12670180373E+02  0.19417997330E+02  0.00000000000E+00 0.  1.
</event>
<event>
 7    1  0.2903212E-011  0.5052886E+02  0.7816164E-02  0.1300439E+00
        -11   -1    0    0    0    0  0.00000000000E+00  0.00000000000E+00  0.45593999997E+02  0.45594000000E+02  0.51100000000E-03 0. -1.
         11   -1    0    0    0    0 -0.00000000000E+00 -0.00000000000E+00 -0.45593999997E+02  0.45594000000E+02  0.51100000000E-03 0.  1.
    9900012    2    1    2    0    0  0.18554488387E+02 -0.32063829459E+02  0.16757302313E+02  0.50528863515E+02  0.30000011141E+02 0.  0.
        -12    1    1    2    0    0 -0.18554488387E+02  0.32063829459E+02 -0.16757302313E+02  0.40659136485E+02  0.00000000000E+00 0.  1.
         11    1    3    3    0    0  0.85813679153E+01 -0.21453073419E+02  0.45130641979E+01  0.23542344470E+02  0.51100000000E-03 0. -1.
        -11    1    3    3    0    0  0.67619176278E+01 -0.12007225176E+02 -0.48057137625E+00  0.13788688681E+02  0.51100000000E-03 0.  1.
         12    1    3    3    0    0  0.32112028435E+01  0.13964691356E+01  0.12724809491E+02  0.13197830365E+02  0.00000000000E+00 0. -1.
</event>
<event>
 7    1  0.2903212E-011  0.5052886E+02  0.7816164E-02  0.1300439E+00
        -11   -1    0    0    0    0  0.00000000000E+00  0.00000000000E+00  0.45593999997E+02  0.45594000000E+02  0.51100000000E-03 0. -1.
         11   -1    0    0    0    0 -0.00000000000E+00 -0.00000000000E+00 -0.45593999997E+02  0.45594000000E+02  0.51100000000E-03 0.  1.
    9900012    2    1    2    0    0  0.10399285022E+02  0.17287510097E+02  0.35301025822E+02  0.50528861318E+02  0.30000004461E+02 0.  0.
        -12    1    1    2    0    0 -0.10399285022E+02 -0.17287510097E+02 -0.35301025822E+02  0.40659138682E+02  0.00000000000E+00 0.  1.
         11    1    3    3    0    0 -0.22599280030E+01 -0.51035789053E+01  0.15395023495E+02  0.16375608108E+02  0.51100000000E-03 0. -1.
        -11    1    3    3    0    0  0.12720684477E+02  0.14408633147E+02  0.16994628042E+02  0.25656225468E+02  0.51100000000E-03 0.  1.
        -12    1    3    3    0    0 -0.61471451176E-01  0.79824558556E+01  0.29113742847E+01  0.84970277422E+01  0.00000000000E+00 0.  1.
</event>
<event>
 7    1  0.2903212E-011  0.5052883E+02  0.7816164E-02  0.1300439E+00
        -11   -1    0    0    0    0  0.00000000000E+00  0.00000000000E+00  0.45593999997E+02  0.45594000000E+02  0.51100000000E-03 0. -1.
         11   -1    0    0    0    0 -0.00000000000E+00 -0.00000000000E+00 -0.45593999997E+02  0.45594000000E+02  0.51100000000E-03 0.  1.
    9900012    2    1    2    0    0  0.40438136315E+01  0.40433523253E+02  0.13948821830E+01  0.50528832182E+02  0.29999915900E+02 0.  0.
        -12    1    1    2    0    0 -0.40438136315E+01 -0.40433523253E+02 -0.13948821830E+01  0.40659167818E+02  0.00000000000E+00 0.  1.
         11    1    3    3    0    0  0.83640451958E+01  0.35942528413E+02  0.21237272825E+01  0.36963939436E+02  0.51100000000E-03 0. -1.
        -11    1    3    3    0    0 -0.58666568115E+00  0.74338329884E+01  0.24465011309E+01  0.78480199774E+01  0.51100000000E-03 0.  1.
        -12    1    3    3    0    0 -0.37335658832E+01 -0.29428381482E+01 -0.31753462305E+01  0.57168727687E+01  0.00000000000E+00 0.  1.
</event>
<event>
 7    1  0.2903212E-011  0.5052884E+02  0.7816164E-02  0.1300439E+00
        -11   -1    0    0    0    0  0.00000000000E+00  0.00000000000E+00  0.45593999997E+02  0.45594000000E+02  0.51100000000E-03 0.  1.
         11   -1    0    0    0    0 -0.00000000000E+00 -0.00000000000E+00 -0.45593999997E+02  0.45594000000E+02  0.51100000000E-03 0. -1.
    9900012    2    1    2    0    0 -0.15279510914E+02 -0.34072188214E+02  0.16086945283E+02  0.50528840244E+02  0.29999940407E+02 0.  0.
        -12    1    1    2    0    0  0.15279510914E+02  0.34072188214E+02 -0.16086945283E+02  0.40659159756E+02  0.00000000000E+00 0.  1.
         11    1    3    3    0    0 -0.10790844126E+02 -0.25297473590E+02  0.14880859056E+02  0.31270504529E+02  0.51100000000E-03 0. -1.
        -11    1    3    3    0    0 -0.50013215225E+00 -0.45832833199E+00  0.78575398010E+01  0.78867692381E+01  0.51100000000E-03 0.  1.
         12    1    3    3    0    0 -0.39885346349E+01 -0.83163862926E+01 -0.66514535737E+01  0.11371566477E+02  0.00000000000E+00 0. -1.
</event>
<event>
 7    1  0.2903212E-011  0.5052886E+02  0.7816164E-02  0.1300439E+00
        -11   -1    0    0    0    0  0.00000000000E+00  0.00000000000E+00  0.45593999997E+02  0.45594000000E+02  0.51100000000E-03 0. -1.
         11   -1    0    0    0    0 -0.00000000000E+00 -0.00000000000E+00 -0.45593999997E+02  0.45594000000E+02  0.51100000000E-03 0.  1.
    9900012    2    1    2    0    0  0.23283976734E+02  0.92809588482E+01  0.32013840919E+02  0.50528858591E+02  0.29999996174E+02 0.  0.
        -12    1    1    2    0    0 -0.23283976734E+02 -0.92809588482E+01 -0.32013840919E+02  0.40659141409E+02  0.00000000000E+00 0.  1.
         11    1    3    3    0    0  0.22278603765E+01 -0.38325817861E+01  0.56265406704E+00  0.44686267314E+01  0.51100000000E-03 0.  1.
        -11    1    3    3    0    0  0.92417278641E+00 -0.53707848048E+01  0.97181381460E+01  0.11141886467E+02  0.51100000000E-03 0. -1.
         12    1    3    3    0    0  0.20131943571E+02  0.18484325439E+02  0.21733048706E+02  0.34918345393E+02  0.00000000000E+00 0. -1.
</event>
<event>
 7    1  0.2903212E-011  0.5052886E+02  0.7816164E-02  0.1300439E+00
        -11   -1    0    0    0    0  0.00000000000E+00  0.00000000000E+00  0.45593999997E+02  0.45594000000E+02  0.51100000000E-03 0.  1.
         11   -1    0    0    0    0 -0.00000000000E+00 -0.00000000000E+00 -0.45593999997E+02  0.45594000000E+02  0.51100000000E-03 0. -1.
    9900012    2    1    2    0    0 -0.32105222580E+01  0.79968894488E+01 -0.39735477764E+02  0.50528857275E+02  0.29999992173E+02 0.  0.
        -12    1    1    2    0    0  0.32105222580E+01 -0.79968894488E+01  0.39735477764E+02  0.40659142725E+02  0.00000000000E+00 0.  1.
         11    1    3    3    0    0  0.33605135082E+00  0.59011140958E+01 -0.20000259503E+02  0.20855370017E+02  0.51100000000E-03 0. -1.
        -11    1    3    3    0    0 -0.68999499751E+01 -0.75257665877E+01 -0.15671014180E+02  0.18703666969E+02  0.51100000000E-03 0.  1.
        -12    1    3    3    0    0  0.33533763663E+01  0.96215419407E+01 -0.40642040799E+01  0.10969820289E+02  0.00000000000E+00 0.  1.
</event>
<event>
 7    1  0.2903212E-011  0.5052886E+02  0.7816164E-02  0.1300439E+00
        -11   -1    0    0    0    0  0.00000000000E+00  0.00000000000E+00  0.45593999997E+02  0.45594000000E+02  0.51100000000E-03 0. -1.
         11   -1    0    0    0    0 -0.00000000000E+00 -0.00000000000E+00 -0.45593999997E+02  0.45594000000E+02  0.51100000000E-03 0.  1.
    9900012    2    1    2    0    0 -0.15448955043E+02  0.14280172566E+02  0.34793279668E+02  0.50528857726E+02  0.29999993543E+02 0.  0.
        -12    1    1    2    0    0  0.15448955043E+02 -0.14280172566E+02 -0.34793279668E+02  0.40659142274E+02  0.00000000000E+00 0.  1.
         11    1    3    3    0    0 -0.84490199047E+01  0.10888065277E+01  0.96121371121E+01  0.12843855228E+02  0.51100000000E-03 0. -1.
        -11    1    3    3    0    0 -0.33715886503E+00  0.26778264542E+01  0.25092987367E+02  0.25237718713E+02  0.51100000000E-03 0.  1.
         12    1    3    3    0    0 -0.66627762734E+01  0.10513539584E+02  0.88155189146E-01  0.12447283784E+02  0.00000000000E+00 0. -1.
</event>
<event>
 7    1  0.2903212E-011  0.5052886E+02  0.7816164E-02  0.1300439E+00
        -11   -1    0    0    0    0  0.00000000000E+00  0.00000000000E+00  0.45593999997E+02  0.45594000000E+02  0.51100000000E-03 0. -1.
         11   -1    0    0    0    0 -0.00000000000E+00 -0.00000000000E+00 -0.45593999997E+02  0.45594000000E+02  0.51100000000E-03 0.  1.
    9900012    2    1    2    0    0 -0.18891172867E+02  0.62378927920E+01  0.35459527656E+02  0.50528858096E+02  0.29999994669E+02 0.  0.
        -12    1    1    2    0    0  0.18891172867E+02 -0.62378927920E+01 -0.35459527656E+02  0.40659141904E+02  0.00000000000E+00 0.  1.
         11    1    3    3    0    0 -0.36957759314E+01  0.21928991448E+01  0.24983605225E+01  0.49708522364E+01  0.51100000000E-03 0. -1.
        -11    1    3    3    0    0 -0.24699323560E+01  0.82119760954E+01 -0.13918000406E+01  0.86875902786E+01  0.51100000000E-03 0.  1.
         12    1    3    3    0    0 -0.12725464580E+02 -0.41669824481E+01  0.34352967174E+02  0.36870415581E+02  0.00000000000E+00 0. -1.
</event>
<event>
 7    1  0.2903212E-011  0.5052886E+02  0.7816164E-02  0.1300439E+00
        -11   -1    0    0    0    0  0.00000000000E+00  0.00000000000E+00  0.45593999997E+02  0.45594000000E+02  0.51100000000E-03 0.  1.
         11   -1    0    0    0    0 -0.00000000000E+00 -0.00000000000E+00 -0.45593999997E+02  0.45594000000E+02  0.51100000000E-03 0. -1.
    9900012    2    1    2    0    0 -0.23498330339E+02 -0.26206291161E+02 -0.20352508895E+02  0.50528857812E+02  0.29999993806E+02 0.  0.
        -12    1    1    2    0    0  0.23498330339E+02  0.26206291161E+02  0.20352508895E+02  0.40659142188E+02  0.00000000000E+00 0.  1.
         11    1    3    3    0    0 -0.14588069963E+02  0.30195309012E+01 -0.29724904679E+01  0.15190952964E+02  0.51100000000E-03 0. -1.
        -11    1    3    3    0    0 -0.91482946228E+00 -0.31464952160E+01 -0.65603778520E+00  0.33418155135E+01  0.51100000000E-03 0.  1.
         12    1    3    3    0    0 -0.79954309135E+01 -0.26079326846E+02 -0.16723980642E+02  0.31996089335E+02  0.00000000000E+00 0. -1.
</event>
<event>
 7    1  0.2903212E-011  0.5052886E+02  0.7816164E-02  0.1300439E+00
        -11   -1    0    0    0    0  0.00000000000E+00  0.00000000000E+00  0.45593999997E+02  0.45594000000E+02  0.51100000000E-03 0.  1.
         11   -1    0    0    0    0 -0.00000000000E+00 -0.00000000000E+00 -0.45593999997E+02  0.45594000000E+02  0.51100000000E-03 0. -1.
    9900012    2    1    2    0    0 -0.26378158754E+02  0.12327737546E+02 -0.28379317552E+02  0.50528855433E+02  0.29999986573E+02 0.  0.
        -12    1    1    2    0    0  0.26378158754E+02 -0.12327737546E+02  0.28379317552E+02  0.40659144567E+02  0.00000000000E+00 0.  1.
         11    1    3    3    0    0 -0.87212760974E+01  0.42997582545E+01 -0.12085978988E+02  0.15511913685E+02  0.51100000000E-03 0. -1.
        -11    1    3    3    0    0 -0.32263809411E+01 -0.24790802198E+01 -0.16673187833E+02  0.17162475506E+02  0.51100000000E-03 0.  1.
         12    1    3    3    0    0 -0.14430501715E+02  0.10507059511E+02  0.37984926870E+00  0.17854466242E+02  0.00000000000E+00 0. -1.
</event>
<event>
 7    1  0.2903212E-011  0.5052887E+02  0.7816164E-02  0.1300439E+00
        -11   -1    0    0    0    0  0.00000000000E+00  0.00000000000E+00  0.45593999997E+02  0.45594000000E+02  0.51100000000E-03 0. -1.
         11   -1    0    0    0    0 -0.00000000000E+00 -0.00000000000E+00 -0.45593999997E+02  0.45594000000E+02  0.51100000000E-03 0.  1.
    9900012    2    1    2    0    0  0.24066252378E+02 -0.19056094000E+02  0.26661683623E+02  0.50528873157E+02  0.30000040448E+02 0.  0.
        -12    1    1    2    0    0 -0.24066252378E+02  0.19056094000E+02 -0.26661683623E+02  0.40659126843E+02  0.00000000000E+00 0.  1.
         11    1    3    3    0    0 -0.24184557801E+01 -0.96444421017E+01  0.12412217540E+02  0.15903689394E+02  0.51100000000E-03 0. -1.
        -11    1    3    3    0    0  0.50323935228E+01 -0.70928918777E+00 -0.28664511650E+01  0.58347766249E+01  0.51100000000E-03 0.  1.
        -12    1    3    3    0    0  0.21452314635E+02 -0.87023627107E+01  0.17115917247E+02  0.28790407138E+02  0.00000000000E+00 0.  1.
</event>
<event>
 7    1  0.2903212E-011  0.5052887E+02  0.7816164E-02  0.1300439E+00
        -11   -1    0    0    0    0  0.00000000000E+00  0.00000000000E+00  0.45593999997E+02  0.45594000000E+02  0.51100000000E-03 0.  1.
         11   -1    0    0    0    0 -0.00000000000E+00 -0.00000000000E+00 -0.45593999997E+02  0.45594000000E+02  0.51100000000E-03 0. -1.
    9900012    2    1    2    0    0  0.15966653900E+02  0.31621588843E+02 -0.19957610646E+02  0.50528866458E+02  0.30000020085E+02 0.  0.
        -12    1    1    2    0    0 -0.15966653900E+02 -0.31621588843E+02  0.19957610646E+02  0.40659133542E+02  0.00000000000E+00 0.  1.
         11    1    3    3    0    0  0.58217466931E+01  0.14536182689E+02 -0.10234490392E+01  0.15692061366E+02  0.51100000000E-03 0. -1.
        -11    1    3    3    0    0  0.71586686749E+01  0.83761559778E+01  0.26831840915E+01  0.11340458690E+02  0.51100000000E-03 0.  1.
         12    1    3    3    0    0  0.29862385315E+01  0.87092501768E+01 -0.21617345698E+02  0.23496346402E+02  0.00000000000E+00 0. -1.
</event>
<event>
 7    1  0.2903212E-011  0.5052887E+02  0.7816164E-02  0.1300439E+00
        -11   -1    0    0    0    0  0.00000000000E+00  0.00000000000E+00  0.45593999997E+02  0.45594000000E+02  0.51100000000E-03 0.  1.
         11   -1    0    0    0    0 -0.00000000000E+00 -0.00000000000E+00 -0.45593999997E+02  0.45594000000E+02  0.51100000000E-03 0. -1.
    9900012    2    1    2    0    0  0.25391097332E+02 -0.11705603580E+02 -0.29520099406E+02  0.50528865136E+02  0.30000016068E+02 0.  0.
        -12    1    1    2    0    0 -0.25391097332E+02  0.11705603580E+02  0.29520099406E+02  0.40659134864E+02  0.00000000000E+00 0.  1.
         11    1    3    3    0    0  0.10921580190E+02  0.86159244894E+01 -0.10497226055E+02  0.17427186341E+02  0.51100000000E-03 0. -1.
        -11    1    3    3    0    0  0.10773633521E+01 -0.98109286907E+00  0.13464443341E+01  0.19839777257E+01  0.51100000000E-03 0.  1.
         12    1    3    3    0    0  0.13392153790E+02 -0.19340435200E+02 -0.20369317685E+02  0.31117701069E+02  0.00000000000E+00 0. -1.
</event>
<event>
 7    1  0.2903212E-011  0.5052890E+02  0.7816164E-02  0.1300439E+00
        -11   -1    0    0    0    0  0.00000000000E+00  0.00000000000E+00  0.45593999997E+02  0.45594000000E+02  0.51100000000E-03 0.  1.
         11   -1    0    0    0    0 -0.00000000000E+00 -0.00000000000E+00 -0.45593999997E+02  0.45594000000E+02  0.51100000000E-03 0. -1.
    9900012    2    1    2    0    0 -0.20579444518E+02  0.34093741702E+02  0.82015849256E+01  0.50528895790E+02  0.30000109243E+02 0.  0.
        -12    1    1    2    0    0  0.20579444518E+02 -0.34093741702E+02 -0.82015849256E+01  0.40659104210E+02  0.00000000000E+00 0.  1.
         11    1    3    3    0    0 -0.74216640219E+01  0.63529539765E+01  0.10543545695E+02  0.14373846986E+02  0.51100000000E-03 0.  1.
        -11    1    3    3    0    0 -0.80830967528E+01  0.56387204701E+00 -0.25921445158E+01  0.85072685542E+01  0.51100000000E-03 0. -1.
        -12    1    3    3    0    0 -0.50746837429E+01  0.27176915678E+02  0.25018374647E+00  0.27647780250E+02  0.00000000000E+00 0.  1.
</event>
<event>
 7    1  0.2903212E-011  0.5052886E+02  0.7816164E-02  0.1300439E+00
        -11   -1    0    0    0    0  0.00000000000E+00  0.00000000000E+00  0.45593999997E+02  0.45594000000E+02  0.51100000000E-03 0.  1.
         11   -1    0    0    0    0 -0.00000000000E+00 -0.00000000000E+00 -0.45593999997E+02  0.45594000000E+02  0.51100000000E-03 0. -1.
    9900012    2    1    2    0    0  0.14358904485E+02  0.35357722398E+02  0.14029213874E+02  0.50528861874E+02  0.30000006153E+02 0.  0.
        -12    1    1    2    0    0 -0.14358904485E+02 -0.35357722398E+02 -0.14029213874E+02  0.40659138126E+02  0.00000000000E+00 0.  1.
         11    1    3    3    0    0 -0.22445244554E+01 -0.27640910349E+01 -0.17452963807E+01  0.39653687089E+01  0.51100000000E-03 0. -1.
        -11    1    3    3    0    0  0.88334867713E+01  0.59310259427E+01  0.28454305348E+01  0.11013810987E+02  0.51100000000E-03 0.  1.
         12    1    3    3    0    0  0.77699421694E+01  0.32190787490E+02  0.12929079720E+02  0.35549682178E+02  0.00000000000E+00 0. -1.
</event>
<event>
 7    1  0.2903212E-011  0.5052884E+02  0.7816164E-02  0.1300439E+00
        -11   -1    0    0    0    0  0.00000000000E+00  0.00000000000E+00  0.45593999997E+02  0.45594000000E+02  0.51100000000E-03 0.  1.
         11   -1    0    0    0    0 -0.00000000000E+00 -0.00000000000E+00 -0.45593999997E+02  0.45594000000E+02  0.51100000000E-03 0. -1.
    9900012    2    1    2    0    0  0.34233049729E+01  0.14929401111E+02 -0.37663796767E+02  0.50528835948E+02  0.29999927349E+02 0.  0.
        -12    1    1    2    0    0 -0.34233049729E+01 -0.14929401111E+02  0.37663796767E+02  0.40659164052E+02  0.00000000000E+00 0.  1.
         11    1    3    3    0    0 -0.89500128432E+01  0.54622996924E+01 -0.19335734222E+02  0.21995682894E+02  0.51100000000E-03 0. -1.
        -11    1    3    3    0    0  0.46740587369E+01  0.80069947271E+01 -0.76716456955E+00  0.93030818213E+01  0.51100000000E-03 0.  1.
        -12    1    3    3    0    0  0.76992590791E+01  0.14601066918E+01 -0.17560897976E+02  0.19230071233E+02  0.00000000000E+00 0.  1.
</event>
<event>
 7    1  0.2903212E-011  0.5052884E+02  0.7816164E-02  0.1300439E+00
        -11   -1    0    0    0    0  0.00000000000E+00  0.00000000000E+00  0.45593999997E+02  0.45594000000E+02  0.51100000000E-03 0.  1.
         11   -1    0    0    0    0 -0.00000000000E+00 -0.00000000000E+00 -0.45593999997E+02  0.45594000000E+02  0.51100000000E-03 0. -1.
    9900012    2    1    2    0    0  0.33220899784E+02 -0.22612675906E+02  0.61810686126E+01  0.50528844779E+02  0.29999954189E+02 0.  0.
        -12    1    1    2    0    0 -0.33220899784E+02  0.22612675906E+02 -0.61810686126E+01  0.40659155221E+02  0.00000000000E+00 0.  1.
         11    1    3    3    0    0  0.45316664905E+01 -0.36919738390E+00 -0.30747391020E+01  0.54887456396E+01  0.51100000000E-03 0. -1.
        -11    1    3    3    0    0 -0.41596501606E+01  0.25339608161E+00  0.17736484503E+01  0.45290979366E+01  0.51100000000E-03 0.  1.
        -12    1    3    3    0    0  0.32848883454E+02 -0.22496874604E+02  0.74821592643E+01  0.40511001202E+02  0.00000000000E+00 0.  1.
</event>
<event>
 7    1  0.2903212E-011  0.5052886E+02  0.7816164E-02  0.1300439E+00
        -11   -1    0    0    0    0  0.00000000000E+00  0.00000000000E+00  0.45593999997E+02  0.45594000000E+02  0.51100000000E-03 0.  1.
         11   -1    0    0    0    0 -0.00000000000E+00 -0.00000000000E+00 -0.45593999997E+02  0.45594000000E+02  0.51100000000E-03 0. -1.
    9900012    2    1    2    0    0  0.20615603420E+01 -0.40605482677E+02 -0.33231957449E+00  0.50528859689E+02  0.29999999511E+02 0.  0.
        -12    1    1    2    0    0 -0.20615603420E+01  0.40605482677E+02  0.33231957449E+00  0.40659140311E+02  0.00000000000E+00 0.  1.
         11    1    3    3    0    0  0.45241107436E+01 -0.15746672050E+01 -0.78641378692E+01  0.92082473638E+01  0.51100000000E-03 0. -1.
        -11    1    3    3    0    0 -0.26964901939E+01 -0.25424344247E+01  0.25368869697E+01  0.44911944878E+01  0.51100000000E-03 0.  1.
         12    1    3    3    0    0  0.23393979231E+00 -0.36488381048E+02  0.49949313251E+01  0.36829417838E+02  0.00000000000E+00 0. -1.
</event>
<event>
 7    1  0.2903212E-011  0.5052886E+02  0.7816164E-02  0.1300439E+00
        -11   -1    0    0    0    0  0.00000000000E+00  0.00000000000E+00  0.45593999997E+02  0.45594000000E+02  0.51100000000E-03 0. -1.
         11   -1    0    0    0    0 -0.00000000000E+00 -0.00000000000E+00 -0.45593999997E+02  0.45594000000E+02  0.51100000000E-03 0.  1.
    9900012    2    1    2    0    0 -0.26855857003E+02 -0.26424139587E+02  0.15287023908E+02  0.50528864394E+02  0.30000013811E+02 0.  0.
        -12    1    1    2    0    0  0.26855857003E+02  0.26424139587E+02 -0.15287023908E+02  0.40659135606E+02  0.00000000000E+00 0.  1.
         11    1    3    3    0    0  0.16727548867E+00 -0.58735719139E+01  0.12853223946E+02  0.14132664086E+02  0.51100000000E-03 0. -1.
        -11    1    3    3    0    0  0.48929024346E+00 -0.18279656329E+01 -0.20809511549E+01  0.28126893301E+01  0.51100000000E-03 0.  1.
         12    1    3    3    0    0 -0.27512422735E+02 -0.18722602041E+02  0.45147511176E+01  0.33583510977E+02  0.00000000000E+00 0. -1.
</event>
<event>
 7    1  0.2903212E-011  0.5052885E+02  0.7816164E-02  0.1300439E+00
        -11   -1    0    0    0    0  0.00000000000E+00  0.00000000000E+00  0.45593999997E+02  0.45594000000E+02  0.51100000000E-03 0. -1.
         11   -1    0    0    0    0 -0.00000000000E+00 -0.00000000000E+00 -0.45593999997E+02  0.45594000000E+02  0.51100000000E-03 0.  1.
    9900012    2    1    2    0    0  0.12029219429E+02  0.49944545126E+01  0.38516483311E+02  0.50528853642E+02  0.29999981130E+02 0.  0.
        -12    1    1    2    0    0 -0.12029219429E+02 -0.49944545126E+01 -0.38516483311E+02  0.40659146358E+02  0.00000000000E+00 0.  1.
         11    1    3    3    0    0  0.12087629932E+02 -0.33666746079E+01  0.17914152966E+02  0.21871492222E+02  0.51100000000E-03 0. -1.
        -11    1    3    3    0    0  0.77798852073E+01 -0.69486119032E+00  0.65527004635E+01  0.10195456318E+02  0.51100000000E-03 0.  1.
         12    1    3    3    0    0 -0.78382957107E+01  0.90559903108E+01  0.14049629882E+02  0.18461905101E+02  0.00000000000E+00 0. -1.
</event>
<event>
 7    1  0.2903212E-011  0.5052887E+02  0.7816164E-02  0.1300439E+00
        -11   -1    0    0    0    0  0.00000000000E+00  0.00000000000E+00  0.45593999997E+02  0.45594000000E+02  0.51100000000E-03 0.  1.
         11   -1    0    0    0    0 -0.00000000000E+00 -0.00000000000E+00 -0.45593999997E+02  0.45594000000E+02  0.51100000000E-03 0. -1.
    9900012    2    1    2    0    0  0.37367052444E+02  0.15960311853E+02 -0.14617706727E+01  0.50528868968E+02  0.30000027715E+02 0.  0.
        -12    1    1    2    0    0 -0.37367052444E+02 -0.15960311853E+02  0.14617706727E+01  0.40659131032E+02  0.00000000000E+00 0.  1.
         11    1    3    3    0    0  0.12940194623E+02  0.56865362778E+01 -0.78615561026E+01  0.16173725493E+02  0.51100000000E-03 0. -1.
        -11    1    3    3    0    0  0.28126089919E+02  0.84030231643E+01  0.41732953184E+01  0.29649690158E+02  0.51100000000E-03 0.  1.
        -12    1    3    3    0    0 -0.36992320977E+01  0.18707524109E+01  0.22264901115E+01  0.47054533163E+01  0.00000000000E+00 0.  1.
</event>
<event>
 7    1  0.2903212E-011  0.5052886E+02  0.7816164E-02  0.1300439E+00
        -11   -1    0    0    0    0  0.00000000000E+00  0.00000000000E+00  0.45593999997E+02  0.45594000000E+02  0.51100000000E-03 0.  1.
         11   -1    0    0    0    0 -0.00000000000E+00 -0.00000000000E+00 -0.45593999997E+02  0.45594000000E+02  0.51100000000E-03 0. -1.
    9900012    2    1    2    0    0  0.44268696412E+01  0.17544171717E+02 -0.36411132704E+02  0.50528859320E+02  0.29999998388E+02 0.  0.
        -12    1    1    2    0    0 -0.44268696412E+01 -0.17544171717E+02  0.36411132704E+02  0.40659140680E+02  0.00000000000E+00 0.  1.
         11    1    3    3    0    0  0.15819320895E+01  0.59106571434E+00 -0.12397862241E+02  0.12512348150E+02  0.51100000000E-03 0. -1.
        -11    1    3    3    0    0 -0.20758027678E-01 -0.61700402206E+01 -0.48394241564E+01  0.78415466361E+01  0.51100000000E-03 0.  1.
         12    1    3    3    0    0  0.28656955794E+01  0.23123146224E+02 -0.19173846306E+02  0.30174964534E+02  0.00000000000E+00 0. -1.
</event>
<event>
 7    1  0.2903212E-011  0.5052888E+02  0.7816164E-02  0.1300439E+00
        -11   -1    0    0    0    0  0.00000000000E+00  0.00000000000E+00  0.45593999997E+02  0.45594000000E+02  0.51100000000E-03 0.  1.
         11   -1    0    0    0    0 -0.00000000000E+00 -0.00000000000E+00 -0.45593999997E+02  0.45594000000E+02  0.51100000000E-03 0. -1.
    9900012    2    1    2    0    0 -0.21127534347E+02 -0.19955284739E+02 -0.28435505006E+02  0.50528879970E+02  0.30000061158E+02 0.  0.
        -12    1    1    2    0    0  0.21127534347E+02  0.19955284739E+02  0.28435505006E+02  0.40659120030E+02  0.00000000000E+00 0.  1.
         11    1    3    3    0    0 -0.54931122831E+01 -0.15599303466E+02 -0.15885472156E+02  0.22931654477E+02  0.51100000000E-03 0. -1.
        -11    1    3    3    0    0 -0.65969729862E+01 -0.10867519718E+02 -0.33417957877E+01  0.13144985232E+02  0.51100000000E-03 0.  1.
         12    1    3    3    0    0 -0.90374490781E+01  0.65115384452E+01 -0.92082370626E+01  0.14452240261E+02  0.00000000000E+00 0. -1.
</event>
<event>
 7    1  0.2903212E-011  0.5052886E+02  0.7816164E-02  0.1300439E+00
        -11   -1    0    0    0    0  0.00000000000E+00  0.00000000000E+00  0.45593999997E+02  0.45594000000E+02  0.51100000000E-03 0. -1.
         11   -1    0    0    0    0 -0.00000000000E+00 -0.00000000000E+00 -0.45593999997E+02  0.45594000000E+02  0.51100000000E-03 0.  1.
    9900012    2    1    2    0    0 -0.19213154801E+02  0.33365044750E+02  0.13068823701E+02  0.50528859803E+02  0.29999999858E+02 0.  0.
        -12    1    1    2    0    0  0.19213154801E+02 -0.33365044750E+02 -0.13068823701E+02  0.40659140197E+02  0.00000000000E+00 0.  1.
         11    1    3    3    0    0 -0.35116754247E+01 -0.17711942912E+01  0.88228676343E+00  0.40308093108E+01  0.51100000000E-03 0. -1.
        -11    1    3    3    0    0 -0.99216499099E+01  0.13035434646E+01  0.58616793203E+01  0.11597312068E+02  0.51100000000E-03 0.  1.
         12    1    3    3    0    0 -0.57798294666E+01  0.33832695577E+02  0.63248576172E+01  0.34900738424E+02  0.00000000000E+00 0. -1.
</event>
<event>
 7    1  0.2903212E-011  0.5052886E+02  0.7816164E-02  0.1300439E+00
        -11   -1    0    0    0    0  0.00000000000E+00  0.00000000000E+00  0.45593999997E+02  0.45594000000E+02  0.51100000000E-03 0. -1.
         11   -1    0    0    0    0 -0.00000000000E+00 -0.00000000000E+00 -0.45593999997E+02  0.45594000000E+02  0.51100000000E-03 0.  1.
    9900012    2    1    2    0    0  0.69792498850E+01  0.26001522631E+02  0.30469278240E+02  0.50528855585E+02  0.29999987037E+02 0.  0.
        -12    1    1    2    0    0 -0.69792498850E+01 -0.26001522631E+02 -0.30469278240E+02  0.40659144415E+02  0.00000000000E+00 0.  1.
         11    1    3    3    0    0 -0.55572517351E+01 -0.23933802326E+01  0.10016091418E+02  0.11701854697E+02  0.51100000000E-03 0. -1.
        -11    1    3    3    0    0 -0.21206393478E+01  0.40495990553E+01  0.32431728442E+01  0.56048670021E+01  0.51100000000E-03 0.  1.
         12    1    3    3    0    0  0.14657140968E+02  0.24345303808E+02  0.17210013978E+02  0.33222133887E+02  0.00000000000E+00 0. -1.
</event>
<event>
 7    1  0.2903212E-011  0.5052884E+02  0.7816164E-02  0.1300439E+00
        -11   -1    0    0    0    0  0.00000000000E+00  0.00000000000E+00  0.45593999997E+02  0.45594000000E+02  0.51100000000E-03 0.  1.
         11   -1    0    0    0    0 -0.00000000000E+00 -0.00000000000E+00 -0.45593999997E+02  0.45594000000E+02  0.51100000000E-03 0. -1.
    9900012    2    1    2    0    0  0.31854660009E+02  0.12937479941E+02 -0.21704131060E+02  0.50528842894E+02  0.29999948460E+02 0.  0.
        -12    1    1    2    0    0 -0.31854660009E+02 -0.12937479941E+02  0.21704131060E+02  0.40659157106E+02  0.00000000000E+00 0.  1.
         11    1    3    3    0    0  0.16790552059E+01 -0.47478661533E+00 -0.34756829625E+01  0.38890900004E+01  0.51100000000E-03 0. -1.
        -11    1    3    3    0    0 -0.24776472884E+01 -0.14847252875E+00  0.41213284167E+01  0.48110423358E+01  0.51100000000E-03 0.  1.
        -12    1    3    3    0    0  0.32653252091E+02  0.13560739085E+02 -0.22349776514E+02  0.41828710558E+02  0.00000000000E+00 0.  1.
</event>
<event>
 7    1  0.2903212E-011  0.5052887E+02  0.7816164E-02  0.1300439E+00
        -11   -1    0    0    0    0  0.00000000000E+00  0.00000000000E+00  0.45593999997E+02  0.45594000000E+02  0.51100000000E-03 0.  1.
         11   -1    0    0    0    0 -0.00000000000E+00 -0.00000000000E+00 -0.45593999997E+02  0.45594000000E+02  0.51100000000E-03 0. -1.
    9900012    2    1    2    0    0  0.38845757225E+01 -0.20061162852E+01 -0.40423392795E+02  0.50528866756E+02  0.30000020992E+02 0.  0.
        -12    1    1    2    0    0 -0.38845757225E+01  0.20061162852E+01  0.40423392795E+02  0.40659133244E+02  0.00000000000E+00 0.  1.
         11    1    3    3    0    0 -0.40406043985E+01  0.45400183286E+00 -0.11437057328E+02  0.12138322872E+02  0.51100000000E-03 0. -1.
        -11    1    3    3    0    0  0.25779060218E+01  0.10673993663E+02 -0.12111030350E+02  0.16347990598E+02  0.51100000000E-03 0.  1.
        -12    1    3    3    0    0  0.53472740992E+01 -0.13134111781E+02 -0.16875305117E+02  0.22042553286E+02  0.00000000000E+00 0.  1.
</event>
<event>
 7    1  0.2903212E-011  0.5052887E+02  0.7816164E-02  0.1300439E+00
        -11   -1    0    0    0    0  0.00000000000E+00  0.00000000000E+00  0.45593999997E+02  0.45594000000E+02  0.51100000000E-03 0.  1.
         11   -1    0    0    0    0 -0.00000000000E+00 -0.00000000000E+00 -0.45593999997E+02  0.45594000000E+02  0.51100000000E-03 0. -1.
    9900012    2    1    2    0    0 -0.12427957725E+02  0.34558931164E+02 -0.17446812475E+02  0.50528866685E+02  0.30000020776E+02 0.  0.
        -12    1    1    2    0    0  0.12427957725E+02 -0.34558931164E+02  0.17446812475E+02  0.40659133315E+02  0.00000000000E+00 0.  1.
         11    1    3    3    0    0 -0.30005216580E+00  0.13155774104E+02 -0.51885977179E+01  0.14145174800E+02  0.51100000000E-03 0. -1.
        -11    1    3    3    0    0  0.65959938364E+01  0.76124009738E+01  0.50377755707E-01  0.10072652156E+02  0.51100000000E-03 0.  1.
        -12    1    3    3    0    0 -0.18723899395E+02  0.13790756086E+02 -0.12308592512E+02  0.26311039729E+02  0.00000000000E+00 0.  1.
</event>
<event>
 7    1  0.2903212E-011  0.5052885E+02  0.7816164E-02  0.1300439E+00
        -11   -1    0    0    0    0  0.00000000000E+00  0.00000000000E+00  0.45593999997E+02  0.45594000000E+02  0.51100000000E-03 0. -1.
         11   -1    0    0    0    0 -0.00000000000E+00 -0.00000000000E+00 -0.45593999997E+02  0.45594000000E+02  0.51100000000E-03 0.  1.
    9900012    2    1    2    0    0 -0.65911813959E+01  0.27748001477E+02  0.28978808667E+02  0.50528848386E+02  0.29999965155E+02 0.  0.
        -12    1    1    2    0    0  0.65911813959E+01 -0.27748001477E+02 -0.28978808667E+02  0.40659151614E+02  0.00000000000E+00 0.  1.
         11    1    3    3    0    0  0.22482437843E+01  0.38955630608E+01 -0.96419238710E+00  0.45999650971E+01  0.51100000000E-03 0. -1.
        -11    1    3    3    0    0 -0.85544736349E+01  0.14378892003E+02  0.25270872928E+01  0.16920925650E+02  0.51100000000E-03 0.  1.
         12    1    3    3    0    0 -0.28495154533E+00  0.94735464135E+01  0.27415913761E+02  0.29007957639E+02  0.00000000000E+00 0. -1.
</event>
<event>
 7    1  0.2903212E-011  0.5052886E+02  0.7816164E-02  0.1300439E+00
        -11   -1    0    0    0    0  0.00000000000E+00  0.00000000000E+00  0.45593999997E+02  0.45594000000E+02  0.51100000000E-03 0. -1.
         11   -1    0    0    0    0 -0.00000000000E+00 -0.00000000000E+00 -0.45593999997E+02  0.45594000000E+02  0.51100000000E-03 0.  1.
    9900012    2    1    2    0    0 -0.36242225265E+02  0.58344519462E+01  0.17482164673E+02  0.50528858305E+02  0.29999995305E+02 0.  0.
        -12    1    1    2    0    0  0.36242225265E+02 -0.58344519462E+01 -0.17482164673E+02  0.40659141695E+02  0.00000000000E+00 0.  1.
         11    1    3    3    0    0 -0.17875900353E+02 -0.12539400569E+01 -0.30700509365E+00  0.17922456067E+02  0.51100000000E-03 0. -1.
        -11    1    3    3    0    0 -0.50274556155E+01  0.53810508507E-01 -0.37786983845E+01  0.62894170857E+01  0.51100000000E-03 0.  1.
         12    1    3    3    0    0 -0.13338869297E+02  0.70345814946E+01  0.21567868152E+02  0.26316985153E+02  0.00000000000E+00 0. -1.
</event>
<event>
 7    1  0.2903212E-011  0.5052886E+02  0.7816164E-02  0.1300439E+00
        -11   -1    0    0    0    0  0.00000000000E+00  0.00000000000E+00  0.45593999997E+02  0.45594000000E+02  0.51100000000E-03 0.  1.
         11   -1    0    0    0    0 -0.00000000000E+00 -0.00000000000E+00 -0.45593999997E+02  0.45594000000E+02  0.51100000000E-03 0. -1.
    9900012    2    1    2    0    0 -0.45034136435E+01  0.19565084717E+02 -0.35356650329E+02  0.50528855925E+02  0.29999988069E+02 0.  0.
        -12    1    1    2    0    0  0.45034136435E+01 -0.19565084717E+02  0.35356650329E+02  0.40659144075E+02  0.00000000000E+00 0.  1.
         11    1    3    3    0    0  0.85547755560E+01  0.43097880640E+01 -0.19525001399E+02  0.21748198497E+02  0.51100000000E-03 0. -1.
        -11    1    3    3    0    0 -0.78731439714E+01  0.11567841334E+02 -0.17300224864E+02  0.22250823125E+02  0.51100000000E-03 0.  1.
         12    1    3    3    0    0 -0.51850452281E+01  0.36874553192E+01  0.14685759340E+01  0.65298343029E+01  0.00000000000E+00 0. -1.
</event>
<event>
 7    1  0.2903212E-011  0.5052886E+02  0.7816164E-02  0.1300439E+00
        -11   -1    0    0    0    0  0.00000000000E+00  0.00000000000E+00  0.45593999997E+02  0.45594000000E+02  0.51100000000E-03 0.  1.
         11   -1    0    0    0    0 -0.00000000000E+00 -0.00000000000E+00 -0.45593999997E+02  0.45594000000E+02  0.51100000000E-03 0. -1.
    9900012    2    1    2    0    0  0.10821697890E+02 -0.34280566566E+02 -0.18997358045E+02  0.50528855862E+02  0.29999987879E+02 0.  0.
        -12    1    1    2    0    0 -0.10821697890E+02  0.34280566566E+02  0.18997358045E+02  0.40659144138E+02  0.00000000000E+00 0.  1.
         11    1    3    3    0    0  0.75087668113E+01 -0.46839798125E+00 -0.27925531775E+01  0.80249192647E+01  0.51100000000E-03 0. -1.
        -11    1    3    3    0    0 -0.64891976003E+01 -0.34562124184E+01 -0.22781951912E+01  0.76970944757E+01  0.51100000000E-03 0.  1.
         12    1    3    3    0    0  0.98021286788E+01 -0.30355956167E+02 -0.13926609676E+02  0.34806842122E+02  0.00000000000E+00 0. -1.
</event>
<event>
 7    1  0.2903212E-011  0.5052886E+02  0.7816164E-02  0.1300439E+00
        -11   -1    0    0    0    0  0.00000000000E+00  0.00000000000E+00  0.45593999997E+02  0.45594000000E+02  0.51100000000E-03 0. -1.
         11   -1    0    0    0    0 -0.00000000000E+00 -0.00000000000E+00 -0.45593999997E+02  0.45594000000E+02  0.51100000000E-03 0.  1.
    9900012    2    1    2    0    0 -0.71974483321E+01 -0.39912879408E+02 -0.28852007939E+01  0.50528860944E+02  0.30000003325E+02 0.  0.
        -12    1    1    2    0    0  0.71974483321E+01  0.39912879408E+02  0.28852007939E+01  0.40659139056E+02  0.00000000000E+00 0.  1.
         11    1    3    3    0    0  0.44197077216E+01 -0.88547084040E+01  0.27554908112E+01  0.10272896726E+02  0.51100000000E-03 0. -1.
        -11    1    3    3    0    0 -0.25977795261E+01 -0.86311034776E+01  0.83834399303E+01  0.12309608890E+02  0.51100000000E-03 0.  1.
        -12    1    3    3    0    0 -0.90193765275E+01 -0.22427067527E+02 -0.14024131535E+02  0.27946355328E+02  0.00000000000E+00 0.  1.
</event>
<event>
 7    1  0.2903212E-011  0.5052886E+02  0.7816164E-02  0.1300439E+00
        -11   -1    0    0    0    0  0.00000000000E+00  0.00000000000E+00  0.45593999997E+02  0.45594000000E+02  0.51100000000E-03 0. -1.
         11   -1    0    0    0    0 -0.00000000000E+00 -0.00000000000E+00 -0.45593999997E+02  0.45594000000E+02  0.51100000000E-03 0.  1.
    9900012    2    1    2    0    0  0.51333196056E+01  0.34678541808E+02  0.20596445583E+02  0.50528858313E+02  0.29999995327E+02 0.  0.
        -12    1    1    2    0    0 -0.51333196056E+01 -0.34678541808E+02 -0.20596445583E+02  0.40659141687E+02  0.00000000000E+00 0.  1.
         11    1    3    3    0    0  0.42344664347E+01  0.20905175359E+02  0.16479515942E+02  0.26954248435E+02  0.51100000000E-03 0. -1.
        -11    1    3    3    0    0 -0.34356490957E+00  0.14968251402E+02  0.96276971010E+01  0.17800537593E+02  0.51100000000E-03 0.  1.
        -12    1    3    3    0    0  0.12424180805E+01 -0.11948849528E+01 -0.55107674605E+01  0.57740722839E+01  0.00000000000E+00 0.  1.
</event>
<event>
 7    1  0.2903212E-011  0.5052886E+02  0.7816164E-02  0.1300439E+00
        -11   -1    0    0    0    0  0.00000000000E+00  0.00000000000E+00  0.45593999997E+02  0.45594000000E+02  0.51100000000E-03 0. -1.
         11   -1    0    0    0    0 -0.00000000000E+00 -0.00000000000E+00 -0.45593999997E+02  0.45594000000E+02  0.51100000000E-03 0.  1.
    9900012    2    1    2    0    0 -0.20218185263E+02  0.28305660092E+02  0.21051850083E+02  0.50528858340E+02  0.29999995412E+02 0.  0.
        -12    1    1    2    0    0  0.20218185263E+02 -0.28305660092E+02 -0.21051850083E+02  0.40659141660E+02  0.00000000000E+00 0.  1.
         11    1    3    3    0    0 -0.11365738209E+02  0.29278754827E+02  0.20052737259E+02  0.37263088454E+02  0.51100000000E-03 0. -1.
        -11    1    3    3    0    0 -0.80374511198E+01  0.19616468926E+01  0.38215077976E+01  0.91133199847E+01  0.51100000000E-03 0.  1.
        -12    1    3    3    0    0 -0.81499593375E+00 -0.29347416281E+01 -0.28223949740E+01  0.41524499015E+01  0.00000000000E+00 0.  1.
</event>
<event>
 7    1  0.2903212E-011  0.5052886E+02  0.7816164E-02  0.1300439E+00
        -11   -1    0    0    0    0  0.00000000000E+00  0.00000000000E+00  0.45593999997E+02  0.45594000000E+02  0.51100000000E-03 0.  1.
         11   -1    0    0    0    0 -0.00000000000E+00 -0.00000000000E+00 -0.45593999997E+02  0.45594000000E+02  0.51100000000E-03 0. -1.
    9900012    2    1    2    0    0 -0.31843086112E+02  0.24876686257E+02 -0.45093350869E+01  0.50528858897E+02  0.29999997104E+02 0.  0.
        -12    1    1    2    0    0  0.31843086112E+02 -0.24876686257E+02  0.45093350869E+01  0.40659141103E+02  0.00000000000E+00 0.  1.
         11    1    3    3    0    0 -0.48832094747E+01 -0.57084475308E+01 -0.36967472918E+01  0.83724577506E+01  0.51100000000E-03 0. -1.
        -11    1    3    3    0    0 -0.13057998160E+02  0.73839004224E+01 -0.16817429583E+01  0.15095084002E+02  0.51100000000E-03 0.  1.
        -12    1    3    3    0    0 -0.13901878478E+02  0.23201233366E+02  0.86915516312E+00  0.27061317144E+02  0.00000000000E+00 0.  1.
</event>
<event>
 7    1  0.2903212E-011  0.5052886E+02  0.7816164E-02  0.1300439E+00
        -11   -1    0    0    0    0  0.00000000000E+00  0.00000000000E+00  0.45593999997E+02  0.45594000000E+02  0.51100000000E-03 0. -1.
         11   -1    0    0    0    0 -0.00000000000E+00 -0.00000000000E+00 -0.45593999997E+02  0.45594000000E+02  0.51100000000E-03 0.  1.
    9900012    2    1    2    0    0  0.19280085319E+02 -0.24696523037E+02  0.25913811605E+02  0.50528861151E+02  0.30000003955E+02 0.  0.
        -12    1    1    2    0    0 -0.19280085319E+02  0.24696523037E+02 -0.25913811605E+02  0.40659138849E+02  0.00000000000E+00 0.  1.
         11    1    3    3    0    0  0.12354295111E+02 -0.13027818275E+02  0.11171585336E+02  0.21146086538E+02  0.51100000000E-03 0. -1.
        -11    1    3    3    0    0  0.14322492309E+02 -0.78262612393E+01  0.62319644334E+01  0.17470590485E+02  0.51100000000E-03 0.  1.
        -12    1    3    3    0    0 -0.73967021009E+01 -0.38424435227E+01  0.85102618351E+01  0.11912184128E+02  0.00000000000E+00 0.  1.
</event>
<event>
 7    1  0.2903212E-011  0.5052890E+02  0.7816164E-02  0.1300439E+00
        -11   -1    0    0    0    0  0.00000000000E+00  0.00000000000E+00  0.45593999997E+02  0.45594000000E+02  0.51100000000E-03 0. -1.
         11   -1    0    0    0    0 -0.00000000000E+00 -0.00000000000E+00 -0.45593999997E+02  0.45594000000E+02  0.51100000000E-03 0.  1.
    9900012    2    1    2    0    0 -0.37795410646E+02  0.13494720331E+02 -0.65239183351E+01  0.50528904423E+02  0.30000135483E+02 0.  0.
        -12    1    1    2    0    0  0.37795410646E+02 -0.13494720331E+02  0.65239183351E+01  0.40659095577E+02  0.00000000000E+00 0.  1.
         11    1    3    3    0    0 -0.20098380957E+02  0.12296396668E+02 -0.35158546531E+01  0.23822416383E+02  0.51100000000E-03 0. -1.
        -11    1    3    3    0    0 -0.56964189126E+01  0.30041757172E+01  0.80357272491E+01  0.10297920802E+02  0.51100000000E-03 0.  1.
        -12    1    3    3    0    0 -0.12000610777E+02 -0.18058520548E+01 -0.11043790931E+02  0.16408567237E+02  0.00000000000E+00 0.  1.
</event>
<event>
 7    1  0.2903212E-011  0.5052886E+02  0.7816164E-02  0.1300439E+00
        -11   -1    0    0    0    0  0.00000000000E+00  0.00000000000E+00  0.45593999997E+02  0.45594000000E+02  0.51100000000E-03 0.  1.
         11   -1    0    0    0    0 -0.00000000000E+00 -0.00000000000E+00 -0.45593999997E+02  0.45594000000E+02  0.51100000000E-03 0. -1.
    9900012    2    1    2    0    0  0.11886873849E+02  0.13641400603E+02 -0.36411257678E+02  0.50528864914E+02  0.30000015391E+02 0.  0.
        -12    1    1    2    0    0 -0.11886873849E+02 -0.13641400603E+02  0.36411257678E+02  0.40659135086E+02  0.00000000000E+00 0.  1.
         11    1    3    3    0    0  0.94509008735E+01  0.12830186461E+01 -0.68774160324E+01  0.11758593271E+02  0.51100000000E-03 0. -1.
        -11    1    3    3    0    0  0.10753100072E+02  0.10601719378E+01 -0.10015936540E+02  0.14733367257E+02  0.51100000000E-03 0.  1.
        -12    1    3    3    0    0 -0.83171270959E+01  0.11298210019E+02 -0.19517905105E+02  0.24036904386E+02  0.00000000000E+00 0.  1.
</event>
<event>
 7    1  0.2903212E-011  0.5052888E+02  0.7816164E-02  0.1300439E+00
        -11   -1    0    0    0    0  0.00000000000E+00  0.00000000000E+00  0.45593999997E+02  0.45594000000E+02  0.51100000000E-03 0. -1.
         11   -1    0    0    0    0 -0.00000000000E+00 -0.00000000000E+00 -0.45593999997E+02  0.45594000000E+02  0.51100000000E-03 0.  1.
    9900012    2    1    2    0    0  0.24395903952E+02  0.46868253602E+01  0.32187541935E+02  0.50528876579E+02  0.30000050848E+02 0.  0.
        -12    1    1    2    0    0 -0.24395903952E+02 -0.46868253602E+01 -0.32187541935E+02  0.40659123421E+02  0.00000000000E+00 0.  1.
         11    1    3    3    0    0 -0.15572803134E+01  0.12775367336E+01 -0.12722791497E+01  0.23824182202E+01  0.51100000000E-03 0. -1.
        -11    1    3    3    0    0  0.26980142342E+00 -0.56752091182E+01  0.99902617082E+00  0.57687819247E+01  0.51100000000E-03 0.  1.
         12    1    3    3    0    0  0.25683382842E+02  0.90844977448E+01  0.32460794913E+02  0.42377676434E+02  0.00000000000E+00 0. -1.
</event>
<event>
 7    1  0.2903212E-011  0.5052887E+02  0.7816164E-02  0.1300439E+00
        -11   -1    0    0    0    0  0.00000000000E+00  0.00000000000E+00  0.45593999997E+02  0.45594000000E+02  0.51100000000E-03 0.  1.
         11   -1    0    0    0    0 -0.00000000000E+00 -0.00000000000E+00 -0.45593999997E+02  0.45594000000E+02  0.51100000000E-03 0. -1.
    9900012    2    1    2    0    0 -0.10703518068E+02 -0.67623206241E+01 -0.38637683859E+02  0.50528869497E+02  0.30000029324E+02 0.  0.
        -12    1    1    2    0    0  0.10703518068E+02  0.67623206241E+01  0.38637683859E+02  0.40659130503E+02  0.00000000000E+00 0.  1.
         11    1    3    3    0    0 -0.15770826652E+01 -0.46943848352E+01 -0.34881284346E+01  0.60573491687E+01  0.51100000000E-03 0. -1.
        -11    1    3    3    0    0  0.47508837398E+01 -0.54789580283E+01 -0.83445277512E+00  0.72997389734E+01  0.51100000000E-03 0.  1.
         12    1    3    3    0    0 -0.13877319143E+02  0.34110222395E+01 -0.34315102649E+02  0.37171781355E+02  0.00000000000E+00 0. -1.
</event>
<event>
 7    1  0.2903212E-011  0.5052886E+02  0.7816164E-02  0.1300439E+00
        -11   -1    0    0    0    0  0.00000000000E+00  0.00000000000E+00  0.45593999997E+02  0.45594000000E+02  0.51100000000E-03 0. -1.
         11   -1    0    0    0    0 -0.00000000000E+00 -0.00000000000E+00 -0.45593999997E+02  0.45594000000E+02  0.51100000000E-03 0.  1.
    9900012    2    1    2    0    0 -0.27519582956E+02  0.23696026788E+02  0.18284865526E+02  0.50528862787E+02  0.30000008928E+02 0.  0.
        -12    1    1    2    0    0  0.27519582956E+02 -0.23696026788E+02 -0.18284865526E+02  0.40659137213E+02  0.00000000000E+00 0.  1.
         11    1    3    3    0    0 -0.57553216515E+01  0.20547571311E+02  0.37724737966E+01  0.21669286396E+02  0.51100000000E-03 0. -1.
        -11    1    3    3    0    0 -0.35602109407E-01 -0.17302810159E+01 -0.72458319164E+00  0.18762092012E+01  0.51100000000E-03 0.  1.
         12    1    3    3    0    0 -0.21728659195E+02  0.48787364925E+01  0.15236974921E+02  0.26983367190E+02  0.00000000000E+00 0. -1.
</event>
<event>
 7    1  0.2903212E-011  0.5052887E+02  0.7816164E-02  0.1300439E+00
        -11   -1    0    0    0    0  0.00000000000E+00  0.00000000000E+00  0.45593999997E+02  0.45594000000E+02  0.51100000000E-03 0. -1.
         11   -1    0    0    0    0 -0.00000000000E+00 -0.00000000000E+00 -0.45593999997E+02  0.45594000000E+02  0.51100000000E-03 0.  1.
    9900012    2    1    2    0    0 -0.31413396035E+02 -0.21161873649E+02  0.14783044928E+02  0.50528871085E+02  0.30000034150E+02 0.  0.
        -12    1    1    2    0    0  0.31413396035E+02  0.21161873649E+02 -0.14783044928E+02  0.40659128915E+02  0.00000000000E+00 0.  1.
         11    1    3    3    0    0 -0.18480365429E+02  0.84961209169E+00 -0.10155633918E+01  0.18527739105E+02  0.51100000000E-03 0. -1.
        -11    1    3    3    0    0 -0.11825534172E+02 -0.13137325062E+02  0.58380009438E+01  0.18614908635E+02  0.51100000000E-03 0.  1.
        -12    1    3    3    0    0 -0.11074964343E+01 -0.88741606794E+01  0.99606073765E+01  0.13386223344E+02  0.00000000000E+00 0.  1.
</event>
<event>
 7    1  0.2903212E-011  0.5052885E+02  0.7816164E-02  0.1300439E+00
        -11   -1    0    0    0    0  0.00000000000E+00  0.00000000000E+00  0.45593999997E+02  0.45594000000E+02  0.51100000000E-03 0.  1.
         11   -1    0    0    0    0 -0.00000000000E+00 -0.00000000000E+00 -0.45593999997E+02  0.45594000000E+02  0.51100000000E-03 0. -1.
    9900012    2    1    2    0    0 -0.27538769404E+02 -0.24138129727E+02 -0.17667291290E+02  0.50528852093E+02  0.29999976421E+02 0.  0.
        -12    1    1    2    0    0  0.27538769404E+02  0.24138129727E+02  0.17667291290E+02  0.40659147907E+02  0.00000000000E+00 0.  1.
         11    1    3    3    0    0 -0.16690129730E+02 -0.14922165620E+02 -0.98275039873E+01  0.24450179797E+02  0.51100000000E-03 0. -1.
        -11    1    3    3    0    0 -0.15426561892E+02 -0.67836835667E+01 -0.10889333024E+02  0.20064265461E+02  0.51100000000E-03 0.  1.
        -12    1    3    3    0    0  0.45779222180E+01 -0.24322805404E+01  0.30495457220E+01  0.60144068346E+01  0.00000000000E+00 0.  1.
</event>
<event>
 7    1  0.2903212E-011  0.5052885E+02  0.7816164E-02  0.1300439E+00
        -11   -1    0    0    0    0  0.00000000000E+00  0.00000000000E+00  0.45593999997E+02  0.45594000000E+02  0.51100000000E-03 0.  1.
         11   -1    0    0    0    0 -0.00000000000E+00 -0.00000000000E+00 -0.45593999997E+02  0.45594000000E+02  0.51100000000E-03 0. -1.
    9900012    2    1    2    0    0  0.29701352581E+02  0.17562785870E+02 -0.21506846758E+02  0.50528852811E+02  0.29999978606E+02 0.  0.
        -12    1    1    2    0    0 -0.29701352581E+02 -0.17562785870E+02  0.21506846758E+02  0.40659147189E+02  0.00000000000E+00 0.  1.
         11    1    3    3    0    0  0.15544554018E+02  0.97697050019E+01 -0.14569538904E+02  0.23438254192E+02  0.51100000000E-03 0. -1.
        -11    1    3    3    0    0  0.57286511529E+01  0.94120258710E+01 -0.12653941588E+02  0.16778733951E+02  0.51100000000E-03 0.  1.
        -12    1    3    3    0    0  0.84281474094E+01 -0.16189450032E+01  0.57166337340E+01  0.10311864668E+02  0.00000000000E+00 0.  1.
</event>
<event>
 7    1  0.2903212E-011  0.5052887E+02  0.7816164E-02  0.1300439E+00
        -11   -1    0    0    0    0  0.00000000000E+00  0.00000000000E+00  0.45593999997E+02  0.45594000000E+02  0.51100000000E-03 0.  1.
         11   -1    0    0    0    0 -0.00000000000E+00 -0.00000000000E+00 -0.45593999997E+02  0.45594000000E+02  0.51100000000E-03 0. -1.
    9900012    2    1    2    0    0 -0.12850305803E+02 -0.35238974962E+02 -0.15692317315E+02  0.50528873862E+02  0.30000042591E+02 0.  0.
        -12    1    1    2    0    0  0.12850305803E+02  0.35238974962E+02  0.15692317315E+02  0.40659126138E+02  0.00000000000E+00 0.  1.
         11    1    3    3    0    0 -0.43355385429E+00 -0.52516160536E+00 -0.71510850975E+01  0.71834380341E+01  0.51100000000E-03 0. -1.
        -11    1    3    3    0    0 -0.11143778604E+02 -0.17298310044E+02  0.50850224067E+01  0.21196055885E+02  0.51100000000E-03 0.  1.
         12    1    3    3    0    0 -0.12729733449E+01 -0.17415503312E+02 -0.13626254624E+02  0.22149379942E+02  0.00000000000E+00 0. -1.
</event>
<event>
 7    1  0.2903212E-011  0.5052886E+02  0.7816164E-02  0.1300439E+00
        -11   -1    0    0    0    0  0.00000000000E+00  0.00000000000E+00  0.45593999997E+02  0.45594000000E+02  0.51100000000E-03 0.  1.
         11   -1    0    0    0    0 -0.00000000000E+00 -0.00000000000E+00 -0.45593999997E+02  0.45594000000E+02  0.51100000000E-03 0. -1.
    9900012    2    1    2    0    0  0.99365165578E+01 -0.23214166360E+02 -0.31867439951E+02  0.50528860682E+02  0.30000002528E+02 0.  0.
        -12    1    1    2    0    0 -0.99365165578E+01  0.23214166360E+02  0.31867439951E+02  0.40659139318E+02  0.00000000000E+00 0.  1.
         11    1    3    3    0    0  0.66076598741E+00  0.14253843877E+01 -0.12361508302E+02  0.12460947801E+02  0.51100000000E-03 0. -1.
        -11    1    3    3    0    0  0.37430002739E+01  0.28153604430E+01 -0.27401385252E+01  0.54262938432E+01  0.51100000000E-03 0.  1.
         12    1    3    3    0    0  0.55327502966E+01 -0.27454911191E+02 -0.16765793124E+02  0.32641619038E+02  0.00000000000E+00 0. -1.
</event>
<event>
 7    1  0.2903212E-011  0.5052886E+02  0.7816164E-02  0.1300439E+00
        -11   -1    0    0    0    0  0.00000000000E+00  0.00000000000E+00  0.45593999997E+02  0.45594000000E+02  0.51100000000E-03 0.  1.
         11   -1    0    0    0    0 -0.00000000000E+00 -0.00000000000E+00 -0.45593999997E+02  0.45594000000E+02  0.51100000000E-03 0. -1.
    9900012    2    1    2    0    0  0.19890456279E+02 -0.11143959677E+02 -0.33665232230E+02  0.50528856509E+02  0.29999989846E+02 0.  0.
        -12    1    1    2    0    0 -0.19890456279E+02  0.11143959677E+02  0.33665232230E+02  0.40659143491E+02  0.00000000000E+00 0.  1.
         11    1    3    3    0    0  0.15330160925E+01 -0.11955827442E+01 -0.28031184453E+01  0.34113090914E+01  0.51100000000E-03 0. -1.
        -11    1    3    3    0    0  0.90511106935E+01 -0.19035076889E+02 -0.12148740993E+02  0.24327940006E+02  0.51100000000E-03 0.  1.
        -12    1    3    3    0    0  0.93063294933E+01  0.90866999568E+01 -0.18713372791E+02  0.22789607412E+02  0.00000000000E+00 0.  1.
</event>
<event>
 7    1  0.2903212E-011  0.5052886E+02  0.7816164E-02  0.1300439E+00
        -11   -1    0    0    0    0  0.00000000000E+00  0.00000000000E+00  0.45593999997E+02  0.45594000000E+02  0.51100000000E-03 0.  1.
         11   -1    0    0    0    0 -0.00000000000E+00 -0.00000000000E+00 -0.45593999997E+02  0.45594000000E+02  0.51100000000E-03 0. -1.
    9900012    2    1    2    0    0 -0.52328442643E+01 -0.21621839672E+02 -0.34033503044E+02  0.50528856633E+02  0.29999990222E+02 0.  0.
        -12    1    1    2    0    0  0.52328442643E+01  0.21621839672E+02  0.34033503044E+02  0.40659143367E+02  0.00000000000E+00 0.  1.
         11    1    3    3    0    0 -0.40808546334E+01 -0.20991202075E+02 -0.30312381963E+02  0.37096151278E+02  0.51100000000E-03 0. -1.
        -11    1    3    3    0    0 -0.38376408709E+01 -0.42936157834E+01 -0.60295150058E+01  0.83377260338E+01  0.51100000000E-03 0.  1.
        -12    1    3    3    0    0  0.26856512400E+01  0.36629781862E+01  0.23083939251E+01  0.50949793217E+01  0.00000000000E+00 0.  1.
</event>
<event>
 7    1  0.2903212E-011  0.5052885E+02  0.7816164E-02  0.1300439E+00
        -11   -1    0    0    0    0  0.00000000000E+00  0.00000000000E+00  0.45593999997E+02  0.45594000000E+02  0.51100000000E-03 0.  1.
         11   -1    0    0    0    0 -0.00000000000E+00 -0.00000000000E+00 -0.45593999997E+02  0.45594000000E+02  0.51100000000E-03 0. -1.
    9900012    2    1    2    0    0 -0.10513974126E+02 -0.32858298971E+02 -0.21516389535E+02  0.50528849962E+02  0.29999969945E+02 0.  0.
        -12    1    1    2    0    0  0.10513974126E+02  0.32858298971E+02  0.21516389535E+02  0.40659150038E+02  0.00000000000E+00 0.  1.
         11    1    3    3    0    0 -0.31735999633E+00 -0.17847316308E+01  0.35485011406E+01  0.39847013649E+01  0.51100000000E-03 0. -1.
        -11    1    3    3    0    0 -0.17609180189E+01 -0.77324272412E+01 -0.19582125724E+02  0.21127018517E+02  0.51100000000E-03 0.  1.
         12    1    3    3    0    0 -0.84356961107E+01 -0.23341140099E+02 -0.54827649515E+01  0.25417130080E+02  0.00000000000E+00 0. -1.
</event>
<event>
 7    1  0.2903212E-011  0.5052888E+02  0.7816164E-02  0.1300439E+00
        -11   -1    0    0    0    0  0.00000000000E+00  0.00000000000E+00  0.45593999997E+02  0.45594000000E+02  0.51100000000E-03 0.  1.
         11   -1    0    0    0    0 -0.00000000000E+00 -0.00000000000E+00 -0.45593999997E+02  0.45594000000E+02  0.51100000000E-03 0. -1.
    9900012    2    1    2    0    0 -0.20777896241E+02 -0.17388625605E+02 -0.30316305203E+02  0.50528884985E+02  0.30000076400E+02 0.  0.
        -12    1    1    2    0    0  0.20777896241E+02  0.17388625605E+02  0.30316305203E+02  0.40659115015E+02  0.00000000000E+00 0.  1.
         11    1    3    3    0    0 -0.20166596141E+02 -0.16276772561E+02 -0.23424720045E+02  0.34933399983E+02  0.51100000000E-03 0. -1.
        -11    1    3    3    0    0 -0.54263993963E+00 -0.66181914833E+01  0.16753809438E+00  0.66425135218E+01  0.51100000000E-03 0.  1.
        -12    1    3    3    0    0 -0.68660160400E-01  0.55063384392E+01 -0.70591232523E+01  0.89529714796E+01  0.00000000000E+00 0.  1.
</event>
<event>
 7    1  0.2903212E-011  0.5052886E+02  0.7816164E-02  0.1300439E+00
        -11   -1    0    0    0    0  0.00000000000E+00  0.00000000000E+00  0.45593999997E+02  0.45594000000E+02  0.51100000000E-03 0.  1.
         11   -1    0    0    0    0 -0.00000000000E+00 -0.00000000000E+00 -0.45593999997E+02  0.45594000000E+02  0.51100000000E-03 0. -1.
    9900012    2    1    2    0    0  0.22917943551E+02 -0.33554904228E+02 -0.14149969978E+01  0.50528856492E+02  0.29999989792E+02 0.  0.
        -12    1    1    2    0    0 -0.22917943551E+02  0.33554904228E+02  0.14149969978E+01  0.40659143508E+02  0.00000000000E+00 0.  1.
         11    1    3    3    0    0  0.61249164887E+01 -0.20770400952E+02  0.12139877870E+01  0.21688658887E+02  0.51100000000E-03 0. -1.
        -11    1    3    3    0    0  0.10414530180E+02 -0.16420266524E+02  0.28862343501E+01  0.19657516134E+02  0.51100000000E-03 0.  1.
        -12    1    3    3    0    0  0.63784968825E+01  0.36357632486E+01 -0.55152191349E+01  0.91826814704E+01  0.00000000000E+00 0.  1.
</event>
<event>
 7    1  0.2903212E-011  0.5052885E+02  0.7816164E-02  0.1300439E+00
        -11   -1    0    0    0    0  0.00000000000E+00  0.00000000000E+00  0.45593999997E+02  0.45594000000E+02  0.51100000000E-03 0. -1.
         11   -1    0    0    0    0 -0.00000000000E+00 -0.00000000000E+00 -0.45593999997E+02  0.45594000000E+02  0.51100000000E-03 0.  1.
    9900012    2    1    2    0    0  0.93728430525E+01  0.34970941391E+02  0.18502685144E+02  0.50528852367E+02  0.29999977256E+02 0.  0.
        -12    1    1    2    0    0 -0.93728430525E+01 -0.34970941391E+02 -0.18502685144E+02  0.40659147633E+02  0.00000000000E+00 0.  1.
         11    1    3    3    0    0  0.79812067235E+01  0.11580725372E+02  0.16513013259E+02  0.21690838344E+02  0.51100000000E-03 0. -1.
        -11    1    3    3    0    0  0.27868918004E+01  0.29429806747E+01 -0.56604916612E+01  0.69619729435E+01  0.51100000000E-03 0.  1.
         12    1    3    3    0    0 -0.13952554715E+01  0.20447235344E+02  0.76501635460E+01  0.21876041080E+02  0.00000000000E+00 0. -1.
</event>
<event>
 7    1  0.2903212E-011  0.5052888E+02  0.7816164E-02  0.1300439E+00
        -11   -1    0    0    0    0  0.00000000000E+00  0.00000000000E+00  0.45593999997E+02  0.45594000000E+02  0.51100000000E-03 0.  1.
         11   -1    0    0    0    0 -0.00000000000E+00 -0.00000000000E+00 -0.45593999997E+02  0.45594000000E+02  0.51100000000E-03 0. -1.
    9900012    2    1    2    0    0  0.37028851468E+02 -0.16680396705E+02 -0.19475012903E+01  0.50528877573E+02  0.30000053870E+02 0.  0.
        -12    1    1    2    0    0 -0.37028851468E+02  0.16680396705E+02  0.19475012903E+01  0.40659122427E+02  0.00000000000E+00 0.  1.
         11    1    3    3    0    0  0.40336894117E+01  0.30198565074E+01 -0.77896810784E+01  0.92773549657E+01  0.51100000000E-03 0. -1.
        -11    1    3    3    0    0  0.92033543806E+01 -0.18071102848E+01  0.66066226293E+01  0.11472351209E+02  0.51100000000E-03 0.  1.
         12    1    3    3    0    0  0.23791807676E+02 -0.17893142928E+02 -0.76444284122E+00  0.29779171398E+02  0.00000000000E+00 0. -1.
</event>
<event>
 7    1  0.2903212E-011  0.5052887E+02  0.7816164E-02  0.1300439E+00
        -11   -1    0    0    0    0  0.00000000000E+00  0.00000000000E+00  0.45593999997E+02  0.45594000000E+02  0.51100000000E-03 0.  1.
         11   -1    0    0    0    0 -0.00000000000E+00 -0.00000000000E+00 -0.45593999997E+02  0.45594000000E+02  0.51100000000E-03 0. -1.
    9900012    2    1    2    0    0 -0.27105065118E+02  0.42132764882E+01 -0.30012146924E+02  0.50528865518E+02  0.30000017229E+02 0.  0.
        -12    1    1    2    0    0  0.27105065118E+02 -0.42132764882E+01  0.30012146924E+02  0.40659134482E+02  0.00000000000E+00 0.  1.
         11    1    3    3    0    0 -0.11886201915E+02 -0.65312132829E+01 -0.22583495783E+02  0.26342984359E+02  0.51100000000E-03 0. -1.
        -11    1    3    3    0    0 -0.40781068624E+01 -0.10378901897E+01 -0.67524117975E+01  0.79563331360E+01  0.51100000000E-03 0.  1.
         12    1    3    3    0    0 -0.11140756341E+02  0.11782379961E+02 -0.67623934354E+00  0.16229548023E+02  0.00000000000E+00 0. -1.
</event>
<event>
 7    1  0.2903212E-011  0.5052884E+02  0.7816164E-02  0.1300439E+00
        -11   -1    0    0    0    0  0.00000000000E+00  0.00000000000E+00  0.45593999997E+02  0.45594000000E+02  0.51100000000E-03 0. -1.
         11   -1    0    0    0    0 -0.00000000000E+00 -0.00000000000E+00 -0.45593999997E+02  0.45594000000E+02  0.51100000000E-03 0.  1.
    9900012    2    1    2    0    0 -0.39051502272E+02  0.26533577641E+01  0.11004870810E+02  0.50528839671E+02  0.29999938663E+02 0.  0.
        -12    1    1    2    0    0  0.39051502272E+02 -0.26533577641E+01 -0.11004870810E+02  0.40659160329E+02  0.00000000000E+00 0.  1.
         11    1    3    3    0    0 -0.15758227264E+02 -0.29463144753E+01 -0.18672595501E+01  0.16139676390E+02  0.51100000000E-03 0. -1.
        -11    1    3    3    0    0 -0.16550109090E+02  0.95440103649E+00 -0.26993988285E+01  0.16795944348E+02  0.51100000000E-03 0.  1.
         12    1    3    3    0    0 -0.67431659178E+01  0.46452712029E+01  0.15571529188E+02  0.17593218932E+02  0.00000000000E+00 0. -1.
</event>
<event>
 7    1  0.2903212E-011  0.5052886E+02  0.7816164E-02  0.1300439E+00
        -11   -1    0    0    0    0  0.00000000000E+00  0.00000000000E+00  0.45593999997E+02  0.45594000000E+02  0.51100000000E-03 0.  1.
         11   -1    0    0    0    0 -0.00000000000E+00 -0.00000000000E+00 -0.45593999997E+02  0.45594000000E+02  0.51100000000E-03 0. -1.
    9900012    2    1    2    0    0  0.69883016863E+01  0.20249296679E+02 -0.34558581296E+02  0.50528856900E+02  0.29999991032E+02 0.  0.
        -12    1    1    2    0    0 -0.69883016863E+01 -0.20249296679E+02  0.34558581296E+02  0.40659143100E+02  0.00000000000E+00 0.  1.
         11    1    3    3    0    0  0.67261910689E+01  0.12881458565E+02 -0.30549313599E+02  0.33829486882E+02  0.51100000000E-03 0. -1.
        -11    1    3    3    0    0 -0.50129725163E-01  0.79840540849E+01 -0.87866177096E+01  0.11872332696E+02  0.51100000000E-03 0.  1.
         12    1    3    3    0    0  0.31224034249E+00 -0.61621597129E+00  0.47773500127E+01  0.48270373210E+01  0.00000000000E+00 0. -1.
</event>
<event>
 7    1  0.2903212E-011  0.5052883E+02  0.7816164E-02  0.1300439E+00
        -11   -1    0    0    0    0  0.00000000000E+00  0.00000000000E+00  0.45593999997E+02  0.45594000000E+02  0.51100000000E-03 0.  1.
         11   -1    0    0    0    0 -0.00000000000E+00 -0.00000000000E+00 -0.45593999997E+02  0.45594000000E+02  0.51100000000E-03 0. -1.
    9900012    2    1    2    0    0 -0.56824126828E+01  0.14395376349E+02 -0.37598559155E+02  0.50528827300E+02  0.29999901060E+02 0.  0.
        -12    1    1    2    0    0  0.56824126828E+01 -0.14395376349E+02  0.37598559155E+02  0.40659172700E+02  0.00000000000E+00 0.  1.
         11    1    3    3    0    0 -0.68615817789E+01  0.14607900844E+02 -0.23795870131E+02  0.28752660870E+02  0.51100000000E-03 0. -1.
        -11    1    3    3    0    0 -0.57278677988E+01  0.24399961272E+01 -0.12898233233E+02  0.14322236956E+02  0.51100000000E-03 0.  1.
        -12    1    3    3    0    0  0.69070368950E+01 -0.26525206222E+01 -0.90445579123E+00  0.74539294736E+01  0.00000000000E+00 0.  1.
</event>
<event>
 7    1  0.2903212E-011  0.5052886E+02  0.7816164E-02  0.1300439E+00
        -11   -1    0    0    0    0  0.00000000000E+00  0.00000000000E+00  0.45593999997E+02  0.45594000000E+02  0.51100000000E-03 0.  1.
         11   -1    0    0    0    0 -0.00000000000E+00 -0.00000000000E+00 -0.45593999997E+02  0.45594000000E+02  0.51100000000E-03 0. -1.
    9900012    2    1    2    0    0  0.28813246623E+02 -0.10266758616E+02 -0.26787243881E+02  0.50528856525E+02  0.29999989892E+02 0.  0.
        -12    1    1    2    0    0 -0.28813246623E+02  0.10266758616E+02  0.26787243881E+02  0.40659143475E+02  0.00000000000E+00 0.  1.
         11    1    3    3    0    0  0.14783558680E+02 -0.87264846413E+01 -0.23809738650E+02  0.29353173530E+02  0.51100000000E-03 0. -1.
        -11    1    3    3    0    0  0.63157881070E+01  0.48888834862E+01 -0.67413915651E+01  0.10451637271E+02  0.51100000000E-03 0.  1.
        -12    1    3    3    0    0  0.77138998363E+01 -0.64291574607E+01  0.37638863344E+01  0.10724045723E+02  0.00000000000E+00 0.  1.
</event>
<event>
 7    1  0.2903212E-011  0.5052886E+02  0.7816164E-02  0.1300439E+00
        -11   -1    0    0    0    0  0.00000000000E+00  0.00000000000E+00  0.45593999997E+02  0.45594000000E+02  0.51100000000E-03 0. -1.
         11   -1    0    0    0    0 -0.00000000000E+00 -0.00000000000E+00 -0.45593999997E+02  0.45594000000E+02  0.51100000000E-03 0.  1.
    9900012    2    1    2    0    0  0.21637867746E+02 -0.33576311139E+02  0.75894545343E+01  0.50528858219E+02  0.29999995042E+02 0.  0.
        -12    1    1    2    0    0 -0.21637867746E+02  0.33576311139E+02 -0.75894545343E+01  0.40659141781E+02  0.00000000000E+00 0.  1.
         11    1    3    3    0    0  0.74704173931E+00 -0.18456852765E+02  0.68750760603E+01  0.19709899960E+02  0.51100000000E-03 0. -1.
        -11    1    3    3    0    0 -0.25833558675E+01 -0.36395844718E+01  0.14043294788E+01  0.46789362265E+01  0.51100000000E-03 0.  1.
        -12    1    3    3    0    0  0.23474181874E+02 -0.11479873902E+02 -0.68995100486E+00  0.26140022032E+02  0.00000000000E+00 0.  1.
</event>
<event>
 7    1  0.2903212E-011  0.5052886E+02  0.7816164E-02  0.1300439E+00
        -11   -1    0    0    0    0  0.00000000000E+00  0.00000000000E+00  0.45593999997E+02  0.45594000000E+02  0.51100000000E-03 0.  1.
         11   -1    0    0    0    0 -0.00000000000E+00 -0.00000000000E+00 -0.45593999997E+02  0.45594000000E+02  0.51100000000E-03 0. -1.
    9900012    2    1    2    0    0 -0.17996358248E+02  0.24650385867E+02 -0.26863642858E+02  0.50528859070E+02  0.29999997629E+02 0.  0.
        -12    1    1    2    0    0  0.17996358248E+02 -0.24650385867E+02  0.26863642858E+02  0.40659140930E+02  0.00000000000E+00 0.  1.
         11    1    3    3    0    0 -0.88566866538E+01  0.52012432548E+01 -0.51205825770E+01  0.11476680533E+02  0.51100000000E-03 0. -1.
        -11    1    3    3    0    0 -0.12957686612E+02  0.35008893577E+00 -0.86999252485E+01  0.15611306934E+02  0.51100000000E-03 0.  1.
        -12    1    3    3    0    0  0.38180150177E+01  0.19099053676E+02 -0.13043135032E+02  0.23440871602E+02  0.00000000000E+00 0.  1.
</event>
<event>
 7    1  0.2903212E-011  0.5052877E+02  0.7816164E-02  0.1300439E+00
        -11   -1    0    0    0    0  0.00000000000E+00  0.00000000000E+00  0.45593999997E+02  0.45594000000E+02  0.51100000000E-03 0.  1.
         11   -1    0    0    0    0 -0.00000000000E+00 -0.00000000000E+00 -0.45593999997E+02  0.45594000000E+02  0.51100000000E-03 0. -1.
    9900012    2    1    2    0    0 -0.10509441023E+02 -0.10694441194E+02 -0.37793565787E+02  0.50528769339E+02  0.29999724880E+02 0.  0.
        -12    1    1    2    0    0  0.10509441023E+02  0.10694441194E+02  0.37793565787E+02  0.40659230661E+02  0.00000000000E+00 0.  1.
         11    1    3    3    0    0 -0.18250496320E+02  0.97301819473E+00 -0.24914233390E+02  0.30898970954E+02  0.51100000000E-03 0. -1.
        -11    1    3    3    0    0 -0.35192488065E+00 -0.11119650420E+01 -0.77365279548E-01  0.11688896543E+01  0.51100000000E-03 0.  1.
         12    1    3    3    0    0  0.80929801781E+01 -0.10555494347E+02 -0.12801967118E+02  0.18460908731E+02  0.00000000000E+00 0. -1.
</event>
<event>
 7    1  0.2903212E-011  0.5052886E+02  0.7816164E-02  0.1300439E+00
        -11   -1    0    0    0    0  0.00000000000E+00  0.00000000000E+00  0.45593999997E+02  0.45594000000E+02  0.51100000000E-03 0.  1.
         11   -1    0    0    0    0 -0.00000000000E+00 -0.00000000000E+00 -0.45593999997E+02  0.45594000000E+02  0.51100000000E-03 0. -1.
    9900012    2    1    2    0    0  0.31398898470E+02 -0.19579894564E+02 -0.16849414034E+02  0.50528857737E+02  0.29999993578E+02 0.  0.
        -12    1    1    2    0    0 -0.31398898470E+02  0.19579894564E+02  0.16849414034E+02  0.40659142263E+02  0.00000000000E+00 0.  1.
         11    1    3    3    0    0  0.51064474617E+01 -0.90076981923E+01 -0.35368457510E+01  0.10941833052E+02  0.51100000000E-03 0. -1.
        -11    1    3    3    0    0  0.17020202794E+02 -0.15158843347E+02 -0.17181408938E+02  0.28542576060E+02  0.51100000000E-03 0.  1.
        -12    1    3    3    0    0  0.92722482146E+01  0.45866469760E+01  0.38688406548E+01  0.11044448626E+02  0.00000000000E+00 0.  1.
</event>
<event>
 7    1  0.2903212E-011  0.5052885E+02  0.7816164E-02  0.1300439E+00
        -11   -1    0    0    0    0  0.00000000000E+00  0.00000000000E+00  0.45593999997E+02  0.45594000000E+02  0.51100000000E-03 0. -1.
         11   -1    0    0    0    0 -0.00000000000E+00 -0.00000000000E+00 -0.45593999997E+02  0.45594000000E+02  0.51100000000E-03 0.  1.
    9900012    2    1    2    0    0 -0.39764986043E+02 -0.48018656620E+01  0.69895713841E+01  0.50528854202E+02  0.29999982833E+02 0.  0.
        -12    1    1    2    0    0  0.39764986043E+02  0.48018656620E+01 -0.69895713841E+01  0.40659145798E+02  0.00000000000E+00 0.  1.
         11    1    3    3    0    0 -0.25249479071E+02 -0.49769894909E+01  0.11704855905E+02  0.28272075795E+02  0.51100000000E-03 0. -1.
        -11    1    3    3    0    0 -0.16415143598E+02  0.28405838596E+01 -0.71989476446E+01  0.18148022026E+02  0.51100000000E-03 0.  1.
         12    1    3    3    0    0  0.18996366257E+01 -0.26654600307E+01  0.24836631238E+01  0.41087563809E+01  0.00000000000E+00 0. -1.
</event>
<event>
 7    1  0.2903212E-011  0.5052887E+02  0.7816164E-02  0.1300439E+00
        -11   -1    0    0    0    0  0.00000000000E+00  0.00000000000E+00  0.45593999997E+02  0.45594000000E+02  0.51100000000E-03 0. -1.
         11   -1    0    0    0    0 -0.00000000000E+00 -0.00000000000E+00 -0.45593999997E+02  0.45594000000E+02  0.51100000000E-03 0.  1.
    9900012    2    1    2    0    0  0.49731317512E+01  0.13893622167E+01  0.40329924781E+02  0.50528865730E+02  0.30000017872E+02 0.  0.
        -12    1    1    2    0    0 -0.49731317512E+01 -0.13893622167E+01 -0.40329924781E+02  0.40659134270E+02  0.00000000000E+00 0.  1.
         11    1    3    3    0    0  0.71533674312E+01  0.49025626366E+01  0.17566507771E+02  0.19590507435E+02  0.51100000000E-03 0. -1.
        -11    1    3    3    0    0  0.43764657838E+01 -0.45447044081E+01  0.23432803161E+02  0.24267345450E+02  0.51100000000E-03 0.  1.
        -12    1    3    3    0    0 -0.65567014638E+01  0.10315039883E+01 -0.66938615171E+00  0.66710128454E+01  0.00000000000E+00 0.  1.
</event>
<event>
 7    1  0.2903212E-011  0.5052885E+02  0.7816164E-02  0.1300439E+00
        -11   -1    0    0    0    0  0.00000000000E+00  0.00000000000E+00  0.45593999997E+02  0.45594000000E+02  0.51100000000E-03 0.  1.
         11   -1    0    0    0    0 -0.00000000000E+00 -0.00000000000E+00 -0.45593999997E+02  0.45594000000E+02  0.51100000000E-03 0. -1.
    9900012    2    1    2    0    0  0.51381414430E+01  0.77962082573E+01 -0.39572525966E+02  0.50528853772E+02  0.29999981525E+02 0.  0.
        -12    1    1    2    0    0 -0.51381414430E+01 -0.77962082573E+01  0.39572525966E+02  0.40659146228E+02  0.00000000000E+00 0.  1.
         11    1    3    3    0    0  0.50345692749E+01  0.12147636000E+01 -0.35101340285E+02  0.35481356069E+02  0.51100000000E-03 0. -1.
        -11    1    3    3    0    0 -0.77975537244E+00 -0.36416127924E+01 -0.27813257198E+01  0.46481324413E+01  0.51100000000E-03 0.  1.
        -12    1    3    3    0    0  0.88332754049E+00  0.10223057450E+02 -0.16898599608E+01  0.10399365262E+02  0.00000000000E+00 0.  1.
</event>
<event>
 7    1  0.2903212E-011  0.5052876E+02  0.7816164E-02  0.1300439E+00
        -11   -1    0    0    0    0  0.00000000000E+00  0.00000000000E+00  0.45593999997E+02  0.45594000000E+02  0.51100000000E-03 0.  1.
         11   -1    0    0    0    0 -0.00000000000E+00 -0.00000000000E+00 -0.45593999997E+02  0.45594000000E+02  0.51100000000E-03 0. -1.
    9900012    2    1    2    0    0  0.74492481924E+01 -0.90693501018E+01 -0.38928512935E+02  0.50528763298E+02  0.29999706519E+02 0.  0.
        -12    1    1    2    0    0 -0.74492481924E+01  0.90693501018E+01  0.38928512935E+02  0.40659236702E+02  0.00000000000E+00 0.  1.
         11    1    3    3    0    0  0.63980568717E+01 -0.99778629835E+01 -0.13297645764E+02  0.17813485469E+02  0.51100000000E-03 0. -1.
        -11    1    3    3    0    0 -0.60772372309E+01  0.13336852607E-02  0.19591845609E-01  0.60772689788E+01  0.51100000000E-03 0.  1.
         12    1    3    3    0    0  0.71284285516E+01  0.90717919648E+00 -0.25650459017E+02  0.26638008850E+02  0.00000000000E+00 0. -1.
</event>
<event>
 7    1  0.2903212E-011  0.5052885E+02  0.7816164E-02  0.1300439E+00
        -11   -1    0    0    0    0  0.00000000000E+00  0.00000000000E+00  0.45593999997E+02  0.45594000000E+02  0.51100000000E-03 0.  1.
         11   -1    0    0    0    0 -0.00000000000E+00 -0.00000000000E+00 -0.45593999997E+02  0.45594000000E+02  0.51100000000E-03 0. -1.
    9900012    2    1    2    0    0 -0.24201307920E+02  0.31931938372E+02 -0.69147841179E+01  0.50528853026E+02  0.29999979259E+02 0.  0.
        -12    1    1    2    0    0  0.24201307920E+02 -0.31931938372E+02  0.69147841179E+01  0.40659146974E+02  0.00000000000E+00 0.  1.
         11    1    3    3    0    0 -0.29612223227E+02  0.22803033733E+02 -0.25077899022E+01  0.37458658843E+02  0.51100000000E-03 0. -1.
        -11    1    3    3    0    0  0.18833074123E+01  0.85041267018E+01 -0.28570588892E+01  0.91667771614E+01  0.51100000000E-03 0.  1.
        -12    1    3    3    0    0  0.35276078945E+01  0.62477793652E+00 -0.15499353265E+01  0.39034170215E+01  0.00000000000E+00 0.  1.
</event>
<event>
 7    1  0.2903212E-011  0.5052887E+02  0.7816164E-02  0.1300439E+00
        -11   -1    0    0    0    0  0.00000000000E+00  0.00000000000E+00  0.45593999997E+02  0.45594000000E+02  0.51100000000E-03 0. -1.
         11   -1    0    0    0    0 -0.00000000000E+00 -0.00000000000E+00 -0.45593999997E+02  0.45594000000E+02  0.51100000000E-03 0.  1.
    9900012    2    1    2    0    0  0.74888967696E+00  0.38654977428E+02 -0.12585592030E+02  0.50528865203E+02  0.30000016271E+02 0.  0.
        -12    1    1    2    0    0 -0.74888967696E+00 -0.38654977428E+02  0.12585592030E+02  0.40659134797E+02  0.00000000000E+00 0.  1.
         11    1    3    3    0    0 -0.10310579183E+02  0.19362870599E+02 -0.26389918030E+01  0.22095091738E+02  0.51100000000E-03 0. -1.
        -11    1    3    3    0    0  0.29869903587E+01  0.18255759563E+02 -0.69298931427E+01  0.19753943602E+02  0.51100000000E-03 0.  1.
         12    1    3    3    0    0  0.80724785010E+01  0.10363472662E+01 -0.30167070843E+01  0.86798298623E+01  0.00000000000E+00 0. -1.
</event>
<event>
 7    1  0.2903212E-011  0.5052884E+02  0.7816164E-02  0.1300439E+00
        -11   -1    0    0    0    0  0.00000000000E+00  0.00000000000E+00  0.45593999997E+02  0.45594000000E+02  0.51100000000E-03 0. -1.
         11   -1    0    0    0    0 -0.00000000000E+00 -0.00000000000E+00 -0.45593999997E+02  0.45594000000E+02  0.51100000000E-03 0.  1.
    9900012    2    1    2    0    0  0.30998511873E+02 -0.25731972214E+02 -0.54886409872E+01  0.50528839750E+02  0.29999938903E+02 0.  0.
        -12    1    1    2    0    0 -0.30998511873E+02  0.25731972214E+02  0.54886409872E+01  0.40659160250E+02  0.00000000000E+00 0.  1.
         11    1    3    3    0    0  0.11035681413E+02 -0.16265641331E+02 -0.11817367029E+02  0.22934853737E+02  0.51100000000E-03 0. -1.
        -11    1    3    3    0    0  0.88792827092E+00 -0.54275750229E+01  0.59361246777E+01  0.80922533137E+01  0.51100000000E-03 0.  1.
         12    1    3    3    0    0  0.19074902189E+02 -0.40387558596E+01  0.39260136460E+00  0.19501732699E+02  0.00000000000E+00 0. -1.
</event>
<event>
 7    1  0.2903212E-011  0.5052886E+02  0.7816164E-02  0.1300439E+00
        -11   -1    0    0    0    0  0.00000000000E+00  0.00000000000E+00  0.45593999997E+02  0.45594000000E+02  0.51100000000E-03 0.  1.
         11   -1    0    0    0    0 -0.00000000000E+00 -0.00000000000E+00 -0.45593999997E+02  0.45594000000E+02  0.51100000000E-03 0. -1.
    9900012    2    1    2    0    0  0.87817211580E+01 -0.23406172747E+00 -0.39698771669E+02  0.50528857321E+02  0.29999992313E+02 0.  0.
        -12    1    1    2    0    0 -0.87817211580E+01  0.23406172747E+00  0.39698771669E+02  0.40659142679E+02  0.00000000000E+00 0.  1.
         11    1    3    3    0    0  0.20372694240E+01 -0.56783207548E+01 -0.12988294638E+02  0.14320949381E+02  0.51100000000E-03 0. -1.
        -11    1    3    3    0    0  0.98444055010E+01 -0.66905384690E+01 -0.12324345494E+02  0.17133742055E+02  0.51100000000E-03 0.  1.
        -12    1    3    3    0    0 -0.30999537671E+01  0.12134797496E+02 -0.14386131537E+02  0.19074165885E+02  0.00000000000E+00 0.  1.
</event>
<event>
 7    1  0.2903212E-011  0.5052885E+02  0.7816164E-02  0.1300439E+00
        -11   -1    0    0    0    0  0.00000000000E+00  0.00000000000E+00  0.45593999997E+02  0.45594000000E+02  0.51100000000E-03 0.  1.
         11   -1    0    0    0    0 -0.00000000000E+00 -0.00000000000E+00 -0.45593999997E+02  0.45594000000E+02  0.51100000000E-03 0. -1.
    9900012    2    1    2    0    0 -0.40488136041E+02 -0.68843640883E+00 -0.36610378953E+01  0.50528852158E+02  0.29999976620E+02 0.  0.
        -12    1    1    2    0    0  0.40488136041E+02  0.68843640883E+00  0.36610378953E+01  0.40659147842E+02  0.00000000000E+00 0.  1.
         11    1    3    3    0    0 -0.10805288842E+00 -0.40408720061E+01 -0.27424783067E+01  0.48848244104E+01  0.51100000000E-03 0.  1.
        -11    1    3    3    0    0 -0.74823754310E+01  0.35996067891E+01 -0.85006968208E+01  0.11882969234E+02  0.51100000000E-03 0. -1.
         12    1    3    3    0    0 -0.32897707722E+02 -0.24717119181E+00  0.75821372323E+01  0.33761058513E+02  0.00000000000E+00 0. -1.
</event>
<event>
 7    1  0.2903212E-011  0.5052887E+02  0.7816164E-02  0.1300439E+00
        -11   -1    0    0    0    0  0.00000000000E+00  0.00000000000E+00  0.45593999997E+02  0.45594000000E+02  0.51100000000E-03 0.  1.
         11   -1    0    0    0    0 -0.00000000000E+00 -0.00000000000E+00 -0.45593999997E+02  0.45594000000E+02  0.51100000000E-03 0. -1.
    9900012    2    1    2    0    0 -0.13974401606E+02  0.17470571520E+02 -0.33950852296E+02  0.50528866449E+02  0.30000020060E+02 0.  0.
        -12    1    1    2    0    0  0.13974401606E+02 -0.17470571520E+02  0.33950852296E+02  0.40659133551E+02  0.00000000000E+00 0.  1.
         11    1    3    3    0    0  0.20397404912E+01 -0.11843925360E+01 -0.22999686159E+01  0.32944169205E+01  0.51100000000E-03 0.  1.
        -11    1    3    3    0    0  0.59680288491E+01  0.25410449050E+01 -0.11974463273E+02  0.13618445157E+02  0.51100000000E-03 0. -1.
         12    1    3    3    0    0 -0.21982170946E+02  0.16113919151E+02 -0.19676420407E+02  0.33616004372E+02  0.00000000000E+00 0. -1.
</event>
<event>
 7    1  0.2903212E-011  0.5052886E+02  0.7816164E-02  0.1300439E+00
        -11   -1    0    0    0    0  0.00000000000E+00  0.00000000000E+00  0.45593999997E+02  0.45594000000E+02  0.51100000000E-03 0. -1.
         11   -1    0    0    0    0 -0.00000000000E+00 -0.00000000000E+00 -0.45593999997E+02  0.45594000000E+02  0.51100000000E-03 0.  1.
    9900012    2    1    2    0    0  0.16123973146E+02  0.34549190631E+01  0.37165123346E+02  0.50528863646E+02  0.30000011539E+02 0.  0.
        -12    1    1    2    0    0 -0.16123973146E+02 -0.34549190631E+01 -0.37165123346E+02  0.40659136354E+02  0.00000000000E+00 0.  1.
         11    1    3    3    0    0  0.39948485273E+01  0.21178918271E+01  0.27138737492E+01  0.52734610585E+01  0.51100000000E-03 0. -1.
        -11    1    3    3    0    0  0.17801233075E+02  0.78074615507E+01  0.29498908939E+02  0.35327411223E+02  0.51100000000E-03 0.  1.
        -12    1    3    3    0    0 -0.56721084557E+01 -0.64704343147E+01  0.49523406573E+01  0.99279913648E+01  0.00000000000E+00 0.  1.
</event>
<event>
 7    1  0.2903212E-011  0.5052886E+02  0.7816164E-02  0.1300439E+00
        -11   -1    0    0    0    0  0.00000000000E+00  0.00000000000E+00  0.45593999997E+02  0.45594000000E+02  0.51100000000E-03 0.  1.
         11   -1    0    0    0    0 -0.00000000000E+00 -0.00000000000E+00 -0.45593999997E+02  0.45594000000E+02  0.51100000000E-03 0. -1.
    9900012    2    1    2    0    0  0.13717831298E+02 -0.60999482326E+01 -0.37785937324E+02  0.50528864207E+02  0.30000013245E+02 0.  0.
        -12    1    1    2    0    0 -0.13717831298E+02  0.60999482326E+01  0.37785937324E+02  0.40659135793E+02  0.00000000000E+00 0.  1.
         11    1    3    3    0    0 -0.88715786747E+00 -0.40260327682E+01  0.90570952617E+00  0.42209357895E+01  0.51100000000E-03 0. -1.
        -11    1    3    3    0    0  0.35992244880E+01 -0.78955782111E+01 -0.42047077128E+01  0.96423098588E+01  0.51100000000E-03 0.  1.
         12    1    3    3    0    0  0.11005764677E+02  0.58216627467E+01 -0.34486939137E+02  0.36665618559E+02  0.00000000000E+00 0. -1.
</event>
<event>
 7    1  0.2903212E-011  0.5052886E+02  0.7816164E-02  0.1300439E+00
        -11   -1    0    0    0    0  0.00000000000E+00  0.00000000000E+00  0.45593999997E+02  0.45594000000E+02  0.51100000000E-03 0.  1.
         11   -1    0    0    0    0 -0.00000000000E+00 -0.00000000000E+00 -0.45593999997E+02  0.45594000000E+02  0.51100000000E-03 0. -1.
    9900012    2    1    2    0    0  0.33233766447E+02 -0.15113628123E+02 -0.17895831339E+02  0.50528858757E+02  0.29999996678E+02 0.  0.
        -12    1    1    2    0    0 -0.33233766447E+02  0.15113628123E+02  0.17895831339E+02  0.40659141243E+02  0.00000000000E+00 0.  1.
         11    1    3    3    0    0  0.12848765800E+02 -0.54246807938E+01 -0.23633748075E+01  0.14145793899E+02  0.51100000000E-03 0. -1.
        -11    1    3    3    0    0  0.10338298384E+02 -0.33846383931E+01  0.55356239680E+01  0.12205708644E+02  0.51100000000E-03 0.  1.
        -12    1    3    3    0    0  0.10046702262E+02 -0.63043089359E+01 -0.21068080500E+02  0.24177356213E+02  0.00000000000E+00 0.  1.
</event>
<event>
 7    1  0.2903212E-011  0.5052886E+02  0.7816164E-02  0.1300439E+00
        -11   -1    0    0    0    0  0.00000000000E+00  0.00000000000E+00  0.45593999997E+02  0.45594000000E+02  0.51100000000E-03 0. -1.
         11   -1    0    0    0    0 -0.00000000000E+00 -0.00000000000E+00 -0.45593999997E+02  0.45594000000E+02  0.51100000000E-03 0.  1.
    9900012    2    1    2    0    0  0.68740267417E+01  0.34796945923E+02 -0.19876759553E+02  0.50528864993E+02  0.30000015633E+02 0.  0.
        -12    1    1    2    0    0 -0.68740267417E+01 -0.34796945923E+02  0.19876759553E+02  0.40659135007E+02  0.00000000000E+00 0.  1.
         11    1    3    3    0    0  0.47068233385E+01  0.11820046731E+02 -0.24921229185E+01  0.12964504139E+02  0.51100000000E-03 0. -1.
        -11    1    3    3    0    0 -0.41944019079E+01  0.16806309635E+02  0.79441549115E+00  0.17340015777E+02  0.51100000000E-03 0.  1.
        -12    1    3    3    0    0  0.63616053111E+01  0.61705895565E+01 -0.18179052126E+02  0.20224345077E+02  0.00000000000E+00 0.  1.
</event>
<event>
 7    1  0.2903212E-011  0.5052886E+02  0.7816164E-02  0.1300439E+00
        -11   -1    0    0    0    0  0.00000000000E+00  0.00000000000E+00  0.45593999997E+02  0.45594000000E+02  0.51100000000E-03 0.  1.
         11   -1    0    0    0    0 -0.00000000000E+00 -0.00000000000E+00 -0.45593999997E+02  0.45594000000E+02  0.51100000000E-03 0. -1.
    9900012    2    1    2    0    0  0.22345895049E+02  0.39098465687E+01 -0.33742255601E+02  0.50528859099E+02  0.29999997718E+02 0.  0.
        -12    1    1    2    0    0 -0.22345895049E+02 -0.39098465687E+01  0.33742255601E+02  0.40659140901E+02  0.00000000000E+00 0.  1.
         11    1    3    3    0    0  0.14970404345E+02 -0.61678092291E+00 -0.12512339617E+02  0.19520555010E+02  0.51100000000E-03 0.  1.
        -11    1    3    3    0    0  0.92287677169E+01  0.31076933464E+01 -0.24856258926E+02  0.26695720997E+02  0.51100000000E-03 0. -1.
        -12    1    3    3    0    0 -0.18532770135E+01  0.14189341453E+01  0.36263429412E+01  0.43125830919E+01  0.00000000000E+00 0.  1.
</event>
<event>
 7    1  0.2903212E-011  0.5052886E+02  0.7816164E-02  0.1300439E+00
        -11   -1    0    0    0    0  0.00000000000E+00  0.00000000000E+00  0.45593999997E+02  0.45594000000E+02  0.51100000000E-03 0.  1.
         11   -1    0    0    0    0 -0.00000000000E+00 -0.00000000000E+00 -0.45593999997E+02  0.45594000000E+02  0.51100000000E-03 0. -1.
    9900012    2    1    2    0    0  0.33729607590E+01  0.40427948061E+02 -0.27146921851E+01  0.50528863236E+02  0.30000010293E+02 0.  0.
        -12    1    1    2    0    0 -0.33729607590E+01 -0.40427948061E+02  0.27146921851E+01  0.40659136764E+02  0.00000000000E+00 0.  1.
         11    1    3    3    0    0  0.67429768000E+01  0.18453243567E+02  0.13251627708E+01  0.19691266869E+02  0.51100000000E-03 0. -1.
        -11    1    3    3    0    0  0.83113257760E+01  0.59977098852E+01  0.13167601780E+01  0.10333659451E+02  0.51100000000E-03 0.  1.
        -12    1    3    3    0    0 -0.11681341817E+02  0.15976994609E+02 -0.53566151339E+01  0.20503936916E+02  0.00000000000E+00 0.  1.
</event>
<event>
 7    1  0.2903212E-011  0.5052887E+02  0.7816164E-02  0.1300439E+00
        -11   -1    0    0    0    0  0.00000000000E+00  0.00000000000E+00  0.45593999997E+02  0.45594000000E+02  0.51100000000E-03 0. -1.
         11   -1    0    0    0    0 -0.00000000000E+00 -0.00000000000E+00 -0.45593999997E+02  0.45594000000E+02  0.51100000000E-03 0.  1.
    9900012    2    1    2    0    0 -0.17897498466E+02  0.28402138081E+02  0.22938248946E+02  0.50528866172E+02  0.30000019216E+02 0.  0.
        -12    1    1    2    0    0  0.17897498466E+02 -0.28402138081E+02 -0.22938248946E+02  0.40659133828E+02  0.00000000000E+00 0.  1.
         11    1    3    3    0    0  0.51556418191E+00 -0.18152933882E+01 -0.27827969244E+01  0.33622991382E+01  0.51100000000E-03 0. -1.
        -11    1    3    3    0    0 -0.68059565396E+01  0.48968685106E+01  0.15261974325E+02  0.17413449577E+02  0.51100000000E-03 0.  1.
         12    1    3    3    0    0 -0.11607106108E+02  0.25320562959E+02  0.10459071546E+02  0.29753117456E+02  0.00000000000E+00 0. -1.
</event>
<event>
 7    1  0.2903212E-011  0.5052887E+02  0.7816164E-02  0.1300439E+00
        -11   -1    0    0    0    0  0.00000000000E+00  0.00000000000E+00  0.45593999997E+02  0.45594000000E+02  0.51100000000E-03 0.  1.
         11   -1    0    0    0    0 -0.00000000000E+00 -0.00000000000E+00 -0.45593999997E+02  0.45594000000E+02  0.51100000000E-03 0. -1.
    9900012    2    1    2    0    0  0.20383942216E+02 -0.74728673002E+01 -0.34377555689E+02  0.50528865957E+02  0.30000018564E+02 0.  0.
        -12    1    1    2    0    0 -0.20383942216E+02  0.74728673002E+01  0.34377555689E+02  0.40659134043E+02  0.00000000000E+00 0.  1.
         11    1    3    3    0    0 -0.38828840722E+01  0.61684809772E+00  0.26592702191E+01  0.47464732859E+01  0.51100000000E-03 0.  1.
        -11    1    3    3    0    0  0.14009257506E+02 -0.88045956049E+01 -0.21056567081E+02  0.26779828549E+02  0.51100000000E-03 0. -1.
        -12    1    3    3    0    0  0.10257568782E+02  0.71488020691E+00 -0.15980258828E+02  0.19002564122E+02  0.00000000000E+00 0.  1.
</event>
<event>
 7    1  0.2903212E-011  0.5052886E+02  0.7816164E-02  0.1300439E+00
        -11   -1    0    0    0    0  0.00000000000E+00  0.00000000000E+00  0.45593999997E+02  0.45594000000E+02  0.51100000000E-03 0. -1.
         11   -1    0    0    0    0 -0.00000000000E+00 -0.00000000000E+00 -0.45593999997E+02  0.45594000000E+02  0.51100000000E-03 0.  1.
    9900012    2    1    2    0    0 -0.47226205351E+01  0.29670115007E+02 -0.27396102291E+02  0.50528864618E+02  0.30000014493E+02 0.  0.
        -12    1    1    2    0    0  0.47226205351E+01 -0.29670115007E+02  0.27396102291E+02  0.40659135382E+02  0.00000000000E+00 0.  1.
         11    1    3    3    0    0 -0.44441125679E+00  0.81256214624E+01 -0.96886620727E+00  0.81952380993E+01  0.51100000000E-03 0. -1.
        -11    1    3    3    0    0 -0.13078645805E+02  0.44024877164E+01 -0.11305559349E+02  0.17839522041E+02  0.51100000000E-03 0.  1.
         12    1    3    3    0    0  0.88004365268E+01  0.17142005829E+02 -0.15121676735E+02  0.24494104478E+02  0.00000000000E+00 0. -1.
</event>
<event>
 7    1  0.2903212E-011  0.5052891E+02  0.7816164E-02  0.1300439E+00
        -11   -1    0    0    0    0  0.00000000000E+00  0.00000000000E+00  0.45593999997E+02  0.45594000000E+02  0.51100000000E-03 0. -1.
         11   -1    0    0    0    0 -0.00000000000E+00 -0.00000000000E+00 -0.45593999997E+02  0.45594000000E+02  0.51100000000E-03 0.  1.
    9900012    2    1    2    0    0 -0.62674751853E+01 -0.27971834263E+02  0.28834991692E+02  0.50528911187E+02  0.30000156044E+02 0.  0.
        -12    1    1    2    0    0  0.62674751853E+01  0.27971834263E+02 -0.28834991692E+02  0.40659088813E+02  0.00000000000E+00 0.  1.
         11    1    3    3    0    0 -0.63339943579E+01 -0.70899856279E+01  0.83349481201E+01  0.12643525662E+02  0.51100000000E-03 0. -1.
        -11    1    3    3    0    0 -0.98928312502E+01 -0.19271168668E+02  0.15419435389E+02  0.26589566374E+02  0.51100000000E-03 0.  1.
        -12    1    3    3    0    0  0.99593504228E+01 -0.16106799676E+01  0.50806081827E+01  0.11295819152E+02  0.00000000000E+00 0.  1.
</event>
<event>
 7    1  0.2903212E-011  0.5052889E+02  0.7816164E-02  0.1300439E+00
        -11   -1    0    0    0    0  0.00000000000E+00  0.00000000000E+00  0.45593999997E+02  0.45594000000E+02  0.51100000000E-03 0.  1.
         11   -1    0    0    0    0 -0.00000000000E+00 -0.00000000000E+00 -0.45593999997E+02  0.45594000000E+02  0.51100000000E-03 0. -1.
    9900012    2    1    2    0    0 -0.73794433795E+00 -0.35205062513E+02  0.20327873233E+02  0.50528887632E+02  0.30000084446E+02 0.  0.
        -12    1    1    2    0    0  0.73794433795E+00  0.35205062513E+02 -0.20327873233E+02  0.40659112368E+02  0.00000000000E+00 0.  1.
         11    1    3    3    0    0 -0.38925432563E+00 -0.16694598959E+02  0.38325880995E+01  0.17133297556E+02  0.51100000000E-03 0. -1.
        -11    1    3    3    0    0  0.95230050373E+01 -0.25619493301E+01  0.84492128527E+01  0.12986162151E+02  0.51100000000E-03 0.  1.
         12    1    3    3    0    0 -0.98716950496E+01 -0.15948514224E+02  0.80460722807E+01  0.20409427925E+02  0.00000000000E+00 0. -1.
</event>
<event>
 7    1  0.2903212E-011  0.5052885E+02  0.7816164E-02  0.1300439E+00
        -11   -1    0    0    0    0  0.00000000000E+00  0.00000000000E+00  0.45593999997E+02  0.45594000000E+02  0.51100000000E-03 0. -1.
         11   -1    0    0    0    0 -0.00000000000E+00 -0.00000000000E+00 -0.45593999997E+02  0.45594000000E+02  0.51100000000E-03 0.  1.
    9900012    2    1    2    0    0  0.23543326938E+01  0.18654699663E+02  0.36050318613E+02  0.50528853747E+02  0.29999981449E+02 0.  0.
        -12    1    1    2    0    0 -0.23543326938E+01 -0.18654699663E+02 -0.36050318613E+02  0.40659146253E+02  0.00000000000E+00 0.  1.
         11    1    3    3    0    0  0.31627916075E+01  0.23111386782E+01 -0.38612568692E+01  0.55003561351E+01  0.51100000000E-03 0.  1.
        -11    1    3    3    0    0  0.59666031843E+01  0.89088334215E+01  0.22389833252E+02  0.24824832321E+02  0.51100000000E-03 0. -1.
        -12    1    3    3    0    0 -0.67750620979E+01  0.74347275635E+01  0.17521742230E+02  0.20203665290E+02  0.00000000000E+00 0.  1.
</event>
<event>
 7    1  0.2903212E-011  0.5052886E+02  0.7816164E-02  0.1300439E+00
        -11   -1    0    0    0    0  0.00000000000E+00  0.00000000000E+00  0.45593999997E+02  0.45594000000E+02  0.51100000000E-03 0.  1.
         11   -1    0    0    0    0 -0.00000000000E+00 -0.00000000000E+00 -0.45593999997E+02  0.45594000000E+02  0.51100000000E-03 0. -1.
    9900012    2    1    2    0    0  0.25823478531E+01  0.36577437357E+02 -0.17566672637E+02  0.50528862877E+02  0.30000009200E+02 0.  0.
        -12    1    1    2    0    0 -0.25823478531E+01 -0.36577437357E+02  0.17566672637E+02  0.40659137123E+02  0.00000000000E+00 0.  1.
         11    1    3    3    0    0  0.18680348791E+01 -0.24106543835E+01 -0.32897369272E+01  0.44858865542E+01  0.51100000000E-03 0. -1.
        -11    1    3    3    0    0 -0.12391396506E+01 -0.20690882141E+01  0.30165840013E+00  0.24305536742E+01  0.51100000000E-03 0.  1.
        -12    1    3    3    0    0  0.19534526246E+01  0.41057179955E+02 -0.14578594110E+02  0.43612422648E+02  0.00000000000E+00 0.  1.
</event>
<event>
 7    1  0.2903212E-011  0.5052885E+02  0.7816164E-02  0.1300439E+00
        -11   -1    0    0    0    0  0.00000000000E+00  0.00000000000E+00  0.45593999997E+02  0.45594000000E+02  0.51100000000E-03 0. -1.
         11   -1    0    0    0    0 -0.00000000000E+00 -0.00000000000E+00 -0.45593999997E+02  0.45594000000E+02  0.51100000000E-03 0.  1.
    9900012    2    1    2    0    0 -0.35664974544E+02  0.18361310425E+02  0.66361456594E+01  0.50528849013E+02  0.29999967060E+02 0.  0.
        -12    1    1    2    0    0  0.35664974544E+02 -0.18361310425E+02 -0.66361456594E+01  0.40659150987E+02  0.00000000000E+00 0.  1.
         11    1    3    3    0    0 -0.33116080854E+02  0.86287925259E+01  0.11010468816E+02  0.35949426913E+02  0.51100000000E-03 0. -1.
        -11    1    3    3    0    0 -0.50726862379E+01  0.16771893260E+01 -0.75913182160E+00  0.53964239166E+01  0.51100000000E-03 0.  1.
        -12    1    3    3    0    0  0.25237925479E+01  0.80553285729E+01 -0.36151913349E+01  0.91829981830E+01  0.00000000000E+00 0.  1.
</event>
<event>
 7    1  0.2903212E-011  0.5052886E+02  0.7816164E-02  0.1300439E+00
        -11   -1    0    0    0    0  0.00000000000E+00  0.00000000000E+00  0.45593999997E+02  0.45594000000E+02  0.51100000000E-03 0.  1.
         11   -1    0    0    0    0 -0.00000000000E+00 -0.00000000000E+00 -0.45593999997E+02  0.45594000000E+02  0.51100000000E-03 0. -1.
    9900012    2    1    2    0    0  0.26612896235E+02 -0.12300156379E+02 -0.28171365316E+02  0.50528856911E+02  0.29999991066E+02 0.  0.
        -12    1    1    2    0    0 -0.26612896235E+02  0.12300156379E+02  0.28171365316E+02  0.40659143089E+02  0.00000000000E+00 0.  1.
         11    1    3    3    0    0  0.21412686181E+02 -0.54910930578E+01 -0.17091969572E+02  0.27942631526E+02  0.51100000000E-03 0. -1.
        -11    1    3    3    0    0  0.77147331916E+01 -0.11797305739E+02 -0.79552943781E+01  0.16185803651E+02  0.51100000000E-03 0.  1.
        -12    1    3    3    0    0 -0.25145231375E+01  0.49882424182E+01 -0.31241013656E+01  0.64004217341E+01  0.00000000000E+00 0.  1.
</event>
<event>
 7    1  0.2903212E-011  0.5052886E+02  0.7816164E-02  0.1300439E+00
        -11   -1    0    0    0    0  0.00000000000E+00  0.00000000000E+00  0.45593999997E+02  0.45594000000E+02  0.51100000000E-03 0.  1.
         11   -1    0    0    0    0 -0.00000000000E+00 -0.00000000000E+00 -0.45593999997E+02  0.45594000000E+02  0.51100000000E-03 0. -1.
    9900012    2    1    2    0    0 -0.14653401554E+02 -0.34306561680E+02 -0.16171073163E+02  0.50528856395E+02  0.29999989499E+02 0.  0.
        -12    1    1    2    0    0  0.14653401554E+02  0.34306561680E+02  0.16171073163E+02  0.40659143605E+02  0.00000000000E+00 0.  1.
         11    1    3    3    0    0 -0.23149773617E+01  0.30106370864E+01 -0.50314323997E+01  0.63038375697E+01  0.51100000000E-03 0. -1.
        -11    1    3    3    0    0 -0.10864818104E+02 -0.94376516443E+01 -0.66677776628E+00  0.14406878005E+02  0.51100000000E-03 0.  1.
         12    1    3    3    0    0 -0.14736060885E+01 -0.27879547122E+02 -0.10472862997E+02  0.29818140821E+02  0.00000000000E+00 0. -1.
</event>
<event>
 7    1  0.2903212E-011  0.5052886E+02  0.7816164E-02  0.1300439E+00
        -11   -1    0    0    0    0  0.00000000000E+00  0.00000000000E+00  0.45593999997E+02  0.45594000000E+02  0.51100000000E-03 0.  1.
         11   -1    0    0    0    0 -0.00000000000E+00 -0.00000000000E+00 -0.45593999997E+02  0.45594000000E+02  0.51100000000E-03 0. -1.
    9900012    2    1    2    0    0 -0.17808548776E+02  0.23751008868E+02 -0.27783284310E+02  0.50528859345E+02  0.29999998464E+02 0.  0.
        -12    1    1    2    0    0  0.17808548776E+02 -0.23751008868E+02  0.27783284310E+02  0.40659140655E+02  0.00000000000E+00 0.  1.
         11    1    3    3    0    0 -0.19972566172E+01  0.97062853944E+01 -0.44254067774E+01  0.10852890655E+02  0.51100000000E-03 0. -1.
        -11    1    3    3    0    0  0.57410222688E+01  0.35214981814E+01 -0.85693794103E+00  0.67893025436E+01  0.51100000000E-03 0.  1.
         12    1    3    3    0    0 -0.21552314427E+02  0.10523225292E+02 -0.22500939592E+02  0.32886666147E+02  0.00000000000E+00 0. -1.
</event>
<event>
 7    1  0.2903212E-011  0.5052886E+02  0.7816164E-02  0.1300439E+00
        -11   -1    0    0    0    0  0.00000000000E+00  0.00000000000E+00  0.45593999997E+02  0.45594000000E+02  0.51100000000E-03 0.  1.
         11   -1    0    0    0    0 -0.00000000000E+00 -0.00000000000E+00 -0.45593999997E+02  0.45594000000E+02  0.51100000000E-03 0. -1.
    9900012    2    1    2    0    0 -0.38399750837E+01  0.30134480013E+02 -0.27024682808E+02  0.50528858652E+02  0.29999996359E+02 0.  0.
        -12    1    1    2    0    0  0.38399750837E+01 -0.30134480013E+02  0.27024682808E+02  0.40659141348E+02  0.00000000000E+00 0.  1.
         11    1    3    3    0    0  0.65490552401E+00  0.24844970550E+02 -0.53819689018E+01  0.25429649081E+02  0.51100000000E-03 0. -1.
        -11    1    3    3    0    0 -0.38510115046E+01  0.55728623256E+01 -0.49455297142E+01  0.83872133944E+01  0.51100000000E-03 0.  1.
         12    1    3    3    0    0 -0.64386910316E+00 -0.28335286278E+00 -0.16697184192E+02  0.16711996176E+02  0.00000000000E+00 0. -1.
</event>
<event>
 7    1  0.2903212E-011  0.5052886E+02  0.7816164E-02  0.1300439E+00
        -11   -1    0    0    0    0  0.00000000000E+00  0.00000000000E+00  0.45593999997E+02  0.45594000000E+02  0.51100000000E-03 0.  1.
         11   -1    0    0    0    0 -0.00000000000E+00 -0.00000000000E+00 -0.45593999997E+02  0.45594000000E+02  0.51100000000E-03 0. -1.
    9900012    2    1    2    0    0 -0.34849908476E+02 -0.20403818753E+02 -0.47258467582E+01  0.50528861199E+02  0.30000004100E+02 0.  0.
        -12    1    1    2    0    0  0.34849908476E+02  0.20403818753E+02  0.47258467582E+01  0.40659138801E+02  0.00000000000E+00 0.  1.
         11    1    3    3    0    0 -0.16904434216E+02 -0.23803746183E+01 -0.94205322545E+01  0.19498012917E+02  0.51100000000E-03 0. -1.
        -11    1    3    3    0    0  0.26029430456E+00  0.70208619150E-01 -0.39403772686E+01  0.39495893021E+01  0.51100000000E-03 0.  1.
         12    1    3    3    0    0 -0.18205768564E+02 -0.18093652754E+02  0.86350627649E+01  0.27081258980E+02  0.00000000000E+00 0. -1.
</event>
<event>
 7    1  0.2903212E-011  0.5052887E+02  0.7816164E-02  0.1300439E+00
        -11   -1    0    0    0    0  0.00000000000E+00  0.00000000000E+00  0.45593999997E+02  0.45594000000E+02  0.51100000000E-03 0.  1.
         11   -1    0    0    0    0 -0.00000000000E+00 -0.00000000000E+00 -0.45593999997E+02  0.45594000000E+02  0.51100000000E-03 0. -1.
    9900012    2    1    2    0    0  0.32460753894E+02  0.49526454127E+01 -0.23977822484E+02  0.50528865589E+02  0.30000017446E+02 0.  0.
        -12    1    1    2    0    0 -0.32460753894E+02 -0.49526454127E+01  0.23977822484E+02  0.40659134411E+02  0.00000000000E+00 0.  1.
         11    1    3    3    0    0  0.16570482551E+02 -0.74116457674E+00 -0.41334932769E+01  0.17094326072E+02  0.51100000000E-03 0.  1.
        -11    1    3    3    0    0  0.11343798339E+02 -0.18343672929E+01  0.25648219156E+00  0.11494017900E+02  0.51100000000E-03 0. -1.
         12    1    3    3    0    0  0.45464730040E+01  0.75281772823E+01 -0.20100811399E+02  0.21940521618E+02  0.00000000000E+00 0. -1.
</event>
<event>
 7    1  0.2903212E-011  0.5052887E+02  0.7816164E-02  0.1300439E+00
        -11   -1    0    0    0    0  0.00000000000E+00  0.00000000000E+00  0.45593999997E+02  0.45594000000E+02  0.51100000000E-03 0.  1.
         11   -1    0    0    0    0 -0.00000000000E+00 -0.00000000000E+00 -0.45593999997E+02  0.45594000000E+02  0.51100000000E-03 0. -1.
    9900012    2    1    2    0    0  0.30771448084E+02  0.24392980858E+02 -0.10548241864E+02  0.50528868937E+02  0.30000027622E+02 0.  0.
        -12    1    1    2    0    0 -0.30771448084E+02 -0.24392980858E+02  0.10548241864E+02  0.40659131063E+02  0.00000000000E+00 0.  1.
         11    1    3    3    0    0  0.39893200410E+01  0.67471099629E+01  0.21162458750E+01  0.81189078148E+01  0.51100000000E-03 0. -1.
        -11    1    3    3    0    0  0.20193009383E+02  0.47264293412E+01  0.31226651238E+01  0.20972548725E+02  0.51100000000E-03 0.  1.
         12    1    3    3    0    0  0.65891186593E+01  0.12919441554E+02 -0.15787152863E+02  0.21437412398E+02  0.00000000000E+00 0. -1.
</event>
<event>
 7    1  0.2903212E-011  0.5052886E+02  0.7816164E-02  0.1300439E+00
        -11   -1    0    0    0    0  0.00000000000E+00  0.00000000000E+00  0.45593999997E+02  0.45594000000E+02  0.51100000000E-03 0.  1.
         11   -1    0    0    0    0 -0.00000000000E+00 -0.00000000000E+00 -0.45593999997E+02  0.45594000000E+02  0.51100000000E-03 0. -1.
    9900012    2    1    2    0    0  0.72055668067E+01 -0.37267186145E+02 -0.14574025183E+02  0.50528861221E+02  0.30000004168E+02 0.  0.
        -12    1    1    2    0    0 -0.72055668067E+01  0.37267186145E+02  0.14574025183E+02  0.40659138779E+02  0.00000000000E+00 0.  1.
         11    1    3    3    0    0  0.18039692584E+01 -0.75773791240E+01 -0.76415716297E+01  0.10911672498E+02  0.51100000000E-03 0. -1.
        -11    1    3    3    0    0 -0.26884755884E+01 -0.72299492928E+01 -0.12881686408E+02  0.15014589996E+02  0.51100000000E-03 0.  1.
         12    1    3    3    0    0  0.80900731366E+01 -0.22459857729E+02  0.59492328556E+01  0.24602598727E+02  0.00000000000E+00 0. -1.
</event>
<event>
 7    1  0.2903212E-011  0.5052885E+02  0.7816164E-02  0.1300439E+00
        -11   -1    0    0    0    0  0.00000000000E+00  0.00000000000E+00  0.45593999997E+02  0.45594000000E+02  0.51100000000E-03 0. -1.
         11   -1    0    0    0    0 -0.00000000000E+00 -0.00000000000E+00 -0.45593999997E+02  0.45594000000E+02  0.51100000000E-03 0.  1.
    9900012    2    1    2    0    0  0.21726617068E+02  0.27636321468E+01 -0.34256140640E+02  0.50528846991E+02  0.29999960913E+02 0.  0.
        -12    1    1    2    0    0 -0.21726617068E+02 -0.27636321468E+01  0.34256140640E+02  0.40659153009E+02  0.00000000000E+00 0.  1.
         11    1    3    3    0    0  0.16902937387E+02 -0.11132840634E+02 -0.22856600530E+02  0.30529880788E+02  0.51100000000E-03 0.  1.
        -11    1    3    3    0    0  0.58378327223E+01  0.83835348791E+01 -0.46473875810E+01  0.11223286486E+02  0.51100000000E-03 0. -1.
        -12    1    3    3    0    0 -0.10141530416E+01  0.55129379018E+01 -0.67521525297E+01  0.87756797164E+01  0.00000000000E+00 0.  1.
</event>
<event>
 7    1  0.2903212E-011  0.5052887E+02  0.7816164E-02  0.1300439E+00
        -11   -1    0    0    0    0  0.00000000000E+00  0.00000000000E+00  0.45593999997E+02  0.45594000000E+02  0.51100000000E-03 0.  1.
         11   -1    0    0    0    0 -0.00000000000E+00 -0.00000000000E+00 -0.45593999997E+02  0.45594000000E+02  0.51100000000E-03 0. -1.
    9900012    2    1    2    0    0  0.19364691916E+01  0.97448970062E+01 -0.39426541447E+02  0.50528866942E+02  0.30000021557E+02 0.  0.
        -12    1    1    2    0    0 -0.19364691916E+01 -0.97448970062E+01  0.39426541447E+02  0.40659133058E+02  0.00000000000E+00 0.  1.
         11    1    3    3    0    0 -0.69303044669E+01 -0.92747073697E+00 -0.32408507106E+02  0.33154195135E+02  0.51100000000E-03 0.  1.
        -11    1    3    3    0    0  0.15495588595E+01  0.78489268444E+01 -0.42372902472E+01  0.90532543413E+01  0.51100000000E-03 0. -1.
        -12    1    3    3    0    0  0.73172147990E+01  0.28234408987E+01 -0.27807440939E+01  0.83214174657E+01  0.00000000000E+00 0.  1.
</event>
<event>
 7    1  0.2903212E-011  0.5052887E+02  0.7816164E-02  0.1300439E+00
        -11   -1    0    0    0    0  0.00000000000E+00  0.00000000000E+00  0.45593999997E+02  0.45594000000E+02  0.51100000000E-03 0.  1.
         11   -1    0    0    0    0 -0.00000000000E+00 -0.00000000000E+00 -0.45593999997E+02  0.45594000000E+02  0.51100000000E-03 0. -1.
    9900012    2    1    2    0    0 -0.31572589494E+02 -0.24609468668E+02 -0.71211327358E+01  0.50528869575E+02  0.30000029560E+02 0.  0.
        -12    1    1    2    0    0  0.31572589494E+02  0.24609468668E+02  0.71211327358E+01  0.40659130425E+02  0.00000000000E+00 0.  1.
         11    1    3    3    0    0 -0.18852846338E+02 -0.18672590784E+02 -0.42233308829E+01  0.26868792040E+02  0.51100000000E-03 0. -1.
        -11    1    3    3    0    0 -0.14097327315E+02 -0.42776576043E+01  0.49343606001E+01  0.15536438034E+02  0.51100000000E-03 0.  1.
         12    1    3    3    0    0  0.13775841594E+01 -0.16592202794E+01 -0.78321624530E+01  0.81236395010E+01  0.00000000000E+00 0. -1.
</event>
<event>
 7    1  0.2903212E-011  0.5052887E+02  0.7816164E-02  0.1300439E+00
        -11   -1    0    0    0    0  0.00000000000E+00  0.00000000000E+00  0.45593999997E+02  0.45594000000E+02  0.51100000000E-03 0.  1.
         11   -1    0    0    0    0 -0.00000000000E+00 -0.00000000000E+00 -0.45593999997E+02  0.45594000000E+02  0.51100000000E-03 0. -1.
    9900012    2    1    2    0    0 -0.12142150851E+02 -0.33651968179E+02 -0.19320415508E+02  0.50528865171E+02  0.30000016175E+02 0.  0.
        -12    1    1    2    0    0  0.12142150851E+02  0.33651968179E+02  0.19320415508E+02  0.40659134829E+02  0.00000000000E+00 0.  1.
         11    1    3    3    0    0  0.36875984564E+01  0.10089874552E+01 -0.22521818131E+01  0.44372019608E+01  0.51100000000E-03 0. -1.
        -11    1    3    3    0    0 -0.98295468420E+01 -0.21566735267E+02 -0.20441360130E+02  0.31298454681E+02  0.51100000000E-03 0.  1.
         12    1    3    3    0    0 -0.60002024658E+01 -0.13094220367E+02  0.33731264349E+01  0.14793208529E+02  0.00000000000E+00 0. -1.
</event>
<event>
 7    1  0.2903212E-011  0.5052888E+02  0.7816164E-02  0.1300439E+00
        -11   -1    0    0    0    0  0.00000000000E+00  0.00000000000E+00  0.45593999997E+02  0.45594000000E+02  0.51100000000E-03 0.  1.
         11   -1    0    0    0    0 -0.00000000000E+00 -0.00000000000E+00 -0.45593999997E+02  0.45594000000E+02  0.51100000000E-03 0. -1.
    9900012    2    1    2    0    0 -0.21071013371E+02  0.18115500208E+02 -0.29681728366E+02  0.50528881083E+02  0.30000064541E+02 0.  0.
        -12    1    1    2    0    0  0.21071013371E+02 -0.18115500208E+02  0.29681728366E+02  0.40659118917E+02  0.00000000000E+00 0.  1.
         11    1    3    3    0    0 -0.14161169277E+02  0.12949257793E+02 -0.46123430623E+01  0.19735645454E+02  0.51100000000E-03 0. -1.
        -11    1    3    3    0    0 -0.13537979857E+01  0.84108747206E+01 -0.53715136435E+01  0.10071183726E+02  0.51100000000E-03 0.  1.
        -12    1    3    3    0    0 -0.55560461082E+01 -0.32446323056E+01 -0.19697871660E+02  0.20722051904E+02  0.00000000000E+00 0.  1.
</event>
<event>
 7    1  0.2903212E-011  0.5052886E+02  0.7816164E-02  0.1300439E+00
        -11   -1    0    0    0    0  0.00000000000E+00  0.00000000000E+00  0.45593999997E+02  0.45594000000E+02  0.51100000000E-03 0. -1.
         11   -1    0    0    0    0 -0.00000000000E+00 -0.00000000000E+00 -0.45593999997E+02  0.45594000000E+02  0.51100000000E-03 0.  1.
    9900012    2    1    2    0    0  0.24669681846E+02  0.21483978772E+02  0.24145618453E+02  0.50528862813E+02  0.30000009007E+02 0.  0.
        -12    1    1    2    0    0 -0.24669681846E+02 -0.21483978772E+02 -0.24145618453E+02  0.40659137187E+02  0.00000000000E+00 0.  1.
         11    1    3    3    0    0  0.18744922981E+02  0.86202482533E+01  0.13772285945E+02  0.24806383814E+02  0.51100000000E-03 0. -1.
        -11    1    3    3    0    0  0.71558139212E+01  0.15307982049E+02  0.21238399147E+01  0.17030874421E+02  0.51100000000E-03 0.  1.
        -12    1    3    3    0    0 -0.12310550563E+01 -0.24442515301E+01  0.82494925942E+01  0.86916045789E+01  0.00000000000E+00 0.  1.
</event>
<event>
 7    1  0.2903212E-011  0.5052887E+02  0.7816164E-02  0.1300439E+00
        -11   -1    0    0    0    0  0.00000000000E+00  0.00000000000E+00  0.45593999997E+02  0.45594000000E+02  0.51100000000E-03 0.  1.
         11   -1    0    0    0    0 -0.00000000000E+00 -0.00000000000E+00 -0.45593999997E+02  0.45594000000E+02  0.51100000000E-03 0. -1.
    9900012    2    1    2    0    0  0.48386457479E+01  0.69274282682E+01 -0.39771389333E+02  0.50528866161E+02  0.30000019182E+02 0.  0.
        -12    1    1    2    0    0 -0.48386457479E+01 -0.69274282682E+01  0.39771389333E+02  0.40659133839E+02  0.00000000000E+00 0.  1.
         11    1    3    3    0    0 -0.35195485901E+01  0.34526139150E+01 -0.32499902141E+02  0.32871741733E+02  0.51100000000E-03 0. -1.
        -11    1    3    3    0    0  0.44875175760E+01  0.65278584198E+01 -0.93954364499E+01  0.12289221940E+02  0.51100000000E-03 0.  1.
        -12    1    3    3    0    0  0.38706767620E+01 -0.30530440666E+01  0.21239492579E+01  0.53679024878E+01  0.00000000000E+00 0.  1.
</event>
<event>
 7    1  0.2903212E-011  0.5052886E+02  0.7816164E-02  0.1300439E+00
        -11   -1    0    0    0    0  0.00000000000E+00  0.00000000000E+00  0.45593999997E+02  0.45594000000E+02  0.51100000000E-03 0. -1.
         11   -1    0    0    0    0 -0.00000000000E+00 -0.00000000000E+00 -0.45593999997E+02  0.45594000000E+02  0.51100000000E-03 0.  1.
    9900012    2    1    2    0    0  0.33275897361E+02  0.12762656857E+02  0.19570259797E+02  0.50528858054E+02  0.29999994541E+02 0.  0.
        -12    1    1    2    0    0 -0.33275897361E+02 -0.12762656857E+02 -0.19570259797E+02  0.40659141946E+02  0.00000000000E+00 0.  1.
         11    1    3    3    0    0  0.69323370005E+01 -0.50985002572E+01  0.17865227313E-01  0.86053658022E+01  0.51100000000E-03 0. -1.
        -11    1    3    3    0    0  0.10212739254E+02  0.44018597100E+00 -0.13249354837E+01  0.10307728220E+02  0.51100000000E-03 0.  1.
        -12    1    3    3    0    0  0.16130821107E+02  0.17420971143E+02  0.20877330054E+02  0.31615764032E+02  0.00000000000E+00 0.  1.
</event>
<event>
 7    1  0.2903212E-011  0.5052885E+02  0.7816164E-02  0.1300439E+00
        -11   -1    0    0    0    0  0.00000000000E+00  0.00000000000E+00  0.45593999997E+02  0.45594000000E+02  0.51100000000E-03 0. -1.
         11   -1    0    0    0    0 -0.00000000000E+00 -0.00000000000E+00 -0.45593999997E+02  0.45594000000E+02  0.51100000000E-03 0.  1.
    9900012    2    1    2    0    0 -0.35842650729E+02 -0.45888627950E+01  0.18639018396E+02  0.50528852447E+02  0.29999977496E+02 0.  0.
        -12    1    1    2    0    0  0.35842650729E+02  0.45888627950E+01 -0.18639018396E+02  0.40659147553E+02  0.00000000000E+00 0.  1.
         11    1    3    3    0    0 -0.85429106917E+01 -0.84284523393E+01  0.51458201679E+01  0.13057549440E+02  0.51100000000E-03 0.  1.
        -11    1    3    3    0    0 -0.16231975274E+02 -0.53127277300E+01  0.15383142238E+02  0.22985716491E+02  0.51100000000E-03 0. -1.
        -12    1    3    3    0    0 -0.11067764763E+02  0.91523172743E+01 -0.18899440096E+01  0.14485586516E+02  0.00000000000E+00 0.  1.
</event>
<event>
 7    1  0.2903212E-011  0.5052886E+02  0.7816164E-02  0.1300439E+00
        -11   -1    0    0    0    0  0.00000000000E+00  0.00000000000E+00  0.45593999997E+02  0.45594000000E+02  0.51100000000E-03 0.  1.
         11   -1    0    0    0    0 -0.00000000000E+00 -0.00000000000E+00 -0.45593999997E+02  0.45594000000E+02  0.51100000000E-03 0. -1.
    9900012    2    1    2    0    0  0.38986687806E+01 -0.27811055938E+02 -0.29402570528E+02  0.50528860753E+02  0.30000002745E+02 0.  0.
        -12    1    1    2    0    0 -0.38986687806E+01  0.27811055938E+02  0.29402570528E+02  0.40659139247E+02  0.00000000000E+00 0.  1.
         11    1    3    3    0    0  0.28947473527E+01  0.59390816277E+01 -0.38571548755E+01  0.76504834365E+01  0.51100000000E-03 0. -1.
        -11    1    3    3    0    0  0.22368407147E+01 -0.34421112975E+01 -0.30452577779E+01  0.51112798556E+01  0.51100000000E-03 0.  1.
         12    1    3    3    0    0 -0.12329192867E+01 -0.30308026269E+02 -0.22500157874E+02  0.37767097461E+02  0.00000000000E+00 0. -1.
</event>
<event>
 7    1  0.2903212E-011  0.5052886E+02  0.7816164E-02  0.1300439E+00
        -11   -1    0    0    0    0  0.00000000000E+00  0.00000000000E+00  0.45593999997E+02  0.45594000000E+02  0.51100000000E-03 0. -1.
         11   -1    0    0    0    0 -0.00000000000E+00 -0.00000000000E+00 -0.45593999997E+02  0.45594000000E+02  0.51100000000E-03 0.  1.
    9900012    2    1    2    0    0  0.10100005605E+01 -0.75780517725E+01  0.39933929178E+02  0.50528859953E+02  0.30000000312E+02 0.  0.
        -12    1    1    2    0    0 -0.10100005605E+01  0.75780517725E+01 -0.39933929178E+02  0.40659140047E+02  0.00000000000E+00 0.  1.
         11    1    3    3    0    0  0.41266893707E+01 -0.62808669254E+01  0.24058447890E+02  0.25204915584E+02  0.51100000000E-03 0. -1.
        -11    1    3    3    0    0  0.71269428556E+01 -0.33249310205E+01  0.11656671582E+02  0.14061524575E+02  0.51100000000E-03 0.  1.
        -12    1    3    3    0    0 -0.10243631666E+02  0.20277461733E+01  0.42188097067E+01  0.11262419793E+02  0.00000000000E+00 0.  1.
</event>
<event>
 7    1  0.2903212E-011  0.5052887E+02  0.7816164E-02  0.1300439E+00
        -11   -1    0    0    0    0  0.00000000000E+00  0.00000000000E+00  0.45593999997E+02  0.45594000000E+02  0.51100000000E-03 0.  1.
         11   -1    0    0    0    0 -0.00000000000E+00 -0.00000000000E+00 -0.45593999997E+02  0.45594000000E+02  0.51100000000E-03 0. -1.
    9900012    2    1    2    0    0  0.43468349987E+01 -0.19961832539E+02 -0.35153881559E+02  0.50528866691E+02  0.30000020793E+02 0.  0.
        -12    1    1    2    0    0 -0.43468349987E+01  0.19961832539E+02  0.35153881559E+02  0.40659133309E+02  0.00000000000E+00 0.  1.
         11    1    3    3    0    0  0.22228090018E+01 -0.11965295433E+02 -0.18425666217E+01  0.12308705321E+02  0.51100000000E-03 0.  1.
        -11    1    3    3    0    0  0.55144654852E+01 -0.81224631198E+01 -0.79495322145E+01  0.12632450254E+02  0.51100000000E-03 0. -1.
         12    1    3    3    0    0 -0.33904394883E+01  0.12592601427E+00 -0.25361782723E+02  0.25587711116E+02  0.00000000000E+00 0. -1.
</event>
<event>
 7    1  0.2903212E-011  0.5052884E+02  0.7816164E-02  0.1300439E+00
        -11   -1    0    0    0    0  0.00000000000E+00  0.00000000000E+00  0.45593999997E+02  0.45594000000E+02  0.51100000000E-03 0. -1.
         11   -1    0    0    0    0 -0.00000000000E+00 -0.00000000000E+00 -0.45593999997E+02  0.45594000000E+02  0.51100000000E-03 0.  1.
    9900012    2    1    2    0    0  0.87548916228E+01  0.39391726378E+02  0.49810700387E+01  0.50528839985E+02  0.29999939619E+02 0.  0.
        -12    1    1    2    0    0 -0.87548916228E+01 -0.39391726378E+02 -0.49810700387E+01  0.40659160015E+02  0.00000000000E+00 0.  1.
         11    1    3    3    0    0  0.50304331913E+01 -0.13924380513E+01 -0.21709243078E+01  0.56530570871E+01  0.51100000000E-03 0. -1.
        -11    1    3    3    0    0  0.54562154899E+01  0.64712838070E+01 -0.31125821805E+01  0.90186456674E+01  0.51100000000E-03 0.  1.
         12    1    3    3    0    0 -0.17317570585E+01  0.34312880622E+02  0.10264576527E+02  0.35857137231E+02  0.00000000000E+00 0. -1.
</event>
<event>
 7    1  0.2903212E-011  0.5052886E+02  0.7816164E-02  0.1300439E+00
        -11   -1    0    0    0    0  0.00000000000E+00  0.00000000000E+00  0.45593999997E+02  0.45594000000E+02  0.51100000000E-03 0. -1.
         11   -1    0    0    0    0 -0.00000000000E+00 -0.00000000000E+00 -0.45593999997E+02  0.45594000000E+02  0.51100000000E-03 0.  1.
    9900012    2    1    2    0    0  0.14309697640E+02  0.27127751844E+02  0.26692383835E+02  0.50528859313E+02  0.29999998366E+02 0.  0.
        -12    1    1    2    0    0 -0.14309697640E+02 -0.27127751844E+02 -0.26692383835E+02  0.40659140687E+02  0.00000000000E+00 0.  1.
         11    1    3    3    0    0  0.10164286891E+02  0.76498965669E+01 -0.29652541211E+01  0.13062403215E+02  0.51100000000E-03 0. -1.
        -11    1    3    3    0    0 -0.17865153514E+01  0.22319986519E+01  0.25930991628E+00  0.28706614180E+01  0.51100000000E-03 0.  1.
         12    1    3    3    0    0  0.59319261007E+01  0.17245856625E+02  0.29398328039E+02  0.34595794680E+02  0.00000000000E+00 0. -1.
</event>
<event>
 7    1  0.2903212E-011  0.5052886E+02  0.7816164E-02  0.1300439E+00
        -11   -1    0    0    0    0  0.00000000000E+00  0.00000000000E+00  0.45593999997E+02  0.45594000000E+02  0.51100000000E-03 0. -1.
         11   -1    0    0    0    0 -0.00000000000E+00 -0.00000000000E+00 -0.45593999997E+02  0.45594000000E+02  0.51100000000E-03 0.  1.
    9900012    2    1    2    0    0 -0.17911505789E+02  0.94718804335E+01  0.35250913835E+02  0.50528862223E+02  0.30000007212E+02 0.  0.
        -12    1    1    2    0    0  0.17911505789E+02 -0.94718804335E+01 -0.35250913835E+02  0.40659137777E+02  0.00000000000E+00 0.  1.
         11    1    3    3    0    0  0.20554672199E+01  0.36505999783E+01 -0.22102740134E+01  0.47367855312E+01  0.51100000000E-03 0. -1.
        -11    1    3    3    0    0 -0.54177429730E+01 -0.47694476277E+01  0.53587284996E+01  0.89897464363E+01  0.51100000000E-03 0.  1.
         12    1    3    3    0    0 -0.14549230035E+02  0.10590728083E+02  0.32102459349E+02  0.36802330255E+02  0.00000000000E+00 0. -1.
</event>
<event>
 7    1  0.2903212E-011  0.5052885E+02  0.7816164E-02  0.1300439E+00
        -11   -1    0    0    0    0  0.00000000000E+00  0.00000000000E+00  0.45593999997E+02  0.45594000000E+02  0.51100000000E-03 0. -1.
         11   -1    0    0    0    0 -0.00000000000E+00 -0.00000000000E+00 -0.45593999997E+02  0.45594000000E+02  0.51100000000E-03 0.  1.
    9900012    2    1    2    0    0 -0.17926816656E+01 -0.30726147489E+02 -0.26567956049E+02  0.50528854218E+02  0.29999982882E+02 0.  0.
        -12    1    1    2    0    0  0.17926816656E+01  0.30726147489E+02  0.26567956049E+02  0.40659145782E+02  0.00000000000E+00 0.  1.
         11    1    3    3    0    0 -0.47852719392E+01 -0.23724671131E+02 -0.28639698469E+02  0.37496548861E+02  0.51100000000E-03 0. -1.
        -11    1    3    3    0    0 -0.19742464762E+01  0.22999173619E+00 -0.24563321805E+01  0.31597647681E+01  0.51100000000E-03 0.  1.
         12    1    3    3    0    0  0.49668367498E+01 -0.72314680944E+01  0.45280746009E+01  0.98725405895E+01  0.00000000000E+00 0. -1.
</event>
<event>
 7    1  0.2903212E-011  0.5052886E+02  0.7816164E-02  0.1300439E+00
        -11   -1    0    0    0    0  0.00000000000E+00  0.00000000000E+00  0.45593999997E+02  0.45594000000E+02  0.51100000000E-03 0. -1.
         11   -1    0    0    0    0 -0.00000000000E+00 -0.00000000000E+00 -0.45593999997E+02  0.45594000000E+02  0.51100000000E-03 0.  1.
    9900012    2    1    2    0    0 -0.64019591611E+01 -0.10801910704E+02  0.38671683534E+02  0.50528862487E+02  0.30000008015E+02 0.  0.
        -12    1    1    2    0    0  0.64019591611E+01  0.10801910704E+02 -0.38671683534E+02  0.40659137513E+02  0.00000000000E+00 0.  1.
         11    1    3    3    0    0 -0.65386469759E+01 -0.72366006978E+01  0.10982933631E+02  0.14688332967E+02  0.51100000000E-03 0. -1.
        -11    1    3    3    0    0 -0.80480651997E+01 -0.96445720693E+01  0.15307342367E+02  0.19801612421E+02  0.51100000000E-03 0.  1.
         12    1    3    3    0    0  0.81847530145E+01  0.60792620633E+01  0.12381407536E+02  0.16038917099E+02  0.00000000000E+00 0. -1.
</event>
<event>
 7    1  0.2903212E-011  0.5052886E+02  0.7816164E-02  0.1300439E+00
        -11   -1    0    0    0    0  0.00000000000E+00  0.00000000000E+00  0.45593999997E+02  0.45594000000E+02  0.51100000000E-03 0. -1.
         11   -1    0    0    0    0 -0.00000000000E+00 -0.00000000000E+00 -0.45593999997E+02  0.45594000000E+02  0.51100000000E-03 0.  1.
    9900012    2    1    2    0    0 -0.16099302441E+02 -0.20126521389E+02  0.31446801244E+02  0.50528859444E+02  0.29999998765E+02 0.  0.
        -12    1    1    2    0    0  0.16099302441E+02  0.20126521389E+02 -0.31446801244E+02  0.40659140556E+02  0.00000000000E+00 0.  1.
         11    1    3    3    0    0 -0.71798703852E+01  0.13589065977E+01 -0.49963048414E+00  0.73243973657E+01  0.51100000000E-03 0. -1.
        -11    1    3    3    0    0 -0.78852063620E+01 -0.10810747282E+01  0.50406086945E+01  0.94208777835E+01  0.51100000000E-03 0.  1.
        -12    1    3    3    0    0 -0.10342256934E+01 -0.20404353258E+02  0.26905823034E+02  0.33783584295E+02  0.00000000000E+00 0.  1.
</event>
<event>
 7    1  0.2903212E-011  0.5052886E+02  0.7816164E-02  0.1300439E+00
        -11   -1    0    0    0    0  0.00000000000E+00  0.00000000000E+00  0.45593999997E+02  0.45594000000E+02  0.51100000000E-03 0. -1.
         11   -1    0    0    0    0 -0.00000000000E+00 -0.00000000000E+00 -0.45593999997E+02  0.45594000000E+02  0.51100000000E-03 0.  1.
    9900012    2    1    2    0    0  0.33966305622E+02 -0.10544933206E+02  0.19704318779E+02  0.50528859423E+02  0.29999998701E+02 0.  0.
        -12    1    1    2    0    0 -0.33966305622E+02  0.10544933206E+02 -0.19704318779E+02  0.40659140577E+02  0.00000000000E+00 0.  1.
         11    1    3    3    0    0  0.17080781237E+02 -0.12014368400E+02  0.12370136550E+02  0.24271761663E+02  0.51100000000E-03 0.  1.
        -11    1    3    3    0    0  0.16323520596E+02 -0.47361842387E+01  0.97260571290E+01  0.19582771850E+02  0.51100000000E-03 0. -1.
        -12    1    3    3    0    0  0.56200378988E+00  0.62056194334E+01 -0.23918748996E+01  0.66743259096E+01  0.00000000000E+00 0.  1.
</event>
<event>
 7    1  0.2903212E-011  0.5052885E+02  0.7816164E-02  0.1300439E+00
        -11   -1    0    0    0    0  0.00000000000E+00  0.00000000000E+00  0.45593999997E+02  0.45594000000E+02  0.51100000000E-03 0. -1.
         11   -1    0    0    0    0 -0.00000000000E+00 -0.00000000000E+00 -0.45593999997E+02  0.45594000000E+02  0.51100000000E-03 0.  1.
    9900012    2    1    2    0    0  0.33673200859E+02  0.14345357669E+02  0.17705721726E+02  0.50528851895E+02  0.29999975821E+02 0.  0.
        -12    1    1    2    0    0 -0.33673200859E+02 -0.14345357669E+02 -0.17705721726E+02  0.40659148105E+02  0.00000000000E+00 0.  1.
         11    1    3    3    0    0  0.22958636931E+01  0.90999827084E+00  0.13301912624E+01  0.28050839571E+01  0.51100000000E-03 0. -1.
        -11    1    3    3    0    0  0.21251782198E+01  0.79575643625E+01  0.15960297277E+02  0.17960242272E+02  0.51100000000E-03 0.  1.
        -12    1    3    3    0    0  0.29252158946E+02  0.54777950357E+01  0.41523318706E+00  0.29763525666E+02  0.00000000000E+00 0.  1.
</event>
<event>
 7    1  0.2903212E-011  0.5052886E+02  0.7816164E-02  0.1300439E+00
        -11   -1    0    0    0    0  0.00000000000E+00  0.00000000000E+00  0.45593999997E+02  0.45594000000E+02  0.51100000000E-03 0.  1.
         11   -1    0    0    0    0 -0.00000000000E+00 -0.00000000000E+00 -0.45593999997E+02  0.45594000000E+02  0.51100000000E-03 0. -1.
    9900012    2    1    2    0    0 -0.20371185832E+02 -0.34638271179E+02 -0.61944021117E+01  0.50528860068E+02  0.30000000664E+02 0.  0.
        -12    1    1    2    0    0  0.20371185832E+02  0.34638271179E+02  0.61944021117E+01  0.40659139932E+02  0.00000000000E+00 0.  1.
         11    1    3    3    0    0 -0.59822530116E+01 -0.52892687957E+01  0.39116473086E+01  0.88918333552E+01  0.51100000000E-03 0. -1.
        -11    1    3    3    0    0 -0.16147937497E-01  0.36423957708E+01  0.13295413496E+01  0.38774976684E+01  0.51100000000E-03 0.  1.
         12    1    3    3    0    0 -0.14372784883E+02 -0.32991398154E+02 -0.11435590770E+02  0.37759529045E+02  0.00000000000E+00 0. -1.
</event>
<event>
 7    1  0.2903212E-011  0.5052886E+02  0.7816164E-02  0.1300439E+00
        -11   -1    0    0    0    0  0.00000000000E+00  0.00000000000E+00  0.45593999997E+02  0.45594000000E+02  0.51100000000E-03 0. -1.
         11   -1    0    0    0    0 -0.00000000000E+00 -0.00000000000E+00 -0.45593999997E+02  0.45594000000E+02  0.51100000000E-03 0.  1.
    9900012    2    1    2    0    0 -0.33979145477E+02 -0.17710589305E+02 -0.13598482302E+02  0.50528855619E+02  0.29999987138E+02 0.  0.
        -12    1    1    2    0    0  0.33979145477E+02  0.17710589305E+02  0.13598482302E+02  0.40659144381E+02  0.00000000000E+00 0.  1.
         11    1    3    3    0    0 -0.29556377983E+02 -0.40531419349E+01 -0.10716379385E+02  0.31699341103E+02  0.51100000000E-03 0. -1.
        -11    1    3    3    0    0 -0.63257430697E+01 -0.12017869389E+02 -0.59816328789E+01  0.14839950883E+02  0.51100000000E-03 0.  1.
        -12    1    3    3    0    0  0.19029755751E+01 -0.16395779811E+01  0.30995299616E+01  0.39895636326E+01  0.00000000000E+00 0.  1.
</event>
<event>
 7    1  0.2903212E-011  0.5052876E+02  0.7816164E-02  0.1300439E+00
        -11   -1    0    0    0    0  0.00000000000E+00  0.00000000000E+00  0.45593999997E+02  0.45594000000E+02  0.51100000000E-03 0. -1.
         11   -1    0    0    0    0 -0.00000000000E+00 -0.00000000000E+00 -0.45593999997E+02  0.45594000000E+02  0.51100000000E-03 0.  1.
    9900012    2    1    2    0    0  0.31271076778E+02 -0.24072436058E+01  0.25874676396E+02  0.50528758206E+02  0.29999691041E+02 0.  0.
        -12    1    1    2    0    0 -0.31271076778E+02  0.24072436058E+01 -0.25874676396E+02  0.40659241794E+02  0.00000000000E+00 0.  1.
         11    1    3    3    0    0  0.14897883218E+02  0.71105031288E+01  0.21308444466E+00  0.16509136390E+02  0.51100000000E-03 0. -1.
        -11    1    3    3    0    0 -0.12247186889E+01 -0.14476848694E+01  0.27902557994E-01  0.18964456654E+01  0.51100000000E-03 0.  1.
         12    1    3    3    0    0  0.17597912249E+02 -0.80700618652E+01  0.25633689394E+02  0.32123176150E+02  0.00000000000E+00 0. -1.
</event>
<event>
 7    1  0.2903212E-011  0.5052886E+02  0.7816164E-02  0.1300439E+00
        -11   -1    0    0    0    0  0.00000000000E+00  0.00000000000E+00  0.45593999997E+02  0.45594000000E+02  0.51100000000E-03 0.  1.
         11   -1    0    0    0    0 -0.00000000000E+00 -0.00000000000E+00 -0.45593999997E+02  0.45594000000E+02  0.51100000000E-03 0. -1.
    9900012    2    1    2    0    0  0.40621563587E+02  0.15095379114E+01  0.88063667833E+00  0.50528860143E+02  0.30000000892E+02 0.  0.
        -12    1    1    2    0    0 -0.40621563587E+02 -0.15095379114E+01 -0.88063667833E+00  0.40659139857E+02  0.00000000000E+00 0.  1.
         11    1    3    3    0    0  0.24029787464E+02 -0.78676959084E+01 -0.31405248661E+01  0.25479290044E+02  0.51100000000E-03 0. -1.
        -11    1    3    3    0    0  0.98159477692E+01 -0.32568014500E+01  0.93079826099E+00  0.10383928542E+02  0.51100000000E-03 0.  1.
        -12    1    3    3    0    0  0.67758283537E+01  0.12634035270E+02  0.30903632834E+01  0.14665641558E+02  0.00000000000E+00 0.  1.
</event>
<event>
 7    1  0.2903212E-011  0.5052886E+02  0.7816164E-02  0.1300439E+00
        -11   -1    0    0    0    0  0.00000000000E+00  0.00000000000E+00  0.45593999997E+02  0.45594000000E+02  0.51100000000E-03 0.  1.
         11   -1    0    0    0    0 -0.00000000000E+00 -0.00000000000E+00 -0.45593999997E+02  0.45594000000E+02  0.51100000000E-03 0. -1.
    9900012    2    1    2    0    0  0.77166880091E+00  0.20182226516E+02 -0.35288065542E+02  0.50528864377E+02  0.30000013761E+02 0.  0.
        -12    1    1    2    0    0 -0.77166880091E+00 -0.20182226516E+02  0.35288065542E+02  0.40659135623E+02  0.00000000000E+00 0.  1.
         11    1    3    3    0    0  0.13387927030E+01  0.10468397976E+02 -0.94523044958E+01  0.14167772677E+02  0.51100000000E-03 0. -1.
        -11    1    3    3    0    0 -0.49975396782E+01  0.13188950136E+02 -0.52993573926E+01  0.15066751393E+02  0.51100000000E-03 0.  1.
        -12    1    3    3    0    0  0.44304157761E+01 -0.34751215963E+01 -0.20536403654E+02  0.21294340307E+02  0.00000000000E+00 0.  1.
</event>
<event>
 7    1  0.2903212E-011  0.5052895E+02  0.7816164E-02  0.1300438E+00
        -11   -1    0    0    0    0  0.00000000000E+00  0.00000000000E+00  0.45593999997E+02  0.45594000000E+02  0.51100000000E-03 0. -1.
         11   -1    0    0    0    0 -0.00000000000E+00 -0.00000000000E+00 -0.45593999997E+02  0.45594000000E+02  0.51100000000E-03 0.  1.
    9900012    2    1    2    0    0  0.46271325092E+01  0.40366946803E+02 -0.15025923292E+01  0.50528947709E+02  0.30000267056E+02 0.  0.
        -12    1    1    2    0    0 -0.46271325092E+01 -0.40366946803E+02  0.15025923292E+01  0.40659052291E+02  0.00000000000E+00 0.  1.
         11    1    3    3    0    0 -0.46613310928E+00  0.18322628626E+02 -0.39545736827E+01  0.18750324080E+02  0.51100000000E-03 0. -1.
        -11    1    3    3    0    0 -0.26815523812E+01  0.20131435363E+02 -0.49181561685E+01  0.20896259792E+02  0.51100000000E-03 0.  1.
        -12    1    3    3    0    0  0.77748179996E+01  0.19128828142E+01  0.73701375220E+01  0.10882363837E+02  0.00000000000E+00 0.  1.
</event>
<event>
 7    1  0.2903212E-011  0.5052886E+02  0.7816164E-02  0.1300439E+00
        -11   -1    0    0    0    0  0.00000000000E+00  0.00000000000E+00  0.45593999997E+02  0.45594000000E+02  0.51100000000E-03 0.  1.
         11   -1    0    0    0    0 -0.00000000000E+00 -0.00000000000E+00 -0.45593999997E+02  0.45594000000E+02  0.51100000000E-03 0. -1.
    9900012    2    1    2    0    0 -0.34053570814E+02 -0.14694174232E+02 -0.16661367912E+02  0.50528860532E+02  0.30000002074E+02 0.  0.
        -12    1    1    2    0    0  0.34053570814E+02  0.14694174232E+02  0.16661367912E+02  0.40659139468E+02  0.00000000000E+00 0.  1.
         11    1    3    3    0    0 -0.41885778504E+01 -0.56691166474E+01 -0.68700095765E+01  0.98427689099E+01  0.51100000000E-03 0. -1.
        -11    1    3    3    0    0  0.14586178433E+01 -0.73966247321E+01 -0.47685053587E+01  0.89205530690E+01  0.51100000000E-03 0.  1.
        -12    1    3    3    0    0 -0.31323610807E+02 -0.16284328521E+01 -0.50228529763E+01  0.31765538553E+02  0.00000000000E+00 0.  1.
</event>
<event>
 7    1  0.2903212E-011  0.5052884E+02  0.7816164E-02  0.1300439E+00
        -11   -1    0    0    0    0  0.00000000000E+00  0.00000000000E+00  0.45593999997E+02  0.45594000000E+02  0.51100000000E-03 0.  1.
         11   -1    0    0    0    0 -0.00000000000E+00 -0.00000000000E+00 -0.45593999997E+02  0.45594000000E+02  0.51100000000E-03 0. -1.
    9900012    2    1    2    0    0 -0.27931523194E+02 -0.23318845440E+02 -0.18144663524E+02  0.50528839224E+02  0.29999937305E+02 0.  0.
        -12    1    1    2    0    0  0.27931523194E+02  0.23318845440E+02  0.18144663524E+02  0.40659160776E+02  0.00000000000E+00 0.  1.
         11    1    3    3    0    0  0.37167209145E+01 -0.72729921343E+01 -0.30375475080E+01  0.87141909588E+01  0.51100000000E-03 0. -1.
        -11    1    3    3    0    0 -0.24915922564E+02 -0.86372487649E+01 -0.36852381522E+01  0.26626795601E+02  0.51100000000E-03 0.  1.
         12    1    3    3    0    0 -0.67323215438E+01 -0.74086045414E+01 -0.11421877864E+02  0.15187852665E+02  0.00000000000E+00 0. -1.
</event>
<event>
 7    1  0.2903212E-011  0.5052887E+02  0.7816164E-02  0.1300439E+00
        -11   -1    0    0    0    0  0.00000000000E+00  0.00000000000E+00  0.45593999997E+02  0.45594000000E+02  0.51100000000E-03 0.  1.
         11   -1    0    0    0    0 -0.00000000000E+00 -0.00000000000E+00 -0.45593999997E+02  0.45594000000E+02  0.51100000000E-03 0. -1.
    9900012    2    1    2    0    0 -0.30282181457E+01  0.15188031647E+02  0.37594128566E+02  0.50528869253E+02  0.30000028582E+02 0.  0.
        -12    1    1    2    0    0  0.30282181457E+01 -0.15188031647E+02 -0.37594128566E+02  0.40659130747E+02  0.00000000000E+00 0.  1.
         11    1    3    3    0    0  0.53312499319E+01  0.67089017543E+00  0.11903798853E+02  0.13060350181E+02  0.51100000000E-03 0. -1.
        -11    1    3    3    0    0 -0.74833468854E+01 -0.23906923338E+01  0.15892435871E+01  0.80150848955E+01  0.51100000000E-03 0.  1.
         12    1    3    3    0    0 -0.87612119217E+00  0.16907833805E+02  0.24101086126E+02  0.29453434176E+02  0.00000000000E+00 0. -1.
</event>
<event>
 7    1  0.2903212E-011  0.5052887E+02  0.7816164E-02  0.1300439E+00
        -11   -1    0    0    0    0  0.00000000000E+00  0.00000000000E+00  0.45593999997E+02  0.45594000000E+02  0.51100000000E-03 0.  1.
         11   -1    0    0    0    0 -0.00000000000E+00 -0.00000000000E+00 -0.45593999997E+02  0.45594000000E+02  0.51100000000E-03 0. -1.
    9900012    2    1    2    0    0  0.26200013179E+02 -0.89601584246E+01 -0.29773138394E+02  0.50528869421E+02  0.30000029092E+02 0.  0.
        -12    1    1    2    0    0 -0.26200013179E+02  0.89601584246E+01  0.29773138394E+02  0.40659130579E+02  0.00000000000E+00 0.  1.
         11    1    3    3    0    0  0.64152092641E+01 -0.11073298243E+01 -0.21306479911E+02  0.22278850413E+02  0.51100000000E-03 0. -1.
        -11    1    3    3    0    0 -0.17815631790E+01  0.24016531351E+01 -0.27075055094E+00  0.30025341404E+01  0.51100000000E-03 0.  1.
         12    1    3    3    0    0  0.21566367094E+02 -0.10254481735E+02 -0.81959079319E+01  0.25247484868E+02  0.00000000000E+00 0. -1.
</event>
<event>
 7    1  0.2903212E-011  0.5052887E+02  0.7816164E-02  0.1300439E+00
        -11   -1    0    0    0    0  0.00000000000E+00  0.00000000000E+00  0.45593999997E+02  0.45594000000E+02  0.51100000000E-03 0. -1.
         11   -1    0    0    0    0 -0.00000000000E+00 -0.00000000000E+00 -0.45593999997E+02  0.45594000000E+02  0.51100000000E-03 0.  1.
    9900012    2    1    2    0    0 -0.20443305602E+02  0.33143566549E+02  0.11693608219E+02  0.50528865470E+02  0.30000017083E+02 0.  0.
        -12    1    1    2    0    0  0.20443305602E+02 -0.33143566549E+02 -0.11693608219E+02  0.40659134530E+02  0.00000000000E+00 0.  1.
         11    1    3    3    0    0 -0.10924522179E+02  0.28593960057E+02  0.34662236010E+01  0.30805428790E+02  0.51100000000E-03 0. -1.
        -11    1    3    3    0    0 -0.57587570229E+01 -0.11359117535E+01 -0.29976545294E+01  0.65908657170E+01  0.51100000000E-03 0.  1.
        -12    1    3    3    0    0 -0.37600264007E+01  0.56855182448E+01  0.11225039148E+02  0.13132570964E+02  0.00000000000E+00 0.  1.
</event>
<event>
 7    1  0.2903212E-011  0.5052886E+02  0.7816164E-02  0.1300439E+00
        -11   -1    0    0    0    0  0.00000000000E+00  0.00000000000E+00  0.45593999997E+02  0.45594000000E+02  0.51100000000E-03 0.  1.
         11   -1    0    0    0    0 -0.00000000000E+00 -0.00000000000E+00 -0.45593999997E+02  0.45594000000E+02  0.51100000000E-03 0. -1.
    9900012    2    1    2    0    0  0.29582155069E+02  0.93269417673E+01 -0.26288207229E+02  0.50528861045E+02  0.30000003633E+02 0.  0.
        -12    1    1    2    0    0 -0.29582155069E+02 -0.93269417673E+01  0.26288207229E+02  0.40659138955E+02  0.00000000000E+00 0.  1.
         11    1    3    3    0    0 -0.28673696097E+01 -0.18906733470E+01 -0.23208090843E+01  0.41451910994E+01  0.51100000000E-03 0. -1.
        -11    1    3    3    0    0  0.29312985558E+01 -0.52137837045E+00 -0.12118711303E+02  0.12479082921E+02  0.51100000000E-03 0.  1.
        -12    1    3    3    0    0  0.29518226123E+02  0.11738993485E+02 -0.11848686841E+02  0.33904587025E+02  0.00000000000E+00 0.  1.
</event>
<event>
 7    1  0.2903212E-011  0.5052888E+02  0.7816164E-02  0.1300439E+00
        -11   -1    0    0    0    0  0.00000000000E+00  0.00000000000E+00  0.45593999997E+02  0.45594000000E+02  0.51100000000E-03 0.  1.
         11   -1    0    0    0    0 -0.00000000000E+00 -0.00000000000E+00 -0.45593999997E+02  0.45594000000E+02  0.51100000000E-03 0. -1.
    9900012    2    1    2    0    0  0.16614860462E+02  0.35924376481E+02 -0.93032182948E+01  0.50528876985E+02  0.30000052084E+02 0.  0.
        -12    1    1    2    0    0 -0.16614860462E+02 -0.35924376481E+02  0.93032182948E+01  0.40659123015E+02  0.00000000000E+00 0.  1.
         11    1    3    3    0    0  0.88527127251E+01  0.19319651786E+02  0.23832909412E+01  0.21384563210E+02  0.51100000000E-03 0. -1.
        -11    1    3    3    0    0  0.25025561130E+00 -0.24288891950E+01 -0.79848669258E+01  0.83498641112E+01  0.51100000000E-03 0.  1.
         12    1    3    3    0    0  0.75118921258E+01  0.19033613890E+02 -0.37016423102E+01  0.20794449664E+02  0.00000000000E+00 0. -1.
</event>
<event>
 7    1  0.2903212E-011  0.5052887E+02  0.7816164E-02  0.1300439E+00
        -11   -1    0    0    0    0  0.00000000000E+00  0.00000000000E+00  0.45593999997E+02  0.45594000000E+02  0.51100000000E-03 0. -1.
         11   -1    0    0    0    0 -0.00000000000E+00 -0.00000000000E+00 -0.45593999997E+02  0.45594000000E+02  0.51100000000E-03 0.  1.
    9900012    2    1    2    0    0  0.39217411307E+02  0.19567545159E+00  0.10729472838E+02  0.50528865406E+02  0.30000016890E+02 0.  0.
        -12    1    1    2    0    0 -0.39217411307E+02 -0.19567545159E+00 -0.10729472838E+02  0.40659134594E+02  0.00000000000E+00 0.  1.
         11    1    3    3    0    0  0.15099890501E+02 -0.50863324761E+01 -0.48649548813E+01  0.16659689597E+02  0.51100000000E-03 0. -1.
        -11    1    3    3    0    0  0.21953958772E+02 -0.23388064758E+01  0.10476084744E+02  0.24437566845E+02  0.51100000000E-03 0.  1.
        -12    1    3    3    0    0  0.21635620341E+01  0.76208144035E+01  0.51183429755E+01  0.94316089647E+01  0.00000000000E+00 0.  1.
</event>
<event>
 7    1  0.2903212E-011  0.5052886E+02  0.7816164E-02  0.1300439E+00
        -11   -1    0    0    0    0  0.00000000000E+00  0.00000000000E+00  0.45593999997E+02  0.45594000000E+02  0.51100000000E-03 0. -1.
         11   -1    0    0    0    0 -0.00000000000E+00 -0.00000000000E+00 -0.45593999997E+02  0.45594000000E+02  0.51100000000E-03 0.  1.
    9900012    2    1    2    0    0  0.40371030695E+02 -0.48271676352E+01 -0.20932472071E+00  0.50528862237E+02  0.30000007255E+02 0.  0.
        -12    1    1    2    0    0 -0.40371030695E+02  0.48271676352E+01  0.20932472071E+00  0.40659137763E+02  0.00000000000E+00 0.  1.
         11    1    3    3    0    0  0.44939475991E+01  0.49583107935E+01  0.71553413646E+01  0.97969036564E+01  0.51100000000E-03 0. -1.
        -11    1    3    3    0    0 -0.12032954957E+00  0.21294585233E+01 -0.59537163423E+00  0.22143939231E+01  0.51100000000E-03 0.  1.
        -12    1    3    3    0    0  0.35997412646E+02 -0.11914936952E+02 -0.67692944511E+01  0.38517564657E+02  0.00000000000E+00 0.  1.
</event>
<event>
 7    1  0.2903212E-011  0.5052887E+02  0.7816164E-02  0.1300439E+00
        -11   -1    0    0    0    0  0.00000000000E+00  0.00000000000E+00  0.45593999997E+02  0.45594000000E+02  0.51100000000E-03 0. -1.
         11   -1    0    0    0    0 -0.00000000000E+00 -0.00000000000E+00 -0.45593999997E+02  0.45594000000E+02  0.51100000000E-03 0.  1.
    9900012    2    1    2    0    0  0.16077699312E+02  0.82381984717E+00  0.37336229795E+02  0.50528866345E+02  0.30000019741E+02 0.  0.
        -12    1    1    2    0    0 -0.16077699312E+02 -0.82381984717E+00 -0.37336229795E+02  0.40659133655E+02  0.00000000000E+00 0.  1.
         11    1    3    3    0    0  0.16965541706E+02 -0.37653001338E+00  0.14952016532E+02  0.22617121366E+02  0.51100000000E-03 0. -1.
        -11    1    3    3    0    0 -0.66693914040E+00 -0.38092588377E+01 -0.10012392106E+01  0.39947141233E+01  0.51100000000E-03 0.  1.
        -12    1    3    3    0    0 -0.22090325391E+00  0.50096086982E+01  0.23385452474E+02  0.23917030856E+02  0.00000000000E+00 0.  1.
</event>
<event>
 7    1  0.2903212E-011  0.5052884E+02  0.7816164E-02  0.1300439E+00
        -11   -1    0    0    0    0  0.00000000000E+00  0.00000000000E+00  0.45593999997E+02  0.45594000000E+02  0.51100000000E-03 0. -1.
         11   -1    0    0    0    0 -0.00000000000E+00 -0.00000000000E+00 -0.45593999997E+02  0.45594000000E+02  0.51100000000E-03 0.  1.
    9900012    2    1    2    0    0 -0.33461545876E+02  0.16441196012E+02  0.16222811940E+02  0.50528836138E+02  0.29999927925E+02 0.  0.
        -12    1    1    2    0    0  0.33461545876E+02 -0.16441196012E+02 -0.16222811940E+02  0.40659163862E+02  0.00000000000E+00 0.  1.
         11    1    3    3    0    0 -0.16979903663E+02  0.98203514166E+01  0.12447643853E+02  0.23231449979E+02  0.51100000000E-03 0. -1.
        -11    1    3    3    0    0 -0.18233025131E+02 -0.83891067132E+00 -0.98109848847E+00  0.18278663273E+02  0.51100000000E-03 0.  1.
        -12    1    3    3    0    0  0.17513829181E+01  0.74597552665E+01  0.47562665753E+01  0.90187228861E+01  0.00000000000E+00 0.  1.
</event>
<event>
 7    1  0.2903212E-011  0.5052887E+02  0.7816164E-02  0.1300439E+00
        -11   -1    0    0    0    0  0.00000000000E+00  0.00000000000E+00  0.45593999997E+02  0.45594000000E+02  0.51100000000E-03 0.  1.
         11   -1    0    0    0    0 -0.00000000000E+00 -0.00000000000E+00 -0.45593999997E+02  0.45594000000E+02  0.51100000000E-03 0. -1.
    9900012    2    1    2    0    0  0.69541848441E+01 -0.27006067036E+02 -0.29588458193E+02  0.50528865703E+02  0.30000017790E+02 0.  0.
        -12    1    1    2    0    0 -0.69541848441E+01  0.27006067036E+02  0.29588458193E+02  0.40659134297E+02  0.00000000000E+00 0.  1.
         11    1    3    3    0    0 -0.10267415422E+02 -0.13225197968E+02 -0.14360633603E+02  0.22057957260E+02  0.51100000000E-03 0. -1.
        -11    1    3    3    0    0  0.62782042816E+01 -0.27993447733E+01 -0.19609391137E+00  0.68768185409E+01  0.51100000000E-03 0.  1.
        -12    1    3    3    0    0  0.10943395984E+02 -0.10981524294E+02 -0.15031730678E+02  0.21594089901E+02  0.00000000000E+00 0.  1.
</event>
<event>
 7    1  0.2903212E-011  0.5052885E+02  0.7816164E-02  0.1300439E+00
        -11   -1    0    0    0    0  0.00000000000E+00  0.00000000000E+00  0.45593999997E+02  0.45594000000E+02  0.51100000000E-03 0. -1.
         11   -1    0    0    0    0 -0.00000000000E+00 -0.00000000000E+00 -0.45593999997E+02  0.45594000000E+02  0.51100000000E-03 0.  1.
    9900012    2    1    2    0    0 -0.51343149886E+01 -0.28758154837E+02  0.28280269995E+02  0.50528851817E+02  0.29999975582E+02 0.  0.
        -12    1    1    2    0    0  0.51343149886E+01  0.28758154837E+02 -0.28280269995E+02  0.40659148183E+02  0.00000000000E+00 0.  1.
         11    1    3    3    0    0  0.59888134565E+01 -0.10591285360E+02  0.30239680207E+00  0.12170975979E+02  0.51100000000E-03 0. -1.
        -11    1    3    3    0    0 -0.49487907669E+01  0.18437542835E+01  0.50775746389E+01  0.73260988519E+01  0.51100000000E-03 0.  1.
         12    1    3    3    0    0 -0.61743376782E+01 -0.20010623760E+02  0.22900298554E+02  0.31031776986E+02  0.00000000000E+00 0. -1.
</event>
<event>
 7    1  0.2903212E-011  0.5052883E+02  0.7816164E-02  0.1300439E+00
        -11   -1    0    0    0    0  0.00000000000E+00  0.00000000000E+00  0.45593999997E+02  0.45594000000E+02  0.51100000000E-03 0.  1.
         11   -1    0    0    0    0 -0.00000000000E+00 -0.00000000000E+00 -0.45593999997E+02  0.45594000000E+02  0.51100000000E-03 0. -1.
    9900012    2    1    2    0    0 -0.13169958209E+02 -0.16300901912E+02 -0.34842509919E+02  0.50528834984E+02  0.29999924417E+02 0.  0.
        -12    1    1    2    0    0  0.13169958209E+02  0.16300901912E+02  0.34842509919E+02  0.40659165016E+02  0.00000000000E+00 0.  1.
         11    1    3    3    0    0 -0.40261441025E+01 -0.41602723809E+01 -0.29950631532E+01  0.65182901262E+01  0.51100000000E-03 0. -1.
        -11    1    3    3    0    0  0.68717653030E+01 -0.68817441242E+01 -0.23010427757E+01  0.99937159600E+01  0.51100000000E-03 0.  1.
         12    1    3    3    0    0 -0.16015579409E+02 -0.52588854070E+01 -0.29546403990E+02  0.34016828898E+02  0.00000000000E+00 0. -1.
</event>
<event>
 7    1  0.2903212E-011  0.5052883E+02  0.7816164E-02  0.1300439E+00
        -11   -1    0    0    0    0  0.00000000000E+00  0.00000000000E+00  0.45593999997E+02  0.45594000000E+02  0.51100000000E-03 0.  1.
         11   -1    0    0    0    0 -0.00000000000E+00 -0.00000000000E+00 -0.45593999997E+02  0.45594000000E+02  0.51100000000E-03 0. -1.
    9900012    2    1    2    0    0 -0.10907774669E+02  0.82184634324E+01 -0.38296804757E+02  0.50528831981E+02  0.29999915290E+02 0.  0.
        -12    1    1    2    0    0  0.10907774669E+02 -0.82184634324E+01  0.38296804757E+02  0.40659168019E+02  0.00000000000E+00 0.  1.
         11    1    3    3    0    0 -0.71537655776E+01  0.65781518797E+01 -0.32223443508E+02  0.33657075866E+02  0.51100000000E-03 0. -1.
        -11    1    3    3    0    0 -0.23677355099E+01  0.60808179492E+01 -0.91908851246E+01  0.11271862668E+02  0.51100000000E-03 0.  1.
        -12    1    3    3    0    0 -0.13862735811E+01 -0.44405063965E+01  0.31175238759E+01  0.55998934468E+01  0.00000000000E+00 0.  1.
</event>
<event>
 7    1  0.2903212E-011  0.5052884E+02  0.7816164E-02  0.1300439E+00
        -11   -1    0    0    0    0  0.00000000000E+00  0.00000000000E+00  0.45593999997E+02  0.45594000000E+02  0.51100000000E-03 0.  1.
         11   -1    0    0    0    0 -0.00000000000E+00 -0.00000000000E+00 -0.45593999997E+02  0.45594000000E+02  0.51100000000E-03 0. -1.
    9900012    2    1    2    0    0  0.46444650874E+00 -0.72287337926E+01 -0.40008708327E+02  0.50528843038E+02  0.29999948899E+02 0.  0.
        -12    1    1    2    0    0 -0.46444650874E+00  0.72287337926E+01  0.40008708327E+02  0.40659156962E+02  0.00000000000E+00 0.  1.
         11    1    3    3    0    0 -0.48466573062E+01 -0.38720691506E+01 -0.82214429622E+01  0.10299278188E+02  0.51100000000E-03 0. -1.
        -11    1    3    3    0    0 -0.69148296417E+01  0.55341081457E+01 -0.74201350791E+01  0.11554203858E+02  0.51100000000E-03 0.  1.
         12    1    3    3    0    0  0.12225933457E+02 -0.88907727877E+01 -0.24367130286E+02  0.28675360992E+02  0.00000000000E+00 0. -1.
</event>
<event>
 7    1  0.2903212E-011  0.5052886E+02  0.7816164E-02  0.1300439E+00
        -11   -1    0    0    0    0  0.00000000000E+00  0.00000000000E+00  0.45593999997E+02  0.45594000000E+02  0.51100000000E-03 0. -1.
         11   -1    0    0    0    0 -0.00000000000E+00 -0.00000000000E+00 -0.45593999997E+02  0.45594000000E+02  0.51100000000E-03 0.  1.
    9900012    2    1    2    0    0 -0.66885877361E+01 -0.36992468555E+02  0.15491465612E+02  0.50528862743E+02  0.30000008792E+02 0.  0.
        -12    1    1    2    0    0  0.66885877361E+01  0.36992468555E+02 -0.15491465612E+02  0.40659137257E+02  0.00000000000E+00 0.  1.
         11    1    3    3    0    0  0.76517028356E+01 -0.53696683503E+01 -0.37558532172E+01  0.10074141558E+02  0.51100000000E-03 0.  1.
        -11    1    3    3    0    0 -0.29545963154E+01 -0.25156681702E+01  0.27029833976E+00  0.38898955235E+01  0.51100000000E-03 0. -1.
         12    1    3    3    0    0 -0.11385694256E+02 -0.29107132035E+02  0.18977020489E+02  0.36564825661E+02  0.00000000000E+00 0. -1.
</event>
<event>
 7    1  0.2903212E-011  0.5052886E+02  0.7816164E-02  0.1300439E+00
        -11   -1    0    0    0    0  0.00000000000E+00  0.00000000000E+00  0.45593999997E+02  0.45594000000E+02  0.51100000000E-03 0.  1.
         11   -1    0    0    0    0 -0.00000000000E+00 -0.00000000000E+00 -0.45593999997E+02  0.45594000000E+02  0.51100000000E-03 0. -1.
    9900012    2    1    2    0    0 -0.47035479340E+01  0.81830668961E+01 -0.39548446644E+02  0.50528861065E+02  0.30000003693E+02 0.  0.
        -12    1    1    2    0    0  0.47035479340E+01 -0.81830668961E+01  0.39548446644E+02  0.40659138935E+02  0.00000000000E+00 0.  1.
         11    1    3    3    0    0 -0.54908650259E+00  0.81871144207E+01 -0.18901102767E+02  0.20605388242E+02  0.51100000000E-03 0. -1.
        -11    1    3    3    0    0 -0.43027009167E+01 -0.61085104143E+01 -0.22365116204E+02  0.23580194184E+02  0.51100000000E-03 0.  1.
         12    1    3    3    0    0  0.14823948535E+00  0.61044628897E+01  0.17177723279E+01  0.63432786386E+01  0.00000000000E+00 0. -1.
</event>
<event>
 7    1  0.2903212E-011  0.5052886E+02  0.7816164E-02  0.1300439E+00
        -11   -1    0    0    0    0  0.00000000000E+00  0.00000000000E+00  0.45593999997E+02  0.45594000000E+02  0.51100000000E-03 0.  1.
         11   -1    0    0    0    0 -0.00000000000E+00 -0.00000000000E+00 -0.45593999997E+02  0.45594000000E+02  0.51100000000E-03 0. -1.
    9900012    2    1    2    0    0 -0.36739076621E+00 -0.25083377424E+02 -0.31997729123E+02  0.50528862429E+02  0.30000007838E+02 0.  0.
        -12    1    1    2    0    0  0.36739076621E+00  0.25083377424E+02  0.31997729123E+02  0.40659137571E+02  0.00000000000E+00 0.  1.
         11    1    3    3    0    0  0.66075672289E+01 -0.25491709058E+01 -0.54508531560E+01  0.89370027068E+01  0.51100000000E-03 0.  1.
        -11    1    3    3    0    0  0.60853813693E+01 -0.34972455608E+01 -0.13134576023E+02  0.14892269152E+02  0.51100000000E-03 0. -1.
        -12    1    3    3    0    0 -0.13060339364E+02 -0.19036960958E+02 -0.13412299944E+02  0.26699590570E+02  0.00000000000E+00 0.  1.
</event>
<event>
 7    1  0.2903212E-011  0.5052886E+02  0.7816164E-02  0.1300439E+00
        -11   -1    0    0    0    0  0.00000000000E+00  0.00000000000E+00  0.45593999997E+02  0.45594000000E+02  0.51100000000E-03 0. -1.
         11   -1    0    0    0    0 -0.00000000000E+00 -0.00000000000E+00 -0.45593999997E+02  0.45594000000E+02  0.51100000000E-03 0.  1.
    9900012    2    1    2    0    0  0.16267991073E+02 -0.15438435214E+02  0.33914199355E+02  0.50528859167E+02  0.29999997923E+02 0.  0.
        -12    1    1    2    0    0 -0.16267991073E+02  0.15438435214E+02 -0.33914199355E+02  0.40659140833E+02  0.00000000000E+00 0.  1.
         11    1    3    3    0    0  0.84103559468E+01 -0.81095151848E+01 -0.10910214789E+01  0.11734080783E+02  0.51100000000E-03 0. -1.
        -11    1    3    3    0    0  0.26568019418E+01 -0.18080468197E+01  0.25201917622E+00  0.32235297093E+01  0.51100000000E-03 0.  1.
         12    1    3    3    0    0  0.52008331847E+01 -0.55208732096E+01  0.34753201658E+02  0.35571248675E+02  0.00000000000E+00 0. -1.
</event>
<event>
 7    1  0.2903212E-011  0.5052886E+02  0.7816164E-02  0.1300439E+00
        -11   -1    0    0    0    0  0.00000000000E+00  0.00000000000E+00  0.45593999997E+02  0.45594000000E+02  0.51100000000E-03 0. -1.
         11   -1    0    0    0    0 -0.00000000000E+00 -0.00000000000E+00 -0.45593999997E+02  0.45594000000E+02  0.51100000000E-03 0.  1.
    9900012    2    1    2    0    0  0.30869754886E+02 -0.18897930772E+02  0.18522756579E+02  0.50528855082E+02  0.29999985508E+02 0.  0.
        -12    1    1    2    0    0 -0.30869754886E+02  0.18897930772E+02 -0.18522756579E+02  0.40659144918E+02  0.00000000000E+00 0.  1.
         11    1    3    3    0    0 -0.14881948847E+01  0.37244715654E+00  0.15157945577E+01  0.21566349486E+01  0.51100000000E-03 0.  1.
        -11    1    3    3    0    0  0.59107431847E+01 -0.65494485150E+01  0.16855034493E+02  0.19024309419E+02  0.51100000000E-03 0. -1.
        -12    1    3    3    0    0  0.26447206586E+02 -0.12720929413E+02  0.15192752789E+00  0.29347910714E+02  0.00000000000E+00 0.  1.
</event>
<event>
 7    1  0.2903212E-011  0.5052886E+02  0.7816164E-02  0.1300439E+00
        -11   -1    0    0    0    0  0.00000000000E+00  0.00000000000E+00  0.45593999997E+02  0.45594000000E+02  0.51100000000E-03 0. -1.
         11   -1    0    0    0    0 -0.00000000000E+00 -0.00000000000E+00 -0.45593999997E+02  0.45594000000E+02  0.51100000000E-03 0.  1.
    9900012    2    1    2    0    0  0.44904863337E+01  0.22193300669E+02  0.33770678408E+02  0.50528858565E+02  0.29999996094E+02 0.  0.
        -12    1    1    2    0    0 -0.44904863337E+01 -0.22193300669E+02 -0.33770678408E+02  0.40659141435E+02  0.00000000000E+00 0.  1.
         11    1    3    3    0    0  0.69741202594E+01  0.18189753156E+02  0.14206354608E+02  0.24110702702E+02  0.51100000000E-03 0. -1.
        -11    1    3    3    0    0 -0.16831078564E+01  0.10592194641E+02  0.14666273256E+02  0.18169397647E+02  0.51100000000E-03 0.  1.
        -12    1    3    3    0    0 -0.80052606925E+00 -0.65886471285E+01  0.48980505438E+01  0.82487582157E+01  0.00000000000E+00 0.  1.
</event>
<event>
 7    1  0.2903212E-011  0.5052886E+02  0.7816164E-02  0.1300439E+00
        -11   -1    0    0    0    0  0.00000000000E+00  0.00000000000E+00  0.45593999997E+02  0.45594000000E+02  0.51100000000E-03 0.  1.
         11   -1    0    0    0    0 -0.00000000000E+00 -0.00000000000E+00 -0.45593999997E+02  0.45594000000E+02  0.51100000000E-03 0. -1.
    9900012    2    1    2    0    0 -0.23726876570E+02 -0.30576316216E+02 -0.12461523229E+02  0.50528863926E+02  0.30000012389E+02 0.  0.
        -12    1    1    2    0    0  0.23726876570E+02  0.30576316216E+02  0.12461523229E+02  0.40659136074E+02  0.00000000000E+00 0.  1.
         11    1    3    3    0    0 -0.49622495355E+01 -0.21340887241E+01 -0.73293569676E+01  0.91048189963E+01  0.51100000000E-03 0. -1.
        -11    1    3    3    0    0 -0.14922677679E+02 -0.28222114567E+01 -0.23639995645E+01  0.15370090462E+02  0.51100000000E-03 0.  1.
        -12    1    3    3    0    0 -0.38419493549E+01 -0.25620016036E+02 -0.27681666970E+01  0.26053954467E+02  0.00000000000E+00 0.  1.
</event>
<event>
 7    1  0.2903212E-011  0.5052886E+02  0.7816164E-02  0.1300439E+00
        -11   -1    0    0    0    0  0.00000000000E+00  0.00000000000E+00  0.45593999997E+02  0.45594000000E+02  0.51100000000E-03 0.  1.
         11   -1    0    0    0    0 -0.00000000000E+00 -0.00000000000E+00 -0.45593999997E+02  0.45594000000E+02  0.51100000000E-03 0. -1.
    9900012    2    1    2    0    0  0.27820563962E+01  0.34245836573E+02 -0.21740485917E+02  0.50528857261E+02  0.29999992129E+02 0.  0.
        -12    1    1    2    0    0 -0.27820563962E+01 -0.34245836573E+02  0.21740485917E+02  0.40659142739E+02  0.00000000000E+00 0.  1.
         11    1    3    3    0    0 -0.33266511262E+01  0.17583440037E+02 -0.20205099899E+02  0.26990554522E+02  0.51100000000E-03 0. -1.
        -11    1    3    3    0    0 -0.47501339677E+00  0.36826594122E+01 -0.70552420394E+01  0.79727071042E+01  0.51100000000E-03 0.  1.
        -12    1    3    3    0    0  0.65837209191E+01  0.12979737124E+02  0.55198560211E+01  0.15565595634E+02  0.00000000000E+00 0.  1.
</event>
<event>
 7    1  0.2903212E-011  0.5052886E+02  0.7816164E-02  0.1300439E+00
        -11   -1    0    0    0    0  0.00000000000E+00  0.00000000000E+00  0.45593999997E+02  0.45594000000E+02  0.51100000000E-03 0.  1.
         11   -1    0    0    0    0 -0.00000000000E+00 -0.00000000000E+00 -0.45593999997E+02  0.45594000000E+02  0.51100000000E-03 0. -1.
    9900012    2    1    2    0    0  0.22766594486E+02  0.33275390730E+02 -0.52532076982E+01  0.50528860267E+02  0.30000001267E+02 0.  0.
        -12    1    1    2    0    0 -0.22766594486E+02 -0.33275390730E+02  0.52532076982E+01  0.40659139733E+02  0.00000000000E+00 0.  1.
         11    1    3    3    0    0 -0.10802469164E+01  0.79373349427E+01  0.33678866580E+01  0.86896996609E+01  0.51100000000E-03 0.  1.
        -11    1    3    3    0    0  0.18321764357E+02  0.19519839484E+02 -0.15788589770E+02  0.31080391726E+02  0.51100000000E-03 0. -1.
         12    1    3    3    0    0  0.55250770453E+01  0.58182163035E+01  0.71674954138E+01  0.10758768880E+02  0.00000000000E+00 0. -1.
</event>
<event>
 7    1  0.2903212E-011  0.5052887E+02  0.7816164E-02  0.1300439E+00
        -11   -1    0    0    0    0  0.00000000000E+00  0.00000000000E+00  0.45593999997E+02  0.45594000000E+02  0.51100000000E-03 0.  1.
         11   -1    0    0    0    0 -0.00000000000E+00 -0.00000000000E+00 -0.45593999997E+02  0.45594000000E+02  0.51100000000E-03 0. -1.
    9900012    2    1    2    0    0 -0.18937831075E+01 -0.38248493085E+02  0.13661308777E+02  0.50528868243E+02  0.30000025511E+02 0.  0.
        -12    1    1    2    0    0  0.18937831075E+01  0.38248493085E+02 -0.13661308777E+02  0.40659131757E+02  0.00000000000E+00 0.  1.
         11    1    3    3    0    0  0.58387779704E+01 -0.45559741108E+01 -0.24257311812E+01  0.77930995317E+01  0.51100000000E-03 0. -1.
        -11    1    3    3    0    0 -0.95418630153E+01 -0.64908126877E+01  0.10146395070E+01  0.11584787125E+02  0.51100000000E-03 0.  1.
         12    1    3    3    0    0  0.18093019374E+01 -0.27201706286E+02  0.15072400452E+02  0.31150981586E+02  0.00000000000E+00 0. -1.
</event>
<event>
 7    1  0.2903212E-011  0.5052886E+02  0.7816164E-02  0.1300439E+00
        -11   -1    0    0    0    0  0.00000000000E+00  0.00000000000E+00  0.45593999997E+02  0.45594000000E+02  0.51100000000E-03 0.  1.
         11   -1    0    0    0    0 -0.00000000000E+00 -0.00000000000E+00 -0.45593999997E+02  0.45594000000E+02  0.51100000000E-03 0. -1.
    9900012    2    1    2    0    0 -0.33745975784E+01 -0.43660278703E+01 -0.40282946222E+02  0.50528857553E+02  0.29999993019E+02 0.  0.
        -12    1    1    2    0    0  0.33745975784E+01  0.43660278703E+01  0.40282946222E+02  0.40659142447E+02  0.00000000000E+00 0.  1.
         11    1    3    3    0    0  0.66319927178E+01  0.48584944785E+01 -0.22640074422E+02  0.24086537030E+02  0.51100000000E-03 0. -1.
        -11    1    3    3    0    0  0.29713525689E+01 -0.53930212251E+01 -0.51999803756E+01  0.80593678530E+01  0.51100000000E-03 0.  1.
        -12    1    3    3    0    0 -0.12977942865E+02 -0.38315011236E+01 -0.12442891425E+02  0.18382952670E+02  0.00000000000E+00 0.  1.
</event>
<event>
 7    1  0.2903212E-011  0.5052887E+02  0.7816164E-02  0.1300439E+00
        -11   -1    0    0    0    0  0.00000000000E+00  0.00000000000E+00  0.45593999997E+02  0.45594000000E+02  0.51100000000E-03 0.  1.
         11   -1    0    0    0    0 -0.00000000000E+00 -0.00000000000E+00 -0.45593999997E+02  0.45594000000E+02  0.51100000000E-03 0. -1.
    9900012    2    1    2    0    0  0.15283930028E+01 -0.38995609065E+02 -0.11409272885E+02  0.50528867948E+02  0.30000024614E+02 0.  0.
        -12    1    1    2    0    0 -0.15283930028E+01  0.38995609065E+02  0.11409272885E+02  0.40659132052E+02  0.00000000000E+00 0.  1.
         11    1    3    3    0    0  0.54567191558E+01 -0.19094690583E+02 -0.84690006064E+01  0.21589510507E+02  0.51100000000E-03 0. -1.
        -11    1    3    3    0    0 -0.12301615636E+01 -0.23841962682E+02 -0.35061650545E+01  0.24129767419E+02  0.51100000000E-03 0.  1.
        -12    1    3    3    0    0 -0.26981645894E+01  0.39410442009E+01  0.56589277594E+00  0.48095900219E+01  0.00000000000E+00 0.  1.
</event>
<event>
 7    1  0.2903212E-011  0.5052886E+02  0.7816164E-02  0.1300439E+00
        -11   -1    0    0    0    0  0.00000000000E+00  0.00000000000E+00  0.45593999997E+02  0.45594000000E+02  0.51100000000E-03 0.  1.
         11   -1    0    0    0    0 -0.00000000000E+00 -0.00000000000E+00 -0.45593999997E+02  0.45594000000E+02  0.51100000000E-03 0. -1.
    9900012    2    1    2    0    0  0.47556817692E+00 -0.35925939507E+02 -0.19033299100E+02  0.50528858725E+02  0.29999996581E+02 0.  0.
        -12    1    1    2    0    0 -0.47556817692E+00  0.35925939507E+02  0.19033299100E+02  0.40659141275E+02  0.00000000000E+00 0.  1.
         11    1    3    3    0    0  0.65571910540E+01 -0.11120396176E+02 -0.35652282299E+01  0.13392939118E+02  0.51100000000E-03 0.  1.
        -11    1    3    3    0    0  0.69084610566E+00 -0.18459253921E+02  0.70865717040E+00  0.18485765305E+02  0.51100000000E-03 0. -1.
         12    1    3    3    0    0 -0.67724689828E+01 -0.63462894104E+01 -0.16176728041E+02  0.18650154302E+02  0.00000000000E+00 0. -1.
</event>
<event>
 7    1  0.2903212E-011  0.5052887E+02  0.7816164E-02  0.1300439E+00
        -11   -1    0    0    0    0  0.00000000000E+00  0.00000000000E+00  0.45593999997E+02  0.45594000000E+02  0.51100000000E-03 0. -1.
         11   -1    0    0    0    0 -0.00000000000E+00 -0.00000000000E+00 -0.45593999997E+02  0.45594000000E+02  0.51100000000E-03 0.  1.
    9900012    2    1    2    0    0 -0.26909558264E+02 -0.29932802159E+02  0.57504449820E+01  0.50528873244E+02  0.30000040712E+02 0.  0.
        -12    1    1    2    0    0  0.26909558264E+02  0.29932802159E+02 -0.57504449820E+01  0.40659126756E+02  0.00000000000E+00 0.  1.
         11    1    3    3    0    0 -0.17614288042E+02 -0.13827331365E+02  0.39736296354E+01  0.22743086173E+02  0.51100000000E-03 0. -1.
        -11    1    3    3    0    0 -0.10693938365E+02 -0.19436333874E+02  0.52257060810E+01  0.22791213143E+02  0.51100000000E-03 0.  1.
         12    1    3    3    0    0  0.13986681429E+01  0.33308630795E+01 -0.34488907344E+01  0.49945739284E+01  0.00000000000E+00 0. -1.
</event>
<event>
 7    1  0.2903212E-011  0.5052886E+02  0.7816164E-02  0.1300439E+00
        -11   -1    0    0    0    0  0.00000000000E+00  0.00000000000E+00  0.45593999997E+02  0.45594000000E+02  0.51100000000E-03 0.  1.
         11   -1    0    0    0    0 -0.00000000000E+00 -0.00000000000E+00 -0.45593999997E+02  0.45594000000E+02  0.51100000000E-03 0. -1.
    9900012    2    1    2    0    0 -0.75867598211E+01 -0.39944803018E+02  0.14043787245E+00  0.50528856679E+02  0.29999990363E+02 0.  0.
        -12    1    1    2    0    0  0.75867598211E+01  0.39944803018E+02 -0.14043787245E+00  0.40659143321E+02  0.00000000000E+00 0.  1.
         11    1    3    3    0    0  0.46292270606E+01 -0.28960752603E+02  0.24740378353E+00  0.29329441580E+02  0.51100000000E-03 0. -1.
        -11    1    3    3    0    0  0.13291284523E+01 -0.69102143879E+01  0.37344477344E+00  0.70467798738E+01  0.51100000000E-03 0.  1.
        -12    1    3    3    0    0 -0.13545115334E+02 -0.40738360272E+01 -0.48041068453E+00  0.14152635225E+02  0.00000000000E+00 0.  1.
</event>
<event>
 7    1  0.2903212E-011  0.5052885E+02  0.7816164E-02  0.1300439E+00
        -11   -1    0    0    0    0  0.00000000000E+00  0.00000000000E+00  0.45593999997E+02  0.45594000000E+02  0.51100000000E-03 0. -1.
         11   -1    0    0    0    0 -0.00000000000E+00 -0.00000000000E+00 -0.45593999997E+02  0.45594000000E+02  0.51100000000E-03 0.  1.
    9900012    2    1    2    0    0  0.36554839446E+02 -0.14993298977E+02  0.95974503911E+01  0.50528851519E+02  0.29999974678E+02 0.  0.
        -12    1    1    2    0    0 -0.36554839446E+02  0.14993298977E+02 -0.95974503911E+01  0.40659148481E+02  0.00000000000E+00 0.  1.
         11    1    3    3    0    0  0.20130578825E+02 -0.10331746461E+02  0.96389926561E+01  0.24594620721E+02  0.51100000000E-03 0. -1.
        -11    1    3    3    0    0  0.18614355085E+01 -0.11139033739E+01  0.84385527720E+01  0.87129154722E+01  0.51100000000E-03 0.  1.
        -12    1    3    3    0    0  0.14562825113E+02 -0.35476491428E+01 -0.84800950370E+01  0.17221315326E+02  0.00000000000E+00 0.  1.
</event>
<event>
 7    1  0.2903212E-011  0.5052887E+02  0.7816164E-02  0.1300439E+00
        -11   -1    0    0    0    0  0.00000000000E+00  0.00000000000E+00  0.45593999997E+02  0.45594000000E+02  0.51100000000E-03 0.  1.
         11   -1    0    0    0    0 -0.00000000000E+00 -0.00000000000E+00 -0.45593999997E+02  0.45594000000E+02  0.51100000000E-03 0. -1.
    9900012    2    1    2    0    0 -0.37574484282E+02  0.12888441741E+02 -0.86724394090E+01  0.50528868124E+02  0.30000025151E+02 0.  0.
        -12    1    1    2    0    0  0.37574484282E+02 -0.12888441741E+02  0.86724394090E+01  0.40659131876E+02  0.00000000000E+00 0.  1.
         11    1    3    3    0    0 -0.19921223154E+02  0.12374606412E+02 -0.61093784770E+00  0.23459737021E+02  0.51100000000E-03 0. -1.
        -11    1    3    3    0    0 -0.38728477323E+01  0.66515093297E+01  0.31059767712E+01  0.82999167397E+01  0.51100000000E-03 0.  1.
         12    1    3    3    0    0 -0.13780413396E+02 -0.61376740013E+01 -0.11167478332E+02  0.18769214363E+02  0.00000000000E+00 0. -1.
</event>
<event>
 7    1  0.2903212E-011  0.5052886E+02  0.7816164E-02  0.1300439E+00
        -11   -1    0    0    0    0  0.00000000000E+00  0.00000000000E+00  0.45593999997E+02  0.45594000000E+02  0.51100000000E-03 0. -1.
         11   -1    0    0    0    0 -0.00000000000E+00 -0.00000000000E+00 -0.45593999997E+02  0.45594000000E+02  0.51100000000E-03 0.  1.
    9900012    2    1    2    0    0  0.26160554842E+02  0.30346005926E+02  0.69217578471E+01  0.50528862810E+02  0.30000008998E+02 0.  0.
        -12    1    1    2    0    0 -0.26160554842E+02 -0.30346005926E+02 -0.69217578471E+01  0.40659137190E+02  0.00000000000E+00 0.  1.
         11    1    3    3    0    0  0.35302834560E+01  0.10609415883E+01  0.74132681342E+00  0.37600617068E+01  0.51100000000E-03 0. -1.
        -11    1    3    3    0    0  0.19714126905E+02  0.34867651298E+02  0.55830993475E+01  0.40442192142E+02  0.51100000000E-03 0.  1.
        -12    1    3    3    0    0  0.29161444809E+01 -0.55825869603E+01  0.59733168617E+00  0.63266089610E+01  0.00000000000E+00 0.  1.
</event>
<event>
 7    1  0.2903212E-011  0.5052885E+02  0.7816164E-02  0.1300439E+00
        -11   -1    0    0    0    0  0.00000000000E+00  0.00000000000E+00  0.45593999997E+02  0.45594000000E+02  0.51100000000E-03 0.  1.
         11   -1    0    0    0    0 -0.00000000000E+00 -0.00000000000E+00 -0.45593999997E+02  0.45594000000E+02  0.51100000000E-03 0. -1.
    9900012    2    1    2    0    0 -0.97936655109E+01  0.32393865952E+02 -0.22536369027E+02  0.50528851406E+02  0.29999974334E+02 0.  0.
        -12    1    1    2    0    0  0.97936655109E+01 -0.32393865952E+02  0.22536369027E+02  0.40659148594E+02  0.00000000000E+00 0.  1.
         11    1    3    3    0    0 -0.42692279324E+00  0.21556077583E+02 -0.15026108355E+02  0.26279853051E+02  0.51100000000E-03 0. -1.
        -11    1    3    3    0    0 -0.29338369303E+01  0.10181547039E+02  0.37702317134E+01  0.11246597115E+02  0.51100000000E-03 0.  1.
        -12    1    3    3    0    0 -0.64329057874E+01  0.65624133026E+00 -0.11280492385E+02  0.13002401240E+02  0.00000000000E+00 0.  1.
</event>
<event>
 7    1  0.2903212E-011  0.5052885E+02  0.7816164E-02  0.1300439E+00
        -11   -1    0    0    0    0  0.00000000000E+00  0.00000000000E+00  0.45593999997E+02  0.45594000000E+02  0.51100000000E-03 0. -1.
         11   -1    0    0    0    0 -0.00000000000E+00 -0.00000000000E+00 -0.45593999997E+02  0.45594000000E+02  0.51100000000E-03 0.  1.
    9900012    2    1    2    0    0 -0.30211971954E+02 -0.14029562751E+02  0.23314691086E+02  0.50528847269E+02  0.29999961760E+02 0.  0.
        -12    1    1    2    0    0  0.30211971954E+02  0.14029562751E+02 -0.23314691086E+02  0.40659152731E+02  0.00000000000E+00 0.  1.
         11    1    3    3    0    0 -0.81605026757E+01 -0.15231017497E+02  0.32191417258E+01  0.17576705369E+02  0.51100000000E-03 0. -1.
        -11    1    3    3    0    0 -0.29853824611E+01  0.26036013087E+01 -0.13849848593E+01  0.41963593191E+01  0.51100000000E-03 0.  1.
         12    1    3    3    0    0 -0.19066086817E+02 -0.14021465631E+01  0.21480534220E+02  0.28755782581E+02  0.00000000000E+00 0. -1.
</event>
<event>
 7    1  0.2903212E-011  0.5052887E+02  0.7816164E-02  0.1300439E+00
        -11   -1    0    0    0    0  0.00000000000E+00  0.00000000000E+00  0.45593999997E+02  0.45594000000E+02  0.51100000000E-03 0.  1.
         11   -1    0    0    0    0 -0.00000000000E+00 -0.00000000000E+00 -0.45593999997E+02  0.45594000000E+02  0.51100000000E-03 0. -1.
    9900012    2    1    2    0    0  0.34743135781E+02  0.13769470349E+02 -0.16015018857E+02  0.50528872776E+02  0.30000039291E+02 0.  0.
        -12    1    1    2    0    0 -0.34743135781E+02 -0.13769470349E+02  0.16015018857E+02  0.40659127224E+02  0.00000000000E+00 0.  1.
         11    1    3    3    0    0  0.28708333919E+02  0.48605175070E+01 -0.58662957182E+01  0.29701961089E+02  0.51100000000E-03 0. -1.
        -11    1    3    3    0    0  0.71492028557E+01  0.50757194313E+00  0.53826344755E+00  0.71873818981E+01  0.51100000000E-03 0.  1.
         12    1    3    3    0    0 -0.11144009930E+01  0.84013808992E+01 -0.10686986586E+02  0.13639529789E+02  0.00000000000E+00 0. -1.
</event>
<event>
 7    1  0.2903212E-011  0.5052886E+02  0.7816164E-02  0.1300439E+00
        -11   -1    0    0    0    0  0.00000000000E+00  0.00000000000E+00  0.45593999997E+02  0.45594000000E+02  0.51100000000E-03 0. -1.
         11   -1    0    0    0    0 -0.00000000000E+00 -0.00000000000E+00 -0.45593999997E+02  0.45594000000E+02  0.51100000000E-03 0.  1.
    9900012    2    1    2    0    0 -0.23431349560E+02  0.22723714693E+02  0.24243974454E+02  0.50528860204E+02  0.30000001076E+02 0.  0.
        -12    1    1    2    0    0  0.23431349560E+02 -0.22723714693E+02 -0.24243974454E+02  0.40659139796E+02  0.00000000000E+00 0.  1.
         11    1    3    3    0    0 -0.84861198244E-01 -0.10349305415E+01 -0.20653318783E+01  0.23116830832E+01  0.51100000000E-03 0. -1.
        -11    1    3    3    0    0 -0.14388188185E+02  0.17258194062E+01  0.27697218579E+01  0.14753635867E+02  0.51100000000E-03 0.  1.
         12    1    3    3    0    0 -0.89583001767E+01  0.22032825828E+02  0.23539584474E+02  0.33463541254E+02  0.00000000000E+00 0. -1.
</event>
<event>
 7    1  0.2903212E-011  0.5052886E+02  0.7816164E-02  0.1300439E+00
        -11   -1    0    0    0    0  0.00000000000E+00  0.00000000000E+00  0.45593999997E+02  0.45594000000E+02  0.51100000000E-03 0.  1.
         11   -1    0    0    0    0 -0.00000000000E+00 -0.00000000000E+00 -0.45593999997E+02  0.45594000000E+02  0.51100000000E-03 0. -1.
    9900012    2    1    2    0    0  0.36440306270E+02  0.22308391931E+01 -0.17896735014E+02  0.50528859715E+02  0.29999999590E+02 0.  0.
        -12    1    1    2    0    0 -0.36440306270E+02 -0.22308391931E+01  0.17896735014E+02  0.40659140285E+02  0.00000000000E+00 0.  1.
         11    1    3    3    0    0  0.21283676683E+02 -0.26032058570E+01 -0.17513067991E+01  0.21513685171E+02  0.51100000000E-03 0. -1.
        -11    1    3    3    0    0  0.42361036714E+01 -0.64072297325E+01 -0.88787754600E+01  0.11740094595E+02  0.51100000000E-03 0.  1.
         12    1    3    3    0    0  0.10920525916E+02  0.11241274783E+02 -0.72666527550E+01  0.17275079950E+02  0.00000000000E+00 0. -1.
</event>
<event>
 7    1  0.2903212E-011  0.5052886E+02  0.7816164E-02  0.1300439E+00
        -11   -1    0    0    0    0  0.00000000000E+00  0.00000000000E+00  0.45593999997E+02  0.45594000000E+02  0.51100000000E-03 0.  1.
         11   -1    0    0    0    0 -0.00000000000E+00 -0.00000000000E+00 -0.45593999997E+02  0.45594000000E+02  0.51100000000E-03 0. -1.
    9900012    2    1    2    0    0 -0.37822181891E+02 -0.22613887258E+00 -0.14919674730E+02  0.50528864792E+02  0.30000015022E+02 0.  0.
        -12    1    1    2    0    0  0.37822181891E+02  0.22613887258E+00  0.14919674730E+02  0.40659135208E+02  0.00000000000E+00 0.  1.
         11    1    3    3    0    0 -0.15668063655E+02 -0.61002124816E+01 -0.19532984574E+01  0.16926789009E+02  0.51100000000E-03 0. -1.
        -11    1    3    3    0    0 -0.18802965677E+02 -0.18571587454E+01 -0.94038616644E+00  0.18917845629E+02  0.51100000000E-03 0.  1.
         12    1    3    3    0    0 -0.33511525594E+01  0.77312323545E+01 -0.12025990106E+02  0.14684230154E+02  0.00000000000E+00 0. -1.
</event>
<event>
 7    1  0.2903212E-011  0.5052887E+02  0.7816164E-02  0.1300439E+00
        -11   -1    0    0    0    0  0.00000000000E+00  0.00000000000E+00  0.45593999997E+02  0.45594000000E+02  0.51100000000E-03 0. -1.
         11   -1    0    0    0    0 -0.00000000000E+00 -0.00000000000E+00 -0.45593999997E+02  0.45594000000E+02  0.51100000000E-03 0.  1.
    9900012    2    1    2    0    0  0.24683203247E+02 -0.32129489921E+02  0.34059479961E+01  0.50528866625E+02  0.30000020592E+02 0.  0.
        -12    1    1    2    0    0 -0.24683203247E+02  0.32129489921E+02 -0.34059479961E+01  0.40659133375E+02  0.00000000000E+00 0.  1.
         11    1    3    3    0    0 -0.92033242907E+00 -0.66200356730E+01  0.27469391979E+01  0.72261718295E+01  0.51100000000E-03 0. -1.
        -11    1    3    3    0    0  0.51842943033E+01 -0.21662550121E+02  0.26393036360E+01  0.22430089370E+02  0.51100000000E-03 0.  1.
        -12    1    3    3    0    0  0.20419241373E+02 -0.38469041262E+01 -0.19802948378E+01  0.20872605425E+02  0.00000000000E+00 0.  1.
</event>
<event>
 7    1  0.2903212E-011  0.5052889E+02  0.7816164E-02  0.1300439E+00
        -11   -1    0    0    0    0  0.00000000000E+00  0.00000000000E+00  0.45593999997E+02  0.45594000000E+02  0.51100000000E-03 0.  1.
         11   -1    0    0    0    0 -0.00000000000E+00 -0.00000000000E+00 -0.45593999997E+02  0.45594000000E+02  0.51100000000E-03 0. -1.
    9900012    2    1    2    0    0  0.25691920994E+02  0.30354446793E+02 -0.84673650949E+01  0.50528886432E+02  0.30000080800E+02 0.  0.
        -12    1    1    2    0    0 -0.25691920994E+02 -0.30354446793E+02  0.84673650949E+01  0.40659113568E+02  0.00000000000E+00 0.  1.
         11    1    3    3    0    0  0.51230088450E+00  0.11694799524E+01 -0.20968721606E+01  0.24549966750E+01  0.51100000000E-03 0. -1.
        -11    1    3    3    0    0  0.30401666511E+02  0.22923505659E+02 -0.59129707112E+00  0.38080153241E+02  0.51100000000E-03 0.  1.
         12    1    3    3    0    0 -0.52220464015E+01  0.62614611808E+01 -0.57791958632E+01  0.99937365166E+01  0.00000000000E+00 0. -1.
</event>
<event>
 7    1  0.2903212E-011  0.5052886E+02  0.7816164E-02  0.1300439E+00
        -11   -1    0    0    0    0  0.00000000000E+00  0.00000000000E+00  0.45593999997E+02  0.45594000000E+02  0.51100000000E-03 0.  1.
         11   -1    0    0    0    0 -0.00000000000E+00 -0.00000000000E+00 -0.45593999997E+02  0.45594000000E+02  0.51100000000E-03 0. -1.
    9900012    2    1    2    0    0 -0.39845657023E+02 -0.33084896009E+01  0.73853252516E+01  0.50528861838E+02  0.30000006042E+02 0.  0.
        -12    1    1    2    0    0  0.39845657023E+02  0.33084896009E+01 -0.73853252516E+01  0.40659138162E+02  0.00000000000E+00 0.  1.
         11    1    3    3    0    0 -0.20334058148E+02 -0.12120203086E+02  0.59640294764E+01  0.24411941576E+02  0.51100000000E-03 0. -1.
        -11    1    3    3    0    0 -0.61595613108E+01 -0.31711514088E+01  0.39877516113E+01  0.79936574841E+01  0.51100000000E-03 0.  1.
         12    1    3    3    0    0 -0.13352037564E+02  0.11982864894E+02 -0.25664558361E+01  0.18123262778E+02  0.00000000000E+00 0. -1.
</event>
<event>
 7    1  0.2903212E-011  0.5052886E+02  0.7816164E-02  0.1300439E+00
        -11   -1    0    0    0    0  0.00000000000E+00  0.00000000000E+00  0.45593999997E+02  0.45594000000E+02  0.51100000000E-03 0. -1.
         11   -1    0    0    0    0 -0.00000000000E+00 -0.00000000000E+00 -0.45593999997E+02  0.45594000000E+02  0.51100000000E-03 0.  1.
    9900012    2    1    2    0    0 -0.32038316920E+02 -0.44062312542E+01  0.24643396848E+02  0.50528860399E+02  0.30000001668E+02 0.  0.
        -12    1    1    2    0    0  0.32038316920E+02  0.44062312542E+01 -0.24643396848E+02  0.40659139601E+02  0.00000000000E+00 0.  1.
         11    1    3    3    0    0 -0.19194553812E+02 -0.83945916599E+01  0.14003751784E+02  0.25199308115E+02  0.51100000000E-03 0. -1.
        -11    1    3    3    0    0 -0.64242983864E+01  0.95493757590E+01  0.12113689456E+02  0.16709388368E+02  0.51100000000E-03 0.  1.
         12    1    3    3    0    0 -0.64194647212E+01 -0.55610153533E+01 -0.14740443918E+01  0.86201639158E+01  0.00000000000E+00 0. -1.
</event>
<event>
 7    1  0.2903212E-011  0.5052886E+02  0.7816164E-02  0.1300439E+00
        -11   -1    0    0    0    0  0.00000000000E+00  0.00000000000E+00  0.45593999997E+02  0.45594000000E+02  0.51100000000E-03 0.  1.
         11   -1    0    0    0    0 -0.00000000000E+00 -0.00000000000E+00 -0.45593999997E+02  0.45594000000E+02  0.51100000000E-03 0. -1.
    9900012    2    1    2    0    0  0.31655308768E+02  0.24703834365E+02 -0.63896341147E+01  0.50528862901E+02  0.30000009275E+02 0.  0.
        -12    1    1    2    0    0 -0.31655308768E+02 -0.24703834365E+02  0.63896341147E+01  0.40659137099E+02  0.00000000000E+00 0.  1.
         11    1    3    3    0    0  0.89085205199E+01  0.74473963235E+01 -0.50174596614E+01  0.12649124538E+02  0.51100000000E-03 0. -1.
        -11    1    3    3    0    0  0.15450964930E+01  0.13588257576E+02 -0.73800425542E+01  0.15540048117E+02  0.51100000000E-03 0.  1.
         12    1    3    3    0    0  0.21201691755E+02  0.36681804655E+01  0.60078681009E+01  0.22339690246E+02  0.00000000000E+00 0. -1.
</event>
<event>
 7    1  0.2903212E-011  0.5052889E+02  0.7816164E-02  0.1300439E+00
        -11   -1    0    0    0    0  0.00000000000E+00  0.00000000000E+00  0.45593999997E+02  0.45594000000E+02  0.51100000000E-03 0.  1.
         11   -1    0    0    0    0 -0.00000000000E+00 -0.00000000000E+00 -0.45593999997E+02  0.45594000000E+02  0.51100000000E-03 0. -1.
    9900012    2    1    2    0    0  0.55517150887E+01  0.23805168350E+02 -0.32490850030E+02  0.50528893808E+02  0.30000103219E+02 0.  0.
        -12    1    1    2    0    0 -0.55517150887E+01 -0.23805168350E+02  0.32490850030E+02  0.40659106192E+02  0.00000000000E+00 0.  1.
         11    1    3    3    0    0  0.11733391607E+02  0.13742665840E+02 -0.46776541235E+01  0.18665845584E+02  0.51100000000E-03 0. -1.
        -11    1    3    3    0    0  0.26474336034E+01  0.10690926270E+01 -0.39178274553E+01  0.48478073352E+01  0.51100000000E-03 0.  1.
        -12    1    3    3    0    0 -0.88291101215E+01  0.89934098834E+01 -0.23895368452E+02  0.27015240889E+02  0.00000000000E+00 0.  1.
</event>
<event>
 7    1  0.2903212E-011  0.5052886E+02  0.7816164E-02  0.1300439E+00
        -11   -1    0    0    0    0  0.00000000000E+00  0.00000000000E+00  0.45593999997E+02  0.45594000000E+02  0.51100000000E-03 0.  1.
         11   -1    0    0    0    0 -0.00000000000E+00 -0.00000000000E+00 -0.45593999997E+02  0.45594000000E+02  0.51100000000E-03 0. -1.
    9900012    2    1    2    0    0  0.20191139913E+02  0.33302023556E+02  0.11681571735E+02  0.50528855615E+02  0.29999987128E+02 0.  0.
        -12    1    1    2    0    0 -0.20191139913E+02 -0.33302023556E+02 -0.11681571735E+02  0.40659144385E+02  0.00000000000E+00 0.  1.
         11    1    3    3    0    0  0.10397143700E+02  0.18889127378E+02  0.98216987372E+01  0.23693152947E+02  0.51100000000E-03 0. -1.
        -11    1    3    3    0    0  0.91953926310E+01  0.83393214262E-01  0.70460063150E+01  0.11584835144E+02  0.51100000000E-03 0.  1.
         12    1    3    3    0    0  0.59860358175E+00  0.14329502964E+02 -0.51861333176E+01  0.15250867524E+02  0.00000000000E+00 0. -1.
</event>
<event>
 7    1  0.2903212E-011  0.5052886E+02  0.7816164E-02  0.1300439E+00
        -11   -1    0    0    0    0  0.00000000000E+00  0.00000000000E+00  0.45593999997E+02  0.45594000000E+02  0.51100000000E-03 0.  1.
         11   -1    0    0    0    0 -0.00000000000E+00 -0.00000000000E+00 -0.45593999997E+02  0.45594000000E+02  0.51100000000E-03 0. -1.
    9900012    2    1    2    0    0 -0.21103224835E+02  0.94015674397E+01 -0.33457882580E+02  0.50528862337E+02  0.30000007560E+02 0.  0.
        -12    1    1    2    0    0  0.21103224835E+02 -0.94015674397E+01  0.33457882580E+02  0.40659137663E+02  0.00000000000E+00 0.  1.
         11    1    3    3    0    0 -0.88409541957E+01  0.10983502680E+02 -0.98780105908E+01  0.17215542272E+02  0.51100000000E-03 0. -1.
        -11    1    3    3    0    0 -0.12247511308E+02 -0.16278631695E+01 -0.29749424575E+01  0.12708334062E+02  0.51100000000E-03 0.  1.
        -12    1    3    3    0    0 -0.14759331449E-01  0.45927928908E-01 -0.20604929531E+02  0.20604986004E+02  0.00000000000E+00 0.  1.
</event>
<event>
 7    1  0.2903212E-011  0.5052887E+02  0.7816164E-02  0.1300439E+00
        -11   -1    0    0    0    0  0.00000000000E+00  0.00000000000E+00  0.45593999997E+02  0.45594000000E+02  0.51100000000E-03 0.  1.
         11   -1    0    0    0    0 -0.00000000000E+00 -0.00000000000E+00 -0.45593999997E+02  0.45594000000E+02  0.51100000000E-03 0. -1.
    9900012    2    1    2    0    0  0.74876820349E+01 -0.37120555107E+02 -0.14804185994E+02  0.50528869210E+02  0.30000028450E+02 0.  0.
        -12    1    1    2    0    0 -0.74876820349E+01  0.37120555107E+02  0.14804185994E+02  0.40659130790E+02  0.00000000000E+00 0.  1.
         11    1    3    3    0    0  0.85280818779E+01 -0.20889914712E+02 -0.20725123824E+02  0.30637354243E+02  0.51100000000E-03 0. -1.
        -11    1    3    3    0    0 -0.15363542731E+01 -0.12677261175E+01 -0.21106016678E+01  0.29020946957E+01  0.51100000000E-03 0.  1.
        -12    1    3    3    0    0  0.49595443012E+00 -0.14962914277E+02  0.80315394978E+01  0.16989420271E+02  0.00000000000E+00 0.  1.
</event>
<event>
 7    1  0.2903212E-011  0.5052885E+02  0.7816164E-02  0.1300439E+00
        -11   -1    0    0    0    0  0.00000000000E+00  0.00000000000E+00  0.45593999997E+02  0.45594000000E+02  0.51100000000E-03 0. -1.
         11   -1    0    0    0    0 -0.00000000000E+00 -0.00000000000E+00 -0.45593999997E+02  0.45594000000E+02  0.51100000000E-03 0.  1.
    9900012    2    1    2    0    0  0.19624664104E+02 -0.61649065849E+00  0.35604193304E+02  0.50528854869E+02  0.29999984861E+02 0.  0.
        -12    1    1    2    0    0 -0.19624664104E+02  0.61649065849E+00 -0.35604193304E+02  0.40659145131E+02  0.00000000000E+00 0.  1.
         11    1    3    3    0    0  0.59732474103E+01  0.10163966811E+02  0.94673500807E+01  0.15120073537E+02  0.51100000000E-03 0. -1.
        -11    1    3    3    0    0  0.16186861043E+02 -0.56140089625E+01  0.23489982850E+02  0.29074230199E+02  0.51100000000E-03 0.  1.
        -12    1    3    3    0    0 -0.25354443492E+01 -0.51664485074E+01  0.26468603728E+01  0.63345511333E+01  0.00000000000E+00 0.  1.
</event>
<event>
 7    1  0.2903212E-011  0.5052887E+02  0.7816164E-02  0.1300439E+00
        -11   -1    0    0    0    0  0.00000000000E+00  0.00000000000E+00  0.45593999997E+02  0.45594000000E+02  0.51100000000E-03 0. -1.
         11   -1    0    0    0    0 -0.00000000000E+00 -0.00000000000E+00 -0.45593999997E+02  0.45594000000E+02  0.51100000000E-03 0.  1.
    9900012    2    1    2    0    0 -0.23014450031E+02  0.32509278175E+02 -0.81637686937E+01  0.50528865763E+02  0.30000017972E+02 0.  0.
        -12    1    1    2    0    0  0.23014450031E+02 -0.32509278175E+02  0.81637686937E+01  0.40659134237E+02  0.00000000000E+00 0.  1.
         11    1    3    3    0    0 -0.82038905796E+01  0.35860094375E+00 -0.40463816744E+01  0.91545409604E+01  0.51100000000E-03 0. -1.
        -11    1    3    3    0    0 -0.22244480550E+01 -0.30484352528E+01 -0.72101857075E-01  0.37744304973E+01  0.51100000000E-03 0.  1.
         12    1    3    3    0    0 -0.12586111396E+02  0.35199112484E+02 -0.40452851622E+01  0.37599894305E+02  0.00000000000E+00 0. -1.
</event>
<event>
 7    1  0.2903212E-011  0.5052886E+02  0.7816164E-02  0.1300439E+00
        -11   -1    0    0    0    0  0.00000000000E+00  0.00000000000E+00  0.45593999997E+02  0.45594000000E+02  0.51100000000E-03 0.  1.
         11   -1    0    0    0    0 -0.00000000000E+00 -0.00000000000E+00 -0.45593999997E+02  0.45594000000E+02  0.51100000000E-03 0. -1.
    9900012    2    1    2    0    0  0.44522360089E+01  0.27735921248E+02 -0.29394935661E+02  0.50528856189E+02  0.29999988871E+02 0.  0.
        -12    1    1    2    0    0 -0.44522360089E+01 -0.27735921248E+02  0.29394935661E+02  0.40659143811E+02  0.00000000000E+00 0.  1.
         11    1    3    3    0    0 -0.17421625865E+01  0.17286595900E+02 -0.19411143020E+02  0.26050988501E+02  0.51100000000E-03 0. -1.
        -11    1    3    3    0    0 -0.56311196177E+01  0.86313311276E+01 -0.56482412074E+01  0.11752106798E+02  0.51100000000E-03 0.  1.
         12    1    3    3    0    0  0.11825518213E+02  0.18179942205E+01 -0.43355514340E+01  0.12725760890E+02  0.00000000000E+00 0. -1.
</event>
<event>
 7    1  0.2903212E-011  0.5052886E+02  0.7816164E-02  0.1300439E+00
        -11   -1    0    0    0    0  0.00000000000E+00  0.00000000000E+00  0.45593999997E+02  0.45594000000E+02  0.51100000000E-03 0.  1.
         11   -1    0    0    0    0 -0.00000000000E+00 -0.00000000000E+00 -0.45593999997E+02  0.45594000000E+02  0.51100000000E-03 0. -1.
    9900012    2    1    2    0    0  0.45374120774E+01 -0.14438496055E+01 -0.40379361983E+02  0.50528859770E+02  0.29999999758E+02 0.  0.
        -12    1    1    2    0    0 -0.45374120774E+01  0.14438496055E+01  0.40379361983E+02  0.40659140230E+02  0.00000000000E+00 0.  1.
         11    1    3    3    0    0  0.94670926749E+01 -0.19189073809E+01 -0.23355097063E+01  0.99379401840E+01  0.51100000000E-03 0. -1.
        -11    1    3    3    0    0  0.17218607545E+01 -0.46150570592E+01 -0.79419120950E+01  0.93454547296E+01  0.51100000000E-03 0.  1.
        -12    1    3    3    0    0 -0.66515413520E+01  0.50901148345E+01 -0.30101940182E+02  0.31245464857E+02  0.00000000000E+00 0.  1.
</event>
<event>
 7    1  0.2903212E-011  0.5052884E+02  0.7816164E-02  0.1300439E+00
        -11   -1    0    0    0    0  0.00000000000E+00  0.00000000000E+00  0.45593999997E+02  0.45594000000E+02  0.51100000000E-03 0. -1.
         11   -1    0    0    0    0 -0.00000000000E+00 -0.00000000000E+00 -0.45593999997E+02  0.45594000000E+02  0.51100000000E-03 0.  1.
    9900012    2    1    2    0    0 -0.36591977758E-03  0.24499878547E+02  0.32448777742E+02  0.50528840811E+02  0.29999942130E+02 0.  0.
        -12    1    1    2    0    0  0.36591977758E-03 -0.24499878547E+02 -0.32448777742E+02  0.40659159189E+02  0.00000000000E+00 0.  1.
         11    1    3    3    0    0  0.62918042292E+00  0.18517528596E+02  0.14358548799E+02  0.23440619813E+02  0.51100000000E-03 0. -1.
        -11    1    3    3    0    0 -0.96660405343E+01  0.71983208814E+00  0.91741952657E+01  0.13346024010E+02  0.51100000000E-03 0.  1.
        -12    1    3    3    0    0  0.90364941916E+01  0.52625178628E+01  0.89160336774E+01  0.13742196988E+02  0.00000000000E+00 0.  1.
</event>
<event>
 7    1  0.2903212E-011  0.5052886E+02  0.7816164E-02  0.1300439E+00
        -11   -1    0    0    0    0  0.00000000000E+00  0.00000000000E+00  0.45593999997E+02  0.45594000000E+02  0.51100000000E-03 0.  1.
         11   -1    0    0    0    0 -0.00000000000E+00 -0.00000000000E+00 -0.45593999997E+02  0.45594000000E+02  0.51100000000E-03 0. -1.
    9900012    2    1    2    0    0 -0.31582361312E+02 -0.78188114317E+01 -0.24384136790E+02  0.50528862217E+02  0.30000007196E+02 0.  0.
        -12    1    1    2    0    0  0.31582361312E+02  0.78188114317E+01  0.24384136790E+02  0.40659137783E+02  0.00000000000E+00 0.  1.
         11    1    3    3    0    0 -0.14980205885E+02  0.44643248715E+01 -0.25047737489E+01  0.15830687184E+02  0.51100000000E-03 0. -1.
        -11    1    3    3    0    0 -0.70346507273E+01 -0.43028979782E+01  0.13332860180E+01  0.83533761876E+01  0.51100000000E-03 0.  1.
         12    1    3    3    0    0 -0.95675046992E+01 -0.79802383250E+01 -0.23212649059E+02  0.26344798846E+02  0.00000000000E+00 0. -1.
</event>
<event>
 7    1  0.2903212E-011  0.5052888E+02  0.7816164E-02  0.1300439E+00
        -11   -1    0    0    0    0  0.00000000000E+00  0.00000000000E+00  0.45593999997E+02  0.45594000000E+02  0.51100000000E-03 0.  1.
         11   -1    0    0    0    0 -0.00000000000E+00 -0.00000000000E+00 -0.45593999997E+02  0.45594000000E+02  0.51100000000E-03 0. -1.
    9900012    2    1    2    0    0 -0.15661706195E+02 -0.29315166271E+02 -0.23419983560E+02  0.50528884855E+02  0.30000076005E+02 0.  0.
        -12    1    1    2    0    0  0.15661706195E+02  0.29315166271E+02  0.23419983560E+02  0.40659115145E+02  0.00000000000E+00 0.  1.
         11    1    3    3    0    0 -0.98902826357E+01 -0.11418616707E+02 -0.17660527735E+02  0.23239981460E+02  0.51100000000E-03 0. -1.
        -11    1    3    3    0    0 -0.34624330371E+01  0.16449454138E+01 -0.65570166064E+01  0.75953113819E+01  0.51100000000E-03 0.  1.
        -12    1    3    3    0    0 -0.23089905221E+01 -0.19541494977E+02  0.79756078089E+00  0.19693592013E+02  0.00000000000E+00 0.  1.
</event>
<event>
 7    1  0.2903212E-011  0.5052886E+02  0.7816164E-02  0.1300439E+00
        -11   -1    0    0    0    0  0.00000000000E+00  0.00000000000E+00  0.45593999997E+02  0.45594000000E+02  0.51100000000E-03 0.  1.
         11   -1    0    0    0    0 -0.00000000000E+00 -0.00000000000E+00 -0.45593999997E+02  0.45594000000E+02  0.51100000000E-03 0. -1.
    9900012    2    1    2    0    0  0.14793350565E+02  0.37118737657E+02  0.75181109986E+01  0.50528857127E+02  0.29999991722E+02 0.  0.
        -12    1    1    2    0    0 -0.14793350565E+02 -0.37118737657E+02 -0.75181109986E+01  0.40659142873E+02  0.00000000000E+00 0.  1.
         11    1    3    3    0    0  0.23055834248E+01  0.14018785534E+01 -0.26148862710E+01  0.37574737363E+01  0.51100000000E-03 0. -1.
        -11    1    3    3    0    0  0.10576462598E+02  0.74910930736E+00  0.31615631339E+01  0.11064276187E+02  0.51100000000E-03 0.  1.
        -12    1    3    3    0    0  0.19113045425E+01  0.34967749797E+02  0.69714341358E+01  0.35707107203E+02  0.00000000000E+00 0.  1.
</event>
<event>
 7    1  0.2903212E-011  0.5052880E+02  0.7816164E-02  0.1300439E+00
        -11   -1    0    0    0    0  0.00000000000E+00  0.00000000000E+00  0.45593999997E+02  0.45594000000E+02  0.51100000000E-03 0.  1.
         11   -1    0    0    0    0 -0.00000000000E+00 -0.00000000000E+00 -0.45593999997E+02  0.45594000000E+02  0.51100000000E-03 0. -1.
    9900012    2    1    2    0    0 -0.13795727822E+02 -0.95862045856E+01 -0.37026388815E+02  0.50528795714E+02  0.29999805052E+02 0.  0.
        -12    1    1    2    0    0  0.13795727822E+02  0.95862045856E+01  0.37026388815E+02  0.40659204286E+02  0.00000000000E+00 0.  1.
         11    1    3    3    0    0 -0.56842556052E+01 -0.75029719066E+01 -0.15429079277E+02  0.18073788668E+02  0.51100000000E-03 0. -1.
        -11    1    3    3    0    0  0.37929478978E+01 -0.71270015062E+01 -0.99853365448E+00  0.81349661306E+01  0.51100000000E-03 0.  1.
        -12    1    3    3    0    0 -0.11904420115E+02  0.50437688271E+01 -0.20598775883E+02  0.24320040915E+02  0.00000000000E+00 0.  1.
</event>
<event>
 7    1  0.2903212E-011  0.5052887E+02  0.7816164E-02  0.1300439E+00
        -11   -1    0    0    0    0  0.00000000000E+00  0.00000000000E+00  0.45593999997E+02  0.45594000000E+02  0.51100000000E-03 0.  1.
         11   -1    0    0    0    0 -0.00000000000E+00 -0.00000000000E+00 -0.45593999997E+02  0.45594000000E+02  0.51100000000E-03 0. -1.
    9900012    2    1    2    0    0 -0.30084921882E+02  0.40502162368E+01 -0.27049178944E+02  0.50528869934E+02  0.30000030650E+02 0.  0.
        -12    1    1    2    0    0  0.30084921882E+02 -0.40502162368E+01  0.27049178944E+02  0.40659130066E+02  0.00000000000E+00 0.  1.
         11    1    3    3    0    0 -0.10677836255E+02  0.33166545217E+00 -0.86066985722E+01  0.13718653346E+02  0.51100000000E-03 0. -1.
        -11    1    3    3    0    0 -0.20862507180E+02  0.50376798599E+00 -0.31368363927E+01  0.21103026580E+02  0.51100000000E-03 0.  1.
         12    1    3    3    0    0  0.14554215521E+01  0.32147827986E+01 -0.15305643979E+02  0.15707190008E+02  0.00000000000E+00 0. -1.
</event>
<event>
 7    1  0.2903212E-011  0.5052884E+02  0.7816164E-02  0.1300439E+00
        -11   -1    0    0    0    0  0.00000000000E+00  0.00000000000E+00  0.45593999997E+02  0.45594000000E+02  0.51100000000E-03 0. -1.
         11   -1    0    0    0    0 -0.00000000000E+00 -0.00000000000E+00 -0.45593999997E+02  0.45594000000E+02  0.51100000000E-03 0.  1.
    9900012    2    1    2    0    0  0.13951849416E+02  0.21011465240E+02  0.31890936402E+02  0.50528836233E+02  0.29999928213E+02 0.  0.
        -12    1    1    2    0    0 -0.13951849416E+02 -0.21011465240E+02 -0.31890936402E+02  0.40659163767E+02  0.00000000000E+00 0.  1.
         11    1    3    3    0    0  0.20644636827E+01 -0.48022098439E+01  0.11838015559E+02  0.12940704862E+02  0.51100000000E-03 0. -1.
        -11    1    3    3    0    0 -0.29080047999E+01  0.13994520434E+01  0.24233740699E+01  0.40358022848E+01  0.51100000000E-03 0.  1.
         12    1    3    3    0    0  0.14795390533E+02  0.24414223041E+02  0.17629546773E+02  0.33552329086E+02  0.00000000000E+00 0. -1.
</event>
<event>
 7    1  0.2903212E-011  0.5052886E+02  0.7816164E-02  0.1300439E+00
        -11   -1    0    0    0    0  0.00000000000E+00  0.00000000000E+00  0.45593999997E+02  0.45594000000E+02  0.51100000000E-03 0. -1.
         11   -1    0    0    0    0 -0.00000000000E+00 -0.00000000000E+00 -0.45593999997E+02  0.45594000000E+02  0.51100000000E-03 0.  1.
    9900012    2    1    2    0    0  0.38731012472E+02 -0.54444091598E+01  0.11110020987E+02  0.50528862225E+02  0.30000007220E+02 0.  0.
        -12    1    1    2    0    0 -0.38731012472E+02  0.54444091598E+01 -0.11110020987E+02  0.40659137775E+02  0.00000000000E+00 0.  1.
         11    1    3    3    0    0  0.14817301742E+02 -0.38876406061E+01  0.13379695400E+02  0.20339184587E+02  0.51100000000E-03 0. -1.
        -11    1    3    3    0    0  0.15488790012E+02 -0.44419543564E+01  0.67906610659E+01  0.17485612729E+02  0.51100000000E-03 0.  1.
        -12    1    3    3    0    0  0.84249207184E+01  0.28851858027E+01 -0.90603354788E+01  0.12704064909E+02  0.00000000000E+00 0.  1.
</event>
<event>
 7    1  0.2903212E-011  0.5052886E+02  0.7816164E-02  0.1300439E+00
        -11   -1    0    0    0    0  0.00000000000E+00  0.00000000000E+00  0.45593999997E+02  0.45594000000E+02  0.51100000000E-03 0.  1.
         11   -1    0    0    0    0 -0.00000000000E+00 -0.00000000000E+00 -0.45593999997E+02  0.45594000000E+02  0.51100000000E-03 0. -1.
    9900012    2    1    2    0    0 -0.17585833439E+02 -0.60645961906E+01 -0.36154176319E+02  0.50528864126E+02  0.30000012998E+02 0.  0.
        -12    1    1    2    0    0  0.17585833439E+02  0.60645961906E+01  0.36154176319E+02  0.40659135874E+02  0.00000000000E+00 0.  1.
         11    1    3    3    0    0 -0.17807168209E+02 -0.43953905460E+00 -0.31779118220E+02  0.36430767070E+02  0.51100000000E-03 0. -1.
        -11    1    3    3    0    0 -0.15469576721E+01  0.32908927663E+01 -0.33616899033E+01  0.49521725036E+01  0.51100000000E-03 0.  1.
         12    1    3    3    0    0  0.17682924424E+01 -0.89159499023E+01 -0.10133681958E+01  0.91459245526E+01  0.00000000000E+00 0. -1.
</event>
<event>
 7    1  0.2903212E-011  0.5052886E+02  0.7816164E-02  0.1300439E+00
        -11   -1    0    0    0    0  0.00000000000E+00  0.00000000000E+00  0.45593999997E+02  0.45594000000E+02  0.51100000000E-03 0. -1.
         11   -1    0    0    0    0 -0.00000000000E+00 -0.00000000000E+00 -0.45593999997E+02  0.45594000000E+02  0.51100000000E-03 0.  1.
    9900012    2    1    2    0    0 -0.27775587867E+02  0.29599479233E+02 -0.23565270663E+01  0.50528859920E+02  0.30000000213E+02 0.  0.
        -12    1    1    2    0    0  0.27775587867E+02 -0.29599479233E+02  0.23565270663E+01  0.40659140080E+02  0.00000000000E+00 0.  1.
         11    1    3    3    0    0 -0.19840066892E+02  0.95975748481E+01 -0.62243059553E+01  0.22901608724E+02  0.51100000000E-03 0. -1.
        -11    1    3    3    0    0  0.34440509994E+01  0.48033641131E+01 -0.39342494910E+01  0.71001488300E+01  0.51100000000E-03 0.  1.
         12    1    3    3    0    0 -0.11379571974E+02  0.15198540272E+02  0.78020283801E+01  0.20527102366E+02  0.00000000000E+00 0. -1.
</event>
<event>
 7    1  0.2903212E-011  0.5052886E+02  0.7816164E-02  0.1300439E+00
        -11   -1    0    0    0    0  0.00000000000E+00  0.00000000000E+00  0.45593999997E+02  0.45594000000E+02  0.51100000000E-03 0. -1.
         11   -1    0    0    0    0 -0.00000000000E+00 -0.00000000000E+00 -0.45593999997E+02  0.45594000000E+02  0.51100000000E-03 0.  1.
    9900012    2    1    2    0    0  0.38141998018E+02  0.13299513532E+02  0.46342757087E+01  0.50528860998E+02  0.30000003490E+02 0.  0.
        -12    1    1    2    0    0 -0.38141998018E+02 -0.13299513532E+02 -0.46342757087E+01  0.40659139002E+02  0.00000000000E+00 0.  1.
         11    1    3    3    0    0  0.32630460579E+02  0.10910797387E+02  0.97666026658E+01  0.35765611767E+02  0.51100000000E-03 0. -1.
        -11    1    3    3    0    0 -0.17082233873E+00  0.14306007923E+01  0.38390871699E+01  0.41005352648E+01  0.51100000000E-03 0.  1.
        -12    1    3    3    0    0  0.56823597784E+01  0.95811535275E+00 -0.89714141270E+01  0.10662713966E+02  0.00000000000E+00 0.  1.
</event>
<event>
 7    1  0.2903212E-011  0.5052886E+02  0.7816164E-02  0.1300439E+00
        -11   -1    0    0    0    0  0.00000000000E+00  0.00000000000E+00  0.45593999997E+02  0.45594000000E+02  0.51100000000E-03 0.  1.
         11   -1    0    0    0    0 -0.00000000000E+00 -0.00000000000E+00 -0.45593999997E+02  0.45594000000E+02  0.51100000000E-03 0. -1.
    9900012    2    1    2    0    0  0.36861897218E+02  0.16298124483E+02 -0.53607241675E+01  0.50528859678E+02  0.29999999476E+02 0.  0.
        -12    1    1    2    0    0 -0.36861897218E+02 -0.16298124483E+02  0.53607241675E+01  0.40659140322E+02  0.00000000000E+00 0.  1.
         11    1    3    3    0    0  0.73468241508E+01  0.59138356925E+01 -0.68571699175E+01  0.11660619934E+02  0.51100000000E-03 0. -1.
        -11    1    3    3    0    0  0.93432915796E+01  0.47451172771E+01 -0.10413708539E+02  0.14773576457E+02  0.51100000000E-03 0.  1.
        -12    1    3    3    0    0  0.20171781487E+02  0.56391715137E+01  0.11910154289E+02  0.24094663287E+02  0.00000000000E+00 0.  1.
</event>
<event>
 7    1  0.2903212E-011  0.5052886E+02  0.7816164E-02  0.1300439E+00
        -11   -1    0    0    0    0  0.00000000000E+00  0.00000000000E+00  0.45593999997E+02  0.45594000000E+02  0.51100000000E-03 0.  1.
         11   -1    0    0    0    0 -0.00000000000E+00 -0.00000000000E+00 -0.45593999997E+02  0.45594000000E+02  0.51100000000E-03 0. -1.
    9900012    2    1    2    0    0  0.24538528277E+02 -0.27202026335E+01 -0.32305211227E+02  0.50528861485E+02  0.30000004970E+02 0.  0.
        -12    1    1    2    0    0 -0.24538528277E+02  0.27202026335E+01  0.32305211227E+02  0.40659138515E+02  0.00000000000E+00 0.  1.
         11    1    3    3    0    0  0.87378820397E+01  0.22456936682E+01 -0.11847618178E+02  0.14891600966E+02  0.51100000000E-03 0. -1.
        -11    1    3    3    0    0  0.12485421950E+02 -0.94712283532E+01 -0.24254412025E+02  0.28876745501E+02  0.51100000000E-03 0.  1.
        -12    1    3    3    0    0  0.33152242869E+01  0.45053320515E+01  0.37968189762E+01  0.67605150178E+01  0.00000000000E+00 0.  1.
</event>
<event>
 7    1  0.2903212E-011  0.5052886E+02  0.7816164E-02  0.1300439E+00
        -11   -1    0    0    0    0  0.00000000000E+00  0.00000000000E+00  0.45593999997E+02  0.45594000000E+02  0.51100000000E-03 0.  1.
         11   -1    0    0    0    0 -0.00000000000E+00 -0.00000000000E+00 -0.45593999997E+02  0.45594000000E+02  0.51100000000E-03 0. -1.
    9900012    2    1    2    0    0 -0.88668199355E+01  0.48778985485E+01 -0.39379576774E+02  0.50528862565E+02  0.30000008254E+02 0.  0.
        -12    1    1    2    0    0  0.88668199355E+01 -0.48778985485E+01  0.39379576774E+02  0.40659137435E+02  0.00000000000E+00 0.  1.
         11    1    3    3    0    0  0.80368866969E+00 -0.54022925044E+01 -0.24150783501E+02  0.24760674945E+02  0.51100000000E-03 0. -1.
        -11    1    3    3    0    0 -0.14522877323E+00 -0.37371258362E+01 -0.37703187178E+01  0.53106030173E+01  0.51100000000E-03 0.  1.
         12    1    3    3    0    0 -0.95252798320E+01  0.14017316889E+02 -0.11458474555E+02  0.20457584603E+02  0.00000000000E+00 0. -1.
</event>
<event>
 7    1  0.2903212E-011  0.5052886E+02  0.7816164E-02  0.1300439E+00
        -11   -1    0    0    0    0  0.00000000000E+00  0.00000000000E+00  0.45593999997E+02  0.45594000000E+02  0.51100000000E-03 0. -1.
         11   -1    0    0    0    0 -0.00000000000E+00 -0.00000000000E+00 -0.45593999997E+02  0.45594000000E+02  0.51100000000E-03 0.  1.
    9900012    2    1    2    0    0 -0.31847586398E+02 -0.21197075619E+02 -0.13768826517E+02  0.50528863784E+02  0.30000011957E+02 0.  0.
        -12    1    1    2    0    0  0.31847586398E+02  0.21197075619E+02  0.13768826517E+02  0.40659136216E+02  0.00000000000E+00 0.  1.
         11    1    3    3    0    0 -0.58660730880E+01 -0.92144333157E+00 -0.13605546556E+01  0.60918782423E+01  0.51100000000E-03 0. -1.
        -11    1    3    3    0    0 -0.30410549775E+02 -0.17706080505E+02 -0.15503834604E+02  0.38453552659E+02  0.51100000000E-03 0.  1.
         12    1    3    3    0    0  0.44290364643E+01 -0.25695517824E+01  0.30955627423E+01  0.59834328822E+01  0.00000000000E+00 0. -1.
</event>
<event>
 7    1  0.2903212E-011  0.5052886E+02  0.7816164E-02  0.1300439E+00
        -11   -1    0    0    0    0  0.00000000000E+00  0.00000000000E+00  0.45593999997E+02  0.45594000000E+02  0.51100000000E-03 0.  1.
         11   -1    0    0    0    0 -0.00000000000E+00 -0.00000000000E+00 -0.45593999997E+02  0.45594000000E+02  0.51100000000E-03 0. -1.
    9900012    2    1    2    0    0 -0.31720896263E+02  0.25431393409E+02  0.44121823590E+00  0.50528859527E+02  0.29999999017E+02 0.  0.
        -12    1    1    2    0    0  0.31720896263E+02 -0.25431393409E+02 -0.44121823590E+00  0.40659140473E+02  0.00000000000E+00 0.  1.
         11    1    3    3    0    0 -0.10030827451E+01 -0.15902744349E+01 -0.24922159881E+01  0.31219046373E+01  0.51100000000E-03 0. -1.
        -11    1    3    3    0    0  0.14410504956E+01  0.19919960049E+00 -0.46298150740E+01  0.48529882436E+01  0.51100000000E-03 0.  1.
         12    1    3    3    0    0 -0.32158864014E+02  0.26822468244E+02  0.75632492980E+01  0.42553966646E+02  0.00000000000E+00 0. -1.
</event>
<event>
 7    1  0.2903212E-011  0.5052885E+02  0.7816164E-02  0.1300439E+00
        -11   -1    0    0    0    0  0.00000000000E+00  0.00000000000E+00  0.45593999997E+02  0.45594000000E+02  0.51100000000E-03 0.  1.
         11   -1    0    0    0    0 -0.00000000000E+00 -0.00000000000E+00 -0.45593999997E+02  0.45594000000E+02  0.51100000000E-03 0. -1.
    9900012    2    1    2    0    0  0.17127762237E+00  0.18165852319E+00 -0.40658381671E+02  0.50528851756E+02  0.29999975398E+02 0.  0.
        -12    1    1    2    0    0 -0.17127762237E+00 -0.18165852319E+00  0.40658381671E+02  0.40659148244E+02  0.00000000000E+00 0.  1.
         11    1    3    3    0    0  0.58094730500E+00  0.28132412519E+01 -0.16311395733E+00  0.28772265356E+01  0.51100000000E-03 0. -1.
        -11    1    3    3    0    0  0.48580236283E+01  0.87198644615E+01 -0.78779768682E+01  0.12716090185E+02  0.51100000000E-03 0.  1.
         12    1    3    3    0    0 -0.52676933110E+01 -0.11351447190E+02 -0.32617290845E+02  0.34935535035E+02  0.00000000000E+00 0. -1.
</event>
<event>
 7    1  0.2903212E-011  0.5052882E+02  0.7816164E-02  0.1300439E+00
        -11   -1    0    0    0    0  0.00000000000E+00  0.00000000000E+00  0.45593999997E+02  0.45594000000E+02  0.51100000000E-03 0. -1.
         11   -1    0    0    0    0 -0.00000000000E+00 -0.00000000000E+00 -0.45593999997E+02  0.45594000000E+02  0.51100000000E-03 0.  1.
    9900012    2    1    2    0    0  0.17120365459E+02  0.28172034664E+02  0.23799123619E+02  0.50528822246E+02  0.29999885699E+02 0.  0.
        -12    1    1    2    0    0 -0.17120365459E+02 -0.28172034664E+02 -0.23799123619E+02  0.40659177754E+02  0.00000000000E+00 0.  1.
         11    1    3    3    0    0  0.13196063027E+02  0.16181780891E+02  0.50366176405E+01  0.21479144064E+02  0.51100000000E-03 0. -1.
        -11    1    3    3    0    0  0.15583139488E+00  0.10144680158E+02  0.33600553243E+00  0.10151439253E+02  0.51100000000E-03 0.  1.
        -12    1    3    3    0    0  0.37684710375E+01  0.18455736157E+01  0.18426500446E+02  0.18898238929E+02  0.00000000000E+00 0.  1.
</event>
<event>
 7    1  0.2903212E-011  0.5052886E+02  0.7816164E-02  0.1300439E+00
        -11   -1    0    0    0    0  0.00000000000E+00  0.00000000000E+00  0.45593999997E+02  0.45594000000E+02  0.51100000000E-03 0.  1.
         11   -1    0    0    0    0 -0.00000000000E+00 -0.00000000000E+00 -0.45593999997E+02  0.45594000000E+02  0.51100000000E-03 0. -1.
    9900012    2    1    2    0    0 -0.38291370919E+02  0.13430477306E+02  0.25610324764E+01  0.50528859640E+02  0.29999999361E+02 0.  0.
        -12    1    1    2    0    0  0.38291370919E+02 -0.13430477306E+02 -0.25610324764E+01  0.40659140360E+02  0.00000000000E+00 0.  1.
         11    1    3    3    0    0 -0.29686228766E+02  0.16329354592E+02 -0.10330948339E+01  0.33896714958E+02  0.51100000000E-03 0. -1.
        -11    1    3    3    0    0 -0.52361565831E+01  0.45430932212E+01 -0.13793733324E+01  0.70682177974E+01  0.51100000000E-03 0.  1.
        -12    1    3    3    0    0 -0.33689855693E+01 -0.74419705075E+01  0.49735006428E+01  0.95639268841E+01  0.00000000000E+00 0.  1.
</event>
<event>
 7    1  0.2903212E-011  0.5052888E+02  0.7816164E-02  0.1300439E+00
        -11   -1    0    0    0    0  0.00000000000E+00  0.00000000000E+00  0.45593999997E+02  0.45594000000E+02  0.51100000000E-03 0.  1.
         11   -1    0    0    0    0 -0.00000000000E+00 -0.00000000000E+00 -0.45593999997E+02  0.45594000000E+02  0.51100000000E-03 0. -1.
    9900012    2    1    2    0    0  0.49006791504E+00  0.13118475396E+02 -0.38481547107E+02  0.50528880100E+02  0.30000061553E+02 0.  0.
        -12    1    1    2    0    0 -0.49006791504E+00 -0.13118475396E+02  0.38481547107E+02  0.40659119900E+02  0.00000000000E+00 0.  1.
         11    1    3    3    0    0 -0.42341713794E+01  0.51170373331E+01 -0.16509002606E+02  0.17794927526E+02  0.51100000000E-03 0. -1.
        -11    1    3    3    0    0 -0.39499548619E+01  0.13450704351E+02 -0.12842876346E+02  0.19012181990E+02  0.51100000000E-03 0.  1.
        -12    1    3    3    0    0  0.86741941563E+01 -0.54492662880E+01 -0.91296681548E+01  0.13721770584E+02  0.00000000000E+00 0.  1.
</event>
<event>
 7    1  0.2903212E-011  0.5052886E+02  0.7816164E-02  0.1300439E+00
        -11   -1    0    0    0    0  0.00000000000E+00  0.00000000000E+00  0.45593999997E+02  0.45594000000E+02  0.51100000000E-03 0. -1.
         11   -1    0    0    0    0 -0.00000000000E+00 -0.00000000000E+00 -0.45593999997E+02  0.45594000000E+02  0.51100000000E-03 0.  1.
    9900012    2    1    2    0    0 -0.35971535614E+02 -0.10503934880E+02  0.15775981492E+02  0.50528860629E+02  0.30000002367E+02 0.  0.
        -12    1    1    2    0    0  0.35971535614E+02  0.10503934880E+02 -0.15775981492E+02  0.40659139371E+02  0.00000000000E+00 0.  1.
         11    1    3    3    0    0 -0.23268497431E+02 -0.33282126586E+01 -0.10202731689E+01  0.23527450559E+02  0.51100000000E-03 0. -1.
        -11    1    3    3    0    0  0.63142902017E+00  0.37195489483E+01  0.18591468865E+01  0.42059689006E+01  0.51100000000E-03 0.  1.
         12    1    3    3    0    0 -0.13334467203E+02 -0.10895271170E+02  0.14937107775E+02  0.22795441170E+02  0.00000000000E+00 0. -1.
</event>
<event>
 7    1  0.2903212E-011  0.5052889E+02  0.7816164E-02  0.1300439E+00
        -11   -1    0    0    0    0  0.00000000000E+00  0.00000000000E+00  0.45593999997E+02  0.45594000000E+02  0.51100000000E-03 0.  1.
         11   -1    0    0    0    0 -0.00000000000E+00 -0.00000000000E+00 -0.45593999997E+02  0.45594000000E+02  0.51100000000E-03 0. -1.
    9900012    2    1    2    0    0  0.19127555125E+02  0.67529753466E+01 -0.35237720343E+02  0.50528893074E+02  0.30000100986E+02 0.  0.
        -12    1    1    2    0    0 -0.19127555125E+02 -0.67529753466E+01  0.35237720343E+02  0.40659106926E+02  0.00000000000E+00 0.  1.
         11    1    3    3    0    0  0.15619323390E+02  0.13470289131E+02 -0.21082284088E+02  0.29493637536E+02  0.51100000000E-03 0. -1.
        -11    1    3    3    0    0  0.51219326036E+01  0.27737789790E+01 -0.65577166695E+01  0.87710712914E+01  0.51100000000E-03 0.  1.
        -12    1    3    3    0    0 -0.16137008683E+01 -0.94910927637E+01 -0.75977195846E+01  0.12264184246E+02  0.00000000000E+00 0.  1.
</event>
<event>
 7    1  0.2903212E-011  0.5052886E+02  0.7816164E-02  0.1300439E+00
        -11   -1    0    0    0    0  0.00000000000E+00  0.00000000000E+00  0.45593999997E+02  0.45594000000E+02  0.51100000000E-03 0.  1.
         11   -1    0    0    0    0 -0.00000000000E+00 -0.00000000000E+00 -0.45593999997E+02  0.45594000000E+02  0.51100000000E-03 0. -1.
    9900012    2    1    2    0    0  0.17019523499E+02  0.33792447315E+02 -0.14885297387E+02  0.50528858912E+02  0.29999997149E+02 0.  0.
        -12    1    1    2    0    0 -0.17019523499E+02 -0.33792447315E+02  0.14885297387E+02  0.40659141088E+02  0.00000000000E+00 0.  1.
         11    1    3    3    0    0  0.11784107258E+02  0.28560989498E+01  0.45073902880E+00  0.12133657776E+02  0.51100000000E-03 0. -1.
        -11    1    3    3    0    0 -0.21451252177E+01  0.73355274207E+01 -0.10837605887E+02  0.13261418716E+02  0.51100000000E-03 0.  1.
        -12    1    3    3    0    0  0.73805414587E+01  0.23600820945E+02 -0.44984305288E+01  0.25133782420E+02  0.00000000000E+00 0.  1.
</event>
<event>
 7    1  0.2903212E-011  0.5052886E+02  0.7816164E-02  0.1300439E+00
        -11   -1    0    0    0    0  0.00000000000E+00  0.00000000000E+00  0.45593999997E+02  0.45594000000E+02  0.51100000000E-03 0.  1.
         11   -1    0    0    0    0 -0.00000000000E+00 -0.00000000000E+00 -0.45593999997E+02  0.45594000000E+02  0.51100000000E-03 0. -1.
    9900012    2    1    2    0    0 -0.15190343436E+01  0.30036136281E+02 -0.27362171894E+02  0.50528863280E+02  0.30000010426E+02 0.  0.
        -12    1    1    2    0    0  0.15190343436E+01 -0.30036136281E+02  0.27362171894E+02  0.40659136720E+02  0.00000000000E+00 0.  1.
         11    1    3    3    0    0 -0.30840534555E+01  0.17995600540E+02 -0.15095964280E+02  0.23690528958E+02  0.51100000000E-03 0. -1.
        -11    1    3    3    0    0  0.15568580929E+01  0.17921936404E+02 -0.91762682372E+01  0.20194640641E+02  0.51100000000E-03 0.  1.
        -12    1    3    3    0    0  0.81610190185E-02 -0.58814006637E+01 -0.30899393773E+01  0.66436936808E+01  0.00000000000E+00 0.  1.
</event>
<event>
 7    1  0.2903212E-011  0.5052886E+02  0.7816164E-02  0.1300439E+00
        -11   -1    0    0    0    0  0.00000000000E+00  0.00000000000E+00  0.45593999997E+02  0.45594000000E+02  0.51100000000E-03 0.  1.
         11   -1    0    0    0    0 -0.00000000000E+00 -0.00000000000E+00 -0.45593999997E+02  0.45594000000E+02  0.51100000000E-03 0. -1.
    9900012    2    1    2    0    0  0.26114246549E+02 -0.29610041559E+02 -0.97188938523E+01  0.50528864106E+02  0.30000012936E+02 0.  0.
        -12    1    1    2    0    0 -0.26114246549E+02  0.29610041559E+02  0.97188938523E+01  0.40659135894E+02  0.00000000000E+00 0.  1.
         11    1    3    3    0    0  0.26527491799E+02 -0.18302034808E+02 -0.10583632782E+02  0.33921756770E+02  0.51100000000E-03 0.  1.
        -11    1    3    3    0    0  0.15163843694E+01 -0.11580380049E+02 -0.31911377931E+01  0.12107352490E+02  0.51100000000E-03 0. -1.
        -12    1    3    3    0    0 -0.19296296193E+01  0.27237329762E+00  0.40558767228E+01  0.44997548457E+01  0.00000000000E+00 0.  1.
</event>
<event>
 7    1  0.2903212E-011  0.5052886E+02  0.7816164E-02  0.1300439E+00
        -11   -1    0    0    0    0  0.00000000000E+00  0.00000000000E+00  0.45593999997E+02  0.45594000000E+02  0.51100000000E-03 0.  1.
         11   -1    0    0    0    0 -0.00000000000E+00 -0.00000000000E+00 -0.45593999997E+02  0.45594000000E+02  0.51100000000E-03 0. -1.
    9900012    2    1    2    0    0 -0.70856716423E+00  0.40029364102E+02 -0.70931925824E+01  0.50528862787E+02  0.30000008928E+02 0.  0.
        -12    1    1    2    0    0  0.70856716423E+00 -0.40029364102E+02  0.70931925824E+01  0.40659137213E+02  0.00000000000E+00 0.  1.
         11    1    3    3    0    0  0.77373834329E+01  0.26853641779E+02 -0.11714129611E+02  0.30301914328E+02  0.51100000000E-03 0.  1.
        -11    1    3    3    0    0 -0.70404468219E+01  0.13707377764E+02  0.44171148750E-01  0.15409803632E+02  0.51100000000E-03 0. -1.
        -12    1    3    3    0    0 -0.14055037752E+01 -0.53165543996E+00  0.45767658799E+01  0.48171448274E+01  0.00000000000E+00 0.  1.
</event>
<event>
 7    1  0.2903212E-011  0.5052885E+02  0.7816164E-02  0.1300439E+00
        -11   -1    0    0    0    0  0.00000000000E+00  0.00000000000E+00  0.45593999997E+02  0.45594000000E+02  0.51100000000E-03 0.  1.
         11   -1    0    0    0    0 -0.00000000000E+00 -0.00000000000E+00 -0.45593999997E+02  0.45594000000E+02  0.51100000000E-03 0. -1.
    9900012    2    1    2    0    0 -0.31415522757E+02 -0.25792554004E+02 -0.98759083799E+00  0.50528852840E+02  0.29999978693E+02 0.  0.
        -12    1    1    2    0    0  0.31415522757E+02  0.25792554004E+02  0.98759083799E+00  0.40659147160E+02  0.00000000000E+00 0.  1.
         11    1    3    3    0    0 -0.19011363025E+02 -0.17168082925E+02 -0.54037303408E+01  0.26179673360E+02  0.51100000000E-03 0. -1.
        -11    1    3    3    0    0  0.27583434259E+01 -0.44267198086E+01  0.66576431187E+01  0.84574534510E+01  0.51100000000E-03 0.  1.
         12    1    3    3    0    0 -0.15162503158E+02 -0.41977512705E+01 -0.22415036158E+01  0.15891726029E+02  0.00000000000E+00 0. -1.
</event>
<event>
 7    1  0.2903212E-011  0.5052885E+02  0.7816164E-02  0.1300439E+00
        -11   -1    0    0    0    0  0.00000000000E+00  0.00000000000E+00  0.45593999997E+02  0.45594000000E+02  0.51100000000E-03 0.  1.
         11   -1    0    0    0    0 -0.00000000000E+00 -0.00000000000E+00 -0.45593999997E+02  0.45594000000E+02  0.51100000000E-03 0. -1.
    9900012    2    1    2    0    0 -0.12431757219E+02 -0.38696846867E+02 -0.10824777102E+01  0.50528852161E+02  0.29999976628E+02 0.  0.
        -12    1    1    2    0    0  0.12431757219E+02  0.38696846867E+02  0.10824777102E+01  0.40659147839E+02  0.00000000000E+00 0.  1.
         11    1    3    3    0    0  0.39425633544E+00 -0.14763573361E+02  0.15395031777E+01  0.14848858769E+02  0.51100000000E-03 0. -1.
        -11    1    3    3    0    0  0.21741341192E+01 -0.19677983531E+02 -0.33112232000E+01  0.20072720153E+02  0.51100000000E-03 0.  1.
        -12    1    3    3    0    0 -0.15000147673E+02 -0.42552899758E+01  0.68924231213E+00  0.15607273239E+02  0.00000000000E+00 0.  1.
</event>
<event>
 7    1  0.2903212E-011  0.5052886E+02  0.7816164E-02  0.1300439E+00
        -11   -1    0    0    0    0  0.00000000000E+00  0.00000000000E+00  0.45593999997E+02  0.45594000000E+02  0.51100000000E-03 0.  1.
         11   -1    0    0    0    0 -0.00000000000E+00 -0.00000000000E+00 -0.45593999997E+02  0.45594000000E+02  0.51100000000E-03 0. -1.
    9900012    2    1    2    0    0  0.11567205406E+01  0.29094531143E+02 -0.28378446811E+02  0.50528856031E+02  0.29999988393E+02 0.  0.
        -12    1    1    2    0    0 -0.11567205406E+01 -0.29094531143E+02  0.28378446811E+02  0.40659143969E+02  0.00000000000E+00 0.  1.
         11    1    3    3    0    0  0.18200746724E+01  0.81220743659E+01  0.27396821415E+01  0.87627976307E+01  0.51100000000E-03 0. -1.
        -11    1    3    3    0    0  0.66479154643E+01  0.26362471930E+01 -0.39080213526E+01  0.81496754804E+01  0.51100000000E-03 0.  1.
         12    1    3    3    0    0 -0.73112695961E+01  0.18336209584E+02 -0.27210107600E+02  0.33616382920E+02  0.00000000000E+00 0. -1.
</event>
<event>
 7    1  0.2903212E-011  0.5052887E+02  0.7816164E-02  0.1300439E+00
        -11   -1    0    0    0    0  0.00000000000E+00  0.00000000000E+00  0.45593999997E+02  0.45594000000E+02  0.51100000000E-03 0.  1.
         11   -1    0    0    0    0 -0.00000000000E+00 -0.00000000000E+00 -0.45593999997E+02  0.45594000000E+02  0.51100000000E-03 0. -1.
    9900012    2    1    2    0    0  0.26448977311E+02 -0.25174752153E+01 -0.30777897681E+02  0.50528867349E+02  0.30000022795E+02 0.  0.
        -12    1    1    2    0    0 -0.26448977311E+02  0.25174752153E+01  0.30777897681E+02  0.40659132651E+02  0.00000000000E+00 0.  1.
         11    1    3    3    0    0  0.28225005081E+02  0.23254068093E+00 -0.15856966010E+02  0.32375119433E+02  0.51100000000E-03 0. -1.
        -11    1    3    3    0    0  0.77922401023E+00 -0.38048202121E+00  0.13000172226E+01  0.15626905218E+01  0.51100000000E-03 0.  1.
        -12    1    3    3    0    0 -0.25552517806E+01 -0.23695338750E+01 -0.16220948894E+02  0.16591057395E+02  0.00000000000E+00 0.  1.
</event>
<event>
 7    1  0.2903212E-011  0.5052886E+02  0.7816164E-02  0.1300439E+00
        -11   -1    0    0    0    0  0.00000000000E+00  0.00000000000E+00  0.45593999997E+02  0.45594000000E+02  0.51100000000E-03 0. -1.
         11   -1    0    0    0    0 -0.00000000000E+00 -0.00000000000E+00 -0.45593999997E+02  0.45594000000E+02  0.51100000000E-03 0.  1.
    9900012    2    1    2    0    0 -0.12952439502E+02 -0.23858520520E+02  0.30268319993E+02  0.50528857293E+02  0.29999992229E+02 0.  0.
        -12    1    1    2    0    0  0.12952439502E+02  0.23858520520E+02 -0.30268319993E+02  0.40659142707E+02  0.00000000000E+00 0.  1.
         11    1    3    3    0    0 -0.48877538147E+01  0.16677238164E+01  0.56994582690E+01  0.76912459915E+01  0.51100000000E-03 0. -1.
        -11    1    3    3    0    0  0.79324666696E+01 -0.69787080168E+01  0.82678244098E+01  0.13415785992E+02  0.51100000000E-03 0.  1.
        -12    1    3    3    0    0 -0.15997152357E+02 -0.18547536319E+02  0.16301037314E+02  0.29421825310E+02  0.00000000000E+00 0.  1.
</event>
<event>
 7    1  0.2903212E-011  0.5052886E+02  0.7816164E-02  0.1300439E+00
        -11   -1    0    0    0    0  0.00000000000E+00  0.00000000000E+00  0.45593999997E+02  0.45594000000E+02  0.51100000000E-03 0. -1.
         11   -1    0    0    0    0 -0.00000000000E+00 -0.00000000000E+00 -0.45593999997E+02  0.45594000000E+02  0.51100000000E-03 0.  1.
    9900012    2    1    2    0    0  0.16500325097E+02  0.31129310579E+02 -0.20294611548E+02  0.50528856338E+02  0.29999989326E+02 0.  0.
        -12    1    1    2    0    0 -0.16500325097E+02 -0.31129310579E+02  0.20294611548E+02  0.40659143662E+02  0.00000000000E+00 0.  1.
         11    1    3    3    0    0  0.27150701375E+01 -0.12819886357E+01 -0.10107803065E+02  0.10544324719E+02  0.51100000000E-03 0. -1.
        -11    1    3    3    0    0 -0.28321385288E+01  0.43894367897E+01 -0.45384542839E+01  0.69199516996E+01  0.51100000000E-03 0.  1.
         12    1    3    3    0    0  0.16617393489E+02  0.28021862425E+02 -0.56483541990E+01  0.33064579920E+02  0.00000000000E+00 0. -1.
</event>
<event>
 7    1  0.2903212E-011  0.5052886E+02  0.7816164E-02  0.1300439E+00
        -11   -1    0    0    0    0  0.00000000000E+00  0.00000000000E+00  0.45593999997E+02  0.45594000000E+02  0.51100000000E-03 0.  1.
         11   -1    0    0    0    0 -0.00000000000E+00 -0.00000000000E+00 -0.45593999997E+02  0.45594000000E+02  0.51100000000E-03 0. -1.
    9900012    2    1    2    0    0 -0.39124073698E+02  0.74287914157E+01 -0.82027771689E+01  0.50528860340E+02  0.30000001490E+02 0.  0.
        -12    1    1    2    0    0  0.39124073698E+02 -0.74287914157E+01  0.82027771689E+01  0.40659139660E+02  0.00000000000E+00 0.  1.
         11    1    3    3    0    0 -0.35658411305E+02  0.34599722249E+01 -0.43641996952E+01  0.36090718251E+02  0.51100000000E-03 0. -1.
        -11    1    3    3    0    0 -0.56696350813E+01 -0.29704042019E+01 -0.47590201439E+00  0.64182977545E+01  0.51100000000E-03 0.  1.
        -12    1    3    3    0    0  0.22039726891E+01  0.69392233926E+01 -0.33626754593E+01  0.80198443346E+01  0.00000000000E+00 0.  1.
</event>
<event>
 7    1  0.2903212E-011  0.5052887E+02  0.7816164E-02  0.1300439E+00
        -11   -1    0    0    0    0  0.00000000000E+00  0.00000000000E+00  0.45593999997E+02  0.45594000000E+02  0.51100000000E-03 0.  1.
         11   -1    0    0    0    0 -0.00000000000E+00 -0.00000000000E+00 -0.45593999997E+02  0.45594000000E+02  0.51100000000E-03 0. -1.
    9900012    2    1    2    0    0 -0.39346070304E+02  0.54836142544E+01 -0.86592065498E+01  0.50528866565E+02  0.30000020410E+02 0.  0.
        -12    1    1    2    0    0  0.39346070304E+02 -0.54836142544E+01  0.86592065498E+01  0.40659133435E+02  0.00000000000E+00 0.  1.
         11    1    3    3    0    0 -0.28578949661E+02  0.74092992121E+01 -0.12235204351E+02  0.31958634269E+02  0.51100000000E-03 0.  1.
        -11    1    3    3    0    0 -0.48385213373E+01 -0.94886724133E+00 -0.56884340887E+01  0.75279426417E+01  0.51100000000E-03 0. -1.
        -12    1    3    3    0    0 -0.59285993051E+01 -0.97681771635E+00  0.92644318896E+01  0.11042289654E+02  0.00000000000E+00 0.  1.
</event>
<event>
 7    1  0.2903212E-011  0.5052886E+02  0.7816164E-02  0.1300439E+00
        -11   -1    0    0    0    0  0.00000000000E+00  0.00000000000E+00  0.45593999997E+02  0.45594000000E+02  0.51100000000E-03 0.  1.
         11   -1    0    0    0    0 -0.00000000000E+00 -0.00000000000E+00 -0.45593999997E+02  0.45594000000E+02  0.51100000000E-03 0. -1.
    9900012    2    1    2    0    0  0.78448370198E+01 -0.38767493819E+01 -0.39706358093E+02  0.50528861708E+02  0.30000005647E+02 0.  0.
        -12    1    1    2    0    0 -0.78448370198E+01  0.38767493819E+01  0.39706358093E+02  0.40659138292E+02  0.00000000000E+00 0.  1.
         11    1    3    3    0    0  0.36230895660E+01 -0.97143452255E+01 -0.21147912066E+02  0.23552695518E+02  0.51100000000E-03 0. -1.
        -11    1    3    3    0    0  0.75285338512E+01 -0.44574008312E+01 -0.77626649279E+01  0.11696418732E+02  0.51100000000E-03 0.  1.
         12    1    3    3    0    0 -0.33067863973E+01  0.10294996675E+02 -0.10795781099E+02  0.15279747457E+02  0.00000000000E+00 0. -1.
</event>
<event>
 7    1  0.2903212E-011  0.5052887E+02  0.7816164E-02  0.1300439E+00
        -11   -1    0    0    0    0  0.00000000000E+00  0.00000000000E+00  0.45593999997E+02  0.45594000000E+02  0.51100000000E-03 0.  1.
         11   -1    0    0    0    0 -0.00000000000E+00 -0.00000000000E+00 -0.45593999997E+02  0.45594000000E+02  0.51100000000E-03 0. -1.
    9900012    2    1    2    0    0  0.23426290184E+02 -0.32678955755E+02 -0.60381723157E+01  0.50528871309E+02  0.30000034831E+02 0.  0.
        -12    1    1    2    0    0 -0.23426290184E+02  0.32678955755E+02  0.60381723157E+01  0.40659128691E+02  0.00000000000E+00 0.  1.
         11    1    3    3    0    0  0.12644300306E+01 -0.13320518889E+02  0.77168034439E+00  0.13402630249E+02  0.51100000000E-03 0. -1.
        -11    1    3    3    0    0  0.17451218644E+01 -0.87356347153E+01  0.60440499210E+01  0.10765096558E+02  0.51100000000E-03 0.  1.
         12    1    3    3    0    0  0.20416738289E+02 -0.10622802151E+02 -0.12853902581E+02  0.26361144502E+02  0.00000000000E+00 0. -1.
</event>
<event>
 7    1  0.2903212E-011  0.5052885E+02  0.7816164E-02  0.1300439E+00
        -11   -1    0    0    0    0  0.00000000000E+00  0.00000000000E+00  0.45593999997E+02  0.45594000000E+02  0.51100000000E-03 0.  1.
         11   -1    0    0    0    0 -0.00000000000E+00 -0.00000000000E+00 -0.45593999997E+02  0.45594000000E+02  0.51100000000E-03 0. -1.
    9900012    2    1    2    0    0 -0.40506357865E+02 -0.31395753417E+01 -0.15951289384E+01  0.50528851003E+02  0.29999973108E+02 0.  0.
        -12    1    1    2    0    0  0.40506357865E+02  0.31395753417E+01  0.15951289384E+01  0.40659148997E+02  0.00000000000E+00 0.  1.
         11    1    3    3    0    0 -0.68031404749E+00 -0.16266401016E+01 -0.24584521510E+01  0.30253549318E+01  0.51100000000E-03 0. -1.
        -11    1    3    3    0    0 -0.26263441035E+02 -0.12200042902E+02 -0.47521392594E+01  0.29346076563E+02  0.51100000000E-03 0.  1.
         12    1    3    3    0    0 -0.13562602783E+02  0.10687107662E+02  0.56154624720E+01  0.18157419508E+02  0.00000000000E+00 0. -1.
</event>
<event>
 7    1  0.2903212E-011  0.5052886E+02  0.7816164E-02  0.1300439E+00
        -11   -1    0    0    0    0  0.00000000000E+00  0.00000000000E+00  0.45593999997E+02  0.45594000000E+02  0.51100000000E-03 0. -1.
         11   -1    0    0    0    0 -0.00000000000E+00 -0.00000000000E+00 -0.45593999997E+02  0.45594000000E+02  0.51100000000E-03 0.  1.
    9900012    2    1    2    0    0 -0.23482442322E+02  0.91898332726E+00  0.33179753579E+02  0.50528859879E+02  0.30000000088E+02 0.  0.
        -12    1    1    2    0    0  0.23482442322E+02 -0.91898332726E+00 -0.33179753579E+02  0.40659140121E+02  0.00000000000E+00 0.  1.
         11    1    3    3    0    0 -0.18617520622E+02  0.95554020516E+01  0.23263232507E+02  0.31290506059E+02  0.51100000000E-03 0. -1.
        -11    1    3    3    0    0 -0.62496941656E+01 -0.15757072876E+01 -0.62480551777E+00  0.64754855275E+01  0.51100000000E-03 0.  1.
         12    1    3    3    0    0  0.13847724655E+01 -0.70607114367E+01  0.10541326590E+02  0.12762868292E+02  0.00000000000E+00 0. -1.
</event>
<event>
 7    1  0.2903212E-011  0.5052886E+02  0.7816164E-02  0.1300439E+00
        -11   -1    0    0    0    0  0.00000000000E+00  0.00000000000E+00  0.45593999997E+02  0.45594000000E+02  0.51100000000E-03 0.  1.
         11   -1    0    0    0    0 -0.00000000000E+00 -0.00000000000E+00 -0.45593999997E+02  0.45594000000E+02  0.51100000000E-03 0. -1.
    9900012    2    1    2    0    0  0.65710894360E+01  0.68859675580E+01 -0.39529357008E+02  0.50528857964E+02  0.29999994268E+02 0.  0.
        -12    1    1    2    0    0 -0.65710894360E+01 -0.68859675580E+01  0.39529357008E+02  0.40659142036E+02  0.00000000000E+00 0.  1.
         11    1    3    3    0    0  0.21683424334E+01 -0.22668709312E+01 -0.28234356076E+01  0.42204504047E+01  0.51100000000E-03 0. -1.
        -11    1    3    3    0    0  0.26248458028E+01  0.78244696222E+00  0.39249863598E+01  0.47861839625E+01  0.51100000000E-03 0.  1.
         12    1    3    3    0    0  0.17779011999E+01  0.83703915270E+01 -0.40630907761E+02  0.41522223597E+02  0.00000000000E+00 0. -1.
</event>
<event>
 7    1  0.2903212E-011  0.5052887E+02  0.7816164E-02  0.1300439E+00
        -11   -1    0    0    0    0  0.00000000000E+00  0.00000000000E+00  0.45593999997E+02  0.45594000000E+02  0.51100000000E-03 0. -1.
         11   -1    0    0    0    0 -0.00000000000E+00 -0.00000000000E+00 -0.45593999997E+02  0.45594000000E+02  0.51100000000E-03 0.  1.
    9900012    2    1    2    0    0 -0.40497948896E+02  0.35906612106E+01  0.43403872432E+00  0.50528866926E+02  0.30000021509E+02 0.  0.
        -12    1    1    2    0    0  0.40497948896E+02 -0.35906612106E+01 -0.43403872432E+00  0.40659133074E+02  0.00000000000E+00 0.  1.
         11    1    3    3    0    0 -0.15607123400E+02  0.20282370403E+00 -0.54664542587E+01  0.16538003529E+02  0.51100000000E-03 0. -1.
        -11    1    3    3    0    0 -0.14702989571E+02  0.12118465909E+02  0.75049594022E+01  0.20478269805E+02  0.51100000000E-03 0.  1.
         12    1    3    3    0    0 -0.10187835924E+02 -0.87306284021E+01 -0.16044664192E+01  0.13512593593E+02  0.00000000000E+00 0. -1.
</event>
<event>
 7    1  0.2903212E-011  0.5052886E+02  0.7816164E-02  0.1300439E+00
        -11   -1    0    0    0    0  0.00000000000E+00  0.00000000000E+00  0.45593999997E+02  0.45594000000E+02  0.51100000000E-03 0. -1.
         11   -1    0    0    0    0 -0.00000000000E+00 -0.00000000000E+00 -0.45593999997E+02  0.45594000000E+02  0.51100000000E-03 0.  1.
    9900012    2    1    2    0    0  0.16200586302E+02  0.37047437908E+02  0.42654159121E+01  0.50528862958E+02  0.30000009447E+02 0.  0.
        -12    1    1    2    0    0 -0.16200586302E+02 -0.37047437908E+02 -0.42654159121E+01  0.40659137042E+02  0.00000000000E+00 0.  1.
         11    1    3    3    0    0  0.28948487662E+00  0.80274360809E+01 -0.31300025936E+00  0.80387499619E+01  0.51100000000E-03 0. -1.
        -11    1    3    3    0    0 -0.42785719342E+01  0.87362520823E+01  0.93305475102E+01  0.13479146685E+02  0.51100000000E-03 0.  1.
        -12    1    3    3    0    0  0.20189673359E+02  0.20283749745E+02 -0.47521313387E+01  0.29010966312E+02  0.00000000000E+00 0.  1.
</event>
<event>
 7    1  0.2903212E-011  0.5052885E+02  0.7816164E-02  0.1300439E+00
        -11   -1    0    0    0    0  0.00000000000E+00  0.00000000000E+00  0.45593999997E+02  0.45594000000E+02  0.51100000000E-03 0.  1.
         11   -1    0    0    0    0 -0.00000000000E+00 -0.00000000000E+00 -0.45593999997E+02  0.45594000000E+02  0.51100000000E-03 0. -1.
    9900012    2    1    2    0    0  0.27096980861E+02 -0.54036799641E+01 -0.29828179407E+02  0.50528850775E+02  0.29999972416E+02 0.  0.
        -12    1    1    2    0    0 -0.27096980861E+02  0.54036799641E+01  0.29828179407E+02  0.40659149225E+02  0.00000000000E+00 0.  1.
         11    1    3    3    0    0  0.48137761392E+01 -0.14895416158E+01 -0.95108925093E+01  0.10763282563E+02  0.51100000000E-03 0. -1.
        -11    1    3    3    0    0  0.42077239783E-01 -0.69459498728E+01 -0.15244918963E+02  0.16752777220E+02  0.51100000000E-03 0.  1.
        -12    1    3    3    0    0  0.22241127482E+02  0.30318115244E+01 -0.50723679349E+01  0.23012790992E+02  0.00000000000E+00 0.  1.
</event>
<event>
 7    1  0.2903212E-011  0.5052886E+02  0.7816164E-02  0.1300439E+00
        -11   -1    0    0    0    0  0.00000000000E+00  0.00000000000E+00  0.45593999997E+02  0.45594000000E+02  0.51100000000E-03 0.  1.
         11   -1    0    0    0    0 -0.00000000000E+00 -0.00000000000E+00 -0.45593999997E+02  0.45594000000E+02  0.51100000000E-03 0. -1.
    9900012    2    1    2    0    0  0.22597673605E+02 -0.33784148262E+02 -0.10687191857E+01  0.50528859738E+02  0.29999999660E+02 0.  0.
        -12    1    1    2    0    0 -0.22597673605E+02  0.33784148262E+02  0.10687191857E+01  0.40659140262E+02  0.00000000000E+00 0.  1.
         11    1    3    3    0    0  0.87575082795E+01 -0.30278465348E+02 -0.36096904332E+01  0.31725530419E+02  0.51100000000E-03 0. -1.
        -11    1    3    3    0    0  0.80118752735E+00 -0.19082344011E+01 -0.37155319466E+01  0.42530504218E+01  0.51100000000E-03 0.  1.
        -12    1    3    3    0    0  0.13038977798E+02 -0.15974485127E+01  0.62565031941E+01  0.14550278897E+02  0.00000000000E+00 0.  1.
</event>
<event>
 7    1  0.2903212E-011  0.5052887E+02  0.7816164E-02  0.1300439E+00
        -11   -1    0    0    0    0  0.00000000000E+00  0.00000000000E+00  0.45593999997E+02  0.45594000000E+02  0.51100000000E-03 0.  1.
         11   -1    0    0    0    0 -0.00000000000E+00 -0.00000000000E+00 -0.45593999997E+02  0.45594000000E+02  0.51100000000E-03 0. -1.
    9900012    2    1    2    0    0 -0.33143552079E+02  0.62904741656E+01 -0.22695815737E+02  0.50528866197E+02  0.30000019292E+02 0.  0.
        -12    1    1    2    0    0  0.33143552079E+02 -0.62904741656E+01  0.22695815737E+02  0.40659133803E+02  0.00000000000E+00 0.  1.
         11    1    3    3    0    0 -0.18344370663E+02  0.51857639339E+01 -0.19449600572E+02  0.27234078749E+02  0.51100000000E-03 0. -1.
        -11    1    3    3    0    0  0.29658812068E+01  0.40137648594E+01 -0.14863423868E+01  0.52073000327E+01  0.51100000000E-03 0.  1.
         12    1    3    3    0    0 -0.17765062623E+02 -0.29090546276E+01 -0.17598727782E+01  0.18087487416E+02  0.00000000000E+00 0. -1.
</event>
<event>
 7    1  0.2903212E-011  0.5052886E+02  0.7816164E-02  0.1300439E+00
        -11   -1    0    0    0    0  0.00000000000E+00  0.00000000000E+00  0.45593999997E+02  0.45594000000E+02  0.51100000000E-03 0. -1.
         11   -1    0    0    0    0 -0.00000000000E+00 -0.00000000000E+00 -0.45593999997E+02  0.45594000000E+02  0.51100000000E-03 0.  1.
    9900012    2    1    2    0    0  0.30520737457E+02 -0.26855971146E+02  0.63787614215E+00  0.50528862194E+02  0.30000007126E+02 0.  0.
        -12    1    1    2    0    0 -0.30520737457E+02  0.26855971146E+02 -0.63787614215E+00  0.40659137806E+02  0.00000000000E+00 0.  1.
         11    1    3    3    0    0  0.13627347273E+02 -0.68653063851E+00  0.56870202973E+01  0.14782358341E+02  0.51100000000E-03 0. -1.
        -11    1    3    3    0    0  0.16680436003E+02 -0.14670024684E+02 -0.84285167835E+01  0.23758923900E+02  0.51100000000E-03 0.  1.
        -12    1    3    3    0    0  0.21295418188E+00 -0.11499415824E+02  0.33793726284E+01  0.11987579953E+02  0.00000000000E+00 0.  1.
</event>
<event>
 7    1  0.2903212E-011  0.5052886E+02  0.7816164E-02  0.1300439E+00
        -11   -1    0    0    0    0  0.00000000000E+00  0.00000000000E+00  0.45593999997E+02  0.45594000000E+02  0.51100000000E-03 0.  1.
         11   -1    0    0    0    0 -0.00000000000E+00 -0.00000000000E+00 -0.45593999997E+02  0.45594000000E+02  0.51100000000E-03 0. -1.
    9900012    2    1    2    0    0 -0.34665365174E+02  0.18250021946E+02 -0.10881863377E+02  0.50528858418E+02  0.29999995646E+02 0.  0.
        -12    1    1    2    0    0  0.34665365174E+02 -0.18250021946E+02  0.10881863377E+02  0.40659141582E+02  0.00000000000E+00 0.  1.
         11    1    3    3    0    0 -0.12897334850E+02  0.16868415455E+02 -0.20138100450E+01  0.21329325290E+02  0.51100000000E-03 0. -1.
        -11    1    3    3    0    0 -0.71841914769E+01  0.88592387364E+01 -0.42507696204E+01  0.12172418034E+02  0.51100000000E-03 0.  1.
        -12    1    3    3    0    0 -0.14583838848E+02 -0.74776322456E+01 -0.46172837115E+01  0.17027115093E+02  0.00000000000E+00 0.  1.
</event>
<event>
 7    1  0.2903212E-011  0.5052886E+02  0.7816164E-02  0.1300439E+00
        -11   -1    0    0    0    0  0.00000000000E+00  0.00000000000E+00  0.45593999997E+02  0.45594000000E+02  0.51100000000E-03 0.  1.
         11   -1    0    0    0    0 -0.00000000000E+00 -0.00000000000E+00 -0.45593999997E+02  0.45594000000E+02  0.51100000000E-03 0. -1.
    9900012    2    1    2    0    0 -0.44348998246E+01  0.20889584625E+02 -0.34599454900E+02  0.50528863737E+02  0.30000011816E+02 0.  0.
        -12    1    1    2    0    0  0.44348998246E+01 -0.20889584625E+02  0.34599454900E+02  0.40659136263E+02  0.00000000000E+00 0.  1.
         11    1    3    3    0    0  0.10532449153E+02  0.13673187173E+02 -0.25853981182E+02  0.31085637774E+02  0.51100000000E-03 0. -1.
        -11    1    3    3    0    0 -0.26605473148E+01 -0.55945025343E+00 -0.21265486281E+01  0.34516236657E+01  0.51100000000E-03 0.  1.
         12    1    3    3    0    0 -0.12306801662E+02  0.77758477053E+01 -0.66189250896E+01  0.15991602297E+02  0.00000000000E+00 0. -1.
</event>
<event>
 7    1  0.2903212E-011  0.5052886E+02  0.7816164E-02  0.1300439E+00
        -11   -1    0    0    0    0  0.00000000000E+00  0.00000000000E+00  0.45593999997E+02  0.45594000000E+02  0.51100000000E-03 0. -1.
         11   -1    0    0    0    0 -0.00000000000E+00 -0.00000000000E+00 -0.45593999997E+02  0.45594000000E+02  0.51100000000E-03 0.  1.
    9900012    2    1    2    0    0  0.27264285490E+01 -0.30616845586E+02  0.26614676749E+02  0.50528860010E+02  0.30000000486E+02 0.  0.
        -12    1    1    2    0    0 -0.27264285490E+01  0.30616845586E+02 -0.26614676749E+02  0.40659139990E+02  0.00000000000E+00 0.  1.
         11    1    3    3    0    0 -0.40988669626E+01 -0.69731844597E+01 -0.63671856012E+00  0.81136565537E+01  0.51100000000E-03 0. -1.
        -11    1    3    3    0    0 -0.40990793616E+01 -0.14955471719E+02  0.52728130025E+01  0.16378984803E+02  0.51100000000E-03 0.  1.
         12    1    3    3    0    0  0.10924374873E+02 -0.86881894068E+01  0.21978582307E+02  0.26036218653E+02  0.00000000000E+00 0. -1.
</event>
<event>
 7    1  0.2903212E-011  0.5052887E+02  0.7816164E-02  0.1300439E+00
        -11   -1    0    0    0    0  0.00000000000E+00  0.00000000000E+00  0.45593999997E+02  0.45594000000E+02  0.51100000000E-03 0. -1.
         11   -1    0    0    0    0 -0.00000000000E+00 -0.00000000000E+00 -0.45593999997E+02  0.45594000000E+02  0.51100000000E-03 0.  1.
    9900012    2    1    2    0    0 -0.33673149410E+02 -0.17704259630E+02  0.14347240211E+02  0.50528866932E+02  0.30000021525E+02 0.  0.
        -12    1    1    2    0    0  0.33673149410E+02  0.17704259630E+02 -0.14347240211E+02  0.40659133068E+02  0.00000000000E+00 0.  1.
         11    1    3    3    0    0 -0.11402309163E+02 -0.71297006088E+01  0.13872762368E+02  0.19320942550E+02  0.51100000000E-03 0. -1.
        -11    1    3    3    0    0 -0.69395958389E+01  0.23724897460E+01  0.69684103500E+01  0.10116592364E+02  0.51100000000E-03 0.  1.
         12    1    3    3    0    0 -0.15331244407E+02 -0.12947048767E+02 -0.64939325072E+01  0.21091332017E+02  0.00000000000E+00 0. -1.
</event>
<event>
 7    1  0.2903212E-011  0.5052888E+02  0.7816164E-02  0.1300439E+00
        -11   -1    0    0    0    0  0.00000000000E+00  0.00000000000E+00  0.45593999997E+02  0.45594000000E+02  0.51100000000E-03 0. -1.
         11   -1    0    0    0    0 -0.00000000000E+00 -0.00000000000E+00 -0.45593999997E+02  0.45594000000E+02  0.51100000000E-03 0.  1.
    9900012    2    1    2    0    0 -0.23879343883E+02  0.32705077701E+02  0.36495381992E+01  0.50528876782E+02  0.30000051468E+02 0.  0.
        -12    1    1    2    0    0  0.23879343883E+02 -0.32705077701E+02 -0.36495381992E+01  0.40659123218E+02  0.00000000000E+00 0.  1.
         11    1    3    3    0    0 -0.81584684368E+01  0.59213081298E+01  0.77482894205E+00  0.10110532002E+02  0.51100000000E-03 0. -1.
        -11    1    3    3    0    0 -0.22788801958E+02  0.18093613877E+02  0.15619047408E+01  0.29140142493E+02  0.51100000000E-03 0.  1.
        -12    1    3    3    0    0  0.70679265112E+01  0.86901556942E+01  0.13128045164E+01  0.11278202288E+02  0.00000000000E+00 0.  1.
</event>
<event>
 7    1  0.2903212E-011  0.5052886E+02  0.7816164E-02  0.1300439E+00
        -11   -1    0    0    0    0  0.00000000000E+00  0.00000000000E+00  0.45593999997E+02  0.45594000000E+02  0.51100000000E-03 0.  1.
         11   -1    0    0    0    0 -0.00000000000E+00 -0.00000000000E+00 -0.45593999997E+02  0.45594000000E+02  0.51100000000E-03 0. -1.
    9900012    2    1    2    0    0 -0.28398333069E+01  0.12236459612E+02 -0.38670013962E+02  0.50528861090E+02  0.30000003770E+02 0.  0.
        -12    1    1    2    0    0  0.28398333069E+01 -0.12236459612E+02  0.38670013962E+02  0.40659138910E+02  0.00000000000E+00 0.  1.
         11    1    3    3    0    0  0.94604597138E+00  0.25260199037E+01  0.36891787168E+01  0.45701005896E+01  0.51100000000E-03 0. -1.
        -11    1    3    3    0    0  0.31947747614E+01 -0.18841378531E+01 -0.50128166831E+01  0.62357752192E+01  0.51100000000E-03 0.  1.
         12    1    3    3    0    0 -0.69806540397E+01  0.11594577561E+02 -0.37346375996E+02  0.39722985281E+02  0.00000000000E+00 0. -1.
</event>
<event>
 7    1  0.2903212E-011  0.5052885E+02  0.7816164E-02  0.1300439E+00
        -11   -1    0    0    0    0  0.00000000000E+00  0.00000000000E+00  0.45593999997E+02  0.45594000000E+02  0.51100000000E-03 0. -1.
         11   -1    0    0    0    0 -0.00000000000E+00 -0.00000000000E+00 -0.45593999997E+02  0.45594000000E+02  0.51100000000E-03 0.  1.
    9900012    2    1    2    0    0 -0.14765900351E+02 -0.22950685210E+02  0.30139687821E+02  0.50528849164E+02  0.29999967518E+02 0.  0.
        -12    1    1    2    0    0  0.14765900351E+02  0.22950685210E+02 -0.30139687821E+02  0.40659150836E+02  0.00000000000E+00 0.  1.
         11    1    3    3    0    0 -0.10027722372E+02 -0.90202883189E+01  0.10007954936E+02  0.16795236813E+02  0.51100000000E-03 0. -1.
        -11    1    3    3    0    0 -0.86287602152E+01 -0.17147993087E+02  0.83851966240E+01  0.20948047461E+02  0.51100000000E-03 0.  1.
         12    1    3    3    0    0  0.38905822367E+01  0.32175961960E+01  0.11746536261E+02  0.12785564890E+02  0.00000000000E+00 0. -1.
</event>
<event>
 7    1  0.2903212E-011  0.5052883E+02  0.7816164E-02  0.1300439E+00
        -11   -1    0    0    0    0  0.00000000000E+00  0.00000000000E+00  0.45593999997E+02  0.45594000000E+02  0.51100000000E-03 0.  1.
         11   -1    0    0    0    0 -0.00000000000E+00 -0.00000000000E+00 -0.45593999997E+02  0.45594000000E+02  0.51100000000E-03 0. -1.
    9900012    2    1    2    0    0 -0.11430029444E+01 -0.39711020365E+02 -0.86542914064E+01  0.50528826940E+02  0.29999899967E+02 0.  0.
        -12    1    1    2    0    0  0.11430029444E+01  0.39711020365E+02  0.86542914064E+01  0.40659173060E+02  0.00000000000E+00 0.  1.
         11    1    3    3    0    0 -0.10599532251E+02 -0.20932663033E+02 -0.98349246517E+01  0.25441151876E+02  0.51100000000E-03 0. -1.
        -11    1    3    3    0    0 -0.35000618436E+01 -0.51717187085E+01 -0.20365011159E+00  0.62480861820E+01  0.51100000000E-03 0.  1.
        -12    1    3    3    0    0  0.12956591150E+02 -0.13606638623E+02  0.13842833569E+01  0.18839588882E+02  0.00000000000E+00 0.  1.
</event>
<event>
 7    1  0.2903212E-011  0.5052886E+02  0.7816164E-02  0.1300439E+00
        -11   -1    0    0    0    0  0.00000000000E+00  0.00000000000E+00  0.45593999997E+02  0.45594000000E+02  0.51100000000E-03 0.  1.
         11   -1    0    0    0    0 -0.00000000000E+00 -0.00000000000E+00 -0.45593999997E+02  0.45594000000E+02  0.51100000000E-03 0. -1.
    9900012    2    1    2    0    0  0.74419833901E+01 -0.15257183795E+02 -0.36945914633E+02  0.50528863484E+02  0.30000011046E+02 0.  0.
        -12    1    1    2    0    0 -0.74419833901E+01  0.15257183795E+02  0.36945914633E+02  0.40659136516E+02  0.00000000000E+00 0.  1.
         11    1    3    3    0    0  0.22432630062E+01  0.43510837433E+01 -0.11734535949E+02  0.12714695941E+02  0.51100000000E-03 0. -1.
        -11    1    3    3    0    0  0.93250672564E-01  0.36153743353E+01 -0.69433175290E+01  0.78287473993E+01  0.51100000000E-03 0.  1.
         12    1    3    3    0    0  0.51054697113E+01 -0.23223641874E+02 -0.18268061155E+02  0.29985420144E+02  0.00000000000E+00 0. -1.
</event>
<event>
 7    1  0.2903212E-011  0.5052886E+02  0.7816164E-02  0.1300439E+00
        -11   -1    0    0    0    0  0.00000000000E+00  0.00000000000E+00  0.45593999997E+02  0.45594000000E+02  0.51100000000E-03 0.  1.
         11   -1    0    0    0    0 -0.00000000000E+00 -0.00000000000E+00 -0.45593999997E+02  0.45594000000E+02  0.51100000000E-03 0. -1.
    9900012    2    1    2    0    0  0.34658009678E+01  0.40379629527E+02  0.32617975306E+01  0.50528861050E+02  0.30000003646E+02 0.  0.
        -12    1    1    2    0    0 -0.34658009678E+01 -0.40379629527E+02 -0.32617975306E+01  0.40659138950E+02  0.00000000000E+00 0.  1.
         11    1    3    3    0    0 -0.14215446162E+00  0.57369907788E+01  0.12201769099E+02  0.13483932679E+02  0.51100000000E-03 0. -1.
        -11    1    3    3    0    0 -0.49420550023E+00  0.79383988267E+01  0.14752579332E+01  0.80894252725E+01  0.51100000000E-03 0.  1.
         12    1    3    3    0    0  0.41021609296E+01  0.26704239921E+02 -0.10415229502E+02  0.28955503098E+02  0.00000000000E+00 0. -1.
</event>
<event>
 7    1  0.2903212E-011  0.5052886E+02  0.7816164E-02  0.1300439E+00
        -11   -1    0    0    0    0  0.00000000000E+00  0.00000000000E+00  0.45593999997E+02  0.45594000000E+02  0.51100000000E-03 0.  1.
         11   -1    0    0    0    0 -0.00000000000E+00 -0.00000000000E+00 -0.45593999997E+02  0.45594000000E+02  0.51100000000E-03 0. -1.
    9900012    2    1    2    0    0  0.33055885654E+01  0.21333134068E+02 -0.34454844364E+02  0.50528858038E+02  0.29999994493E+02 0.  0.
        -12    1    1    2    0    0 -0.33055885654E+01 -0.21333134068E+02  0.34454844364E+02  0.40659141962E+02  0.00000000000E+00 0.  1.
         11    1    3    3    0    0  0.57639641528E+01  0.82744993796E+01 -0.79451926360E+01  0.12838096005E+02  0.51100000000E-03 0. -1.
        -11    1    3    3    0    0  0.95351001996E-01  0.15626360670E+02 -0.58022594993E+01  0.16669086812E+02  0.51100000000E-03 0.  1.
         12    1    3    3    0    0 -0.25537265894E+01 -0.25677259812E+01 -0.20707392229E+02  0.21021675222E+02  0.00000000000E+00 0. -1.
</event>
<event>
 7    1  0.2903212E-011  0.5052889E+02  0.7816164E-02  0.1300439E+00
        -11   -1    0    0    0    0  0.00000000000E+00  0.00000000000E+00  0.45593999997E+02  0.45594000000E+02  0.51100000000E-03 0.  1.
         11   -1    0    0    0    0 -0.00000000000E+00 -0.00000000000E+00 -0.45593999997E+02  0.45594000000E+02  0.51100000000E-03 0. -1.
    9900012    2    1    2    0    0 -0.21651612402E+02  0.10857675694E+02 -0.32657038488E+02  0.50528885353E+02  0.30000077518E+02 0.  0.
        -12    1    1    2    0    0  0.21651612402E+02 -0.10857675694E+02  0.32657038488E+02  0.40659114647E+02  0.00000000000E+00 0.  1.
         11    1    3    3    0    0  0.94290052134E+00  0.19598746971E+01 -0.53880713184E+00  0.22406435701E+01  0.51100000000E-03 0. -1.
        -11    1    3    3    0    0 -0.15281314185E+02  0.19771194042E+01 -0.84246194634E+00  0.15431698117E+02  0.51100000000E-03 0.  1.
        -12    1    3    3    0    0 -0.73131987380E+01  0.69206815926E+01 -0.31275769410E+02  0.32856543666E+02  0.00000000000E+00 0.  1.
</event>
<event>
 7    1  0.2903212E-011  0.5052886E+02  0.7816164E-02  0.1300439E+00
        -11   -1    0    0    0    0  0.00000000000E+00  0.00000000000E+00  0.45593999997E+02  0.45594000000E+02  0.51100000000E-03 0. -1.
         11   -1    0    0    0    0 -0.00000000000E+00 -0.00000000000E+00 -0.45593999997E+02  0.45594000000E+02  0.51100000000E-03 0.  1.
    9900012    2    1    2    0    0  0.97685739652E+01  0.34230032477E+02  0.19648039974E+02  0.50528860370E+02  0.30000001579E+02 0.  0.
        -12    1    1    2    0    0 -0.97685739652E+01 -0.34230032477E+02 -0.19648039974E+02  0.40659139630E+02  0.00000000000E+00 0.  1.
         11    1    3    3    0    0 -0.18170077174E+01  0.15371905209E+02  0.14054527448E+02  0.20907575872E+02  0.51100000000E-03 0. -1.
        -11    1    3    3    0    0 -0.14372253373E+01  0.13075150472E+02  0.76621873692E+01  0.15222821423E+02  0.51100000000E-03 0.  1.
        -12    1    3    3    0    0  0.13022807020E+02  0.57829767958E+01 -0.20686748435E+01  0.14398463074E+02  0.00000000000E+00 0.  1.
</event>
<event>
 7    1  0.2903212E-011  0.5052886E+02  0.7816164E-02  0.1300439E+00
        -11   -1    0    0    0    0  0.00000000000E+00  0.00000000000E+00  0.45593999997E+02  0.45594000000E+02  0.51100000000E-03 0. -1.
         11   -1    0    0    0    0 -0.00000000000E+00 -0.00000000000E+00 -0.45593999997E+02  0.45594000000E+02  0.51100000000E-03 0.  1.
    9900012    2    1    2    0    0 -0.76467197079E+01  0.34805226841E+02 -0.19577788984E+02  0.50528856388E+02  0.29999989478E+02 0.  0.
        -12    1    1    2    0    0  0.76467197079E+01 -0.34805226841E+02  0.19577788984E+02  0.40659143612E+02  0.00000000000E+00 0.  1.
         11    1    3    3    0    0  0.48178782365E+01  0.35779085249E+01 -0.22890875515E+01  0.64228733597E+01  0.51100000000E-03 0. -1.
        -11    1    3    3    0    0  0.28401059888E+00  0.49389726255E+01 -0.13826691733E+02  0.14685078044E+02  0.51100000000E-03 0.  1.
         12    1    3    3    0    0 -0.12748608543E+02  0.26288345691E+02 -0.34620096989E+01  0.29420904985E+02  0.00000000000E+00 0. -1.
</event>
<event>
 7    1 -0.2903212E-011  0.5052885E+02  0.7816164E-02  0.1300439E+00
        -11   -1    0    0    0    0  0.00000000000E+00  0.00000000000E+00  0.45593999997E+02  0.45594000000E+02  0.51100000000E-03 0.  1.
         11   -1    0    0    0    0 -0.00000000000E+00 -0.00000000000E+00 -0.45593999997E+02  0.45594000000E+02  0.51100000000E-03 0. -1.
    9900012    2    1    2    0    0  0.78814956257E+01 -0.21851126601E+02 -0.33370297771E+02  0.50528849980E+02  0.29999969999E+02 0.  0.
        -12    1    1    2    0    0 -0.78814956257E+01  0.21851126601E+02  0.33370297771E+02  0.40659150020E+02  0.00000000000E+00 0.  1.
         11    1    3    3    0    0  0.77383359920E+00 -0.52767051617E+01 -0.31394907895E+01  0.61886055360E+01  0.51100000000E-03 0. -1.
        -11    1    3    3    0    0 -0.89842076866E+01 -0.18776700270E+01 -0.34327058773E+01  0.97992398883E+01  0.51100000000E-03 0.  1.
        -12    1    3    3    0    0  0.16091869713E+02 -0.14696751413E+02 -0.26798101104E+02  0.34541004556E+02  0.00000000000E+00 0.  1.
</event>
<event>
 7    1  0.2903212E-011  0.5052886E+02  0.7816164E-02  0.1300439E+00
        -11   -1    0    0    0    0  0.00000000000E+00  0.00000000000E+00  0.45593999997E+02  0.45594000000E+02  0.51100000000E-03 0. -1.
         11   -1    0    0    0    0 -0.00000000000E+00 -0.00000000000E+00 -0.45593999997E+02  0.45594000000E+02  0.51100000000E-03 0.  1.
    9900012    2    1    2    0    0 -0.26314499359E+02 -0.26213678095E+02  0.16539529171E+02  0.50528858089E+02  0.29999994646E+02 0.  0.
        -12    1    1    2    0    0  0.26314499359E+02  0.26213678095E+02 -0.16539529171E+02  0.40659141911E+02  0.00000000000E+00 0.  1.
         11    1    3    3    0    0 -0.42857833033E+01  0.28990899898E+01  0.11144189266E+01  0.52928811716E+01  0.51100000000E-03 0. -1.
        -11    1    3    3    0    0 -0.25354231485E+01 -0.14989785151E+02 -0.22550262871E+01  0.15369032931E+02  0.51100000000E-03 0.  1.
         12    1    3    3    0    0 -0.19493292907E+02 -0.14122982934E+02  0.17680136531E+02  0.29866943986E+02  0.00000000000E+00 0. -1.
</event>
<event>
 7    1  0.2903212E-011  0.5052886E+02  0.7816164E-02  0.1300439E+00
        -11   -1    0    0    0    0  0.00000000000E+00  0.00000000000E+00  0.45593999997E+02  0.45594000000E+02  0.51100000000E-03 0.  1.
         11   -1    0    0    0    0 -0.00000000000E+00 -0.00000000000E+00 -0.45593999997E+02  0.45594000000E+02  0.51100000000E-03 0. -1.
    9900012    2    1    2    0    0  0.39036886439E+02  0.46796855201E+01 -0.10362787250E+02  0.50528864261E+02  0.30000013409E+02 0.  0.
        -12    1    1    2    0    0 -0.39036886439E+02 -0.46796855201E+01  0.10362787250E+02  0.40659135739E+02  0.00000000000E+00 0.  1.
         11    1    3    3    0    0  0.10734084027E+02 -0.14495607387E+01 -0.14124138366E+02  0.17799243554E+02  0.51100000000E-03 0. -1.
        -11    1    3    3    0    0  0.16682198985E+02  0.49377372699E+01 -0.50293247838E+01  0.18109972953E+02  0.51100000000E-03 0.  1.
        -12    1    3    3    0    0  0.11620603427E+02  0.11915089889E+01  0.87906759003E+01  0.14619647754E+02  0.00000000000E+00 0.  1.
</event>
<event>
 7    1  0.2903212E-011  0.5052886E+02  0.7816164E-02  0.1300439E+00
        -11   -1    0    0    0    0  0.00000000000E+00  0.00000000000E+00  0.45593999997E+02  0.45594000000E+02  0.51100000000E-03 0.  1.
         11   -1    0    0    0    0 -0.00000000000E+00 -0.00000000000E+00 -0.45593999997E+02  0.45594000000E+02  0.51100000000E-03 0. -1.
    9900012    2    1    2    0    0 -0.23969711050E+02  0.11152561410E+02 -0.30890754279E+02  0.50528863588E+02  0.30000011363E+02 0.  0.
        -12    1    1    2    0    0  0.23969711050E+02 -0.11152561410E+02  0.30890754279E+02  0.40659136412E+02  0.00000000000E+00 0.  1.
         11    1    3    3    0    0 -0.34706036737E+01  0.62828395148E+01  0.26846302610E+01  0.76633153483E+01  0.51100000000E-03 0. -1.
        -11    1    3    3    0    0 -0.21566307236E+01 -0.21021602630E+01  0.94610053269E+00  0.31567768892E+01  0.51100000000E-03 0.  1.
         12    1    3    3    0    0 -0.18342476653E+02  0.69718821579E+01 -0.34521485072E+02  0.39708771351E+02  0.00000000000E+00 0. -1.
</event>
<event>
 7    1  0.2903212E-011  0.5052886E+02  0.7816164E-02  0.1300439E+00
        -11   -1    0    0    0    0  0.00000000000E+00  0.00000000000E+00  0.45593999997E+02  0.45594000000E+02  0.51100000000E-03 0.  1.
         11   -1    0    0    0    0 -0.00000000000E+00 -0.00000000000E+00 -0.45593999997E+02  0.45594000000E+02  0.51100000000E-03 0. -1.
    9900012    2    1    2    0    0 -0.88293537355E+01  0.73998846549E+01 -0.38992948100E+02  0.50528858570E+02  0.29999996109E+02 0.  0.
        -12    1    1    2    0    0  0.88293537355E+01 -0.73998846549E+01  0.38992948100E+02  0.40659141430E+02  0.00000000000E+00 0.  1.
         11    1    3    3    0    0 -0.44151686880E+01  0.12681372500E+01 -0.19698824555E+02  0.20227347224E+02  0.51100000000E-03 0. -1.
        -11    1    3    3    0    0 -0.88119846411E+01 -0.49731229219E+01 -0.13907919140E+02  0.17199222075E+02  0.51100000000E-03 0.  1.
        -12    1    3    3    0    0  0.43977995936E+01  0.11104870327E+02 -0.53862044051E+01  0.13102289271E+02  0.00000000000E+00 0.  1.
</event>
<event>
 7    1  0.2903212E-011  0.5052889E+02  0.7816164E-02  0.1300439E+00
        -11   -1    0    0    0    0  0.00000000000E+00  0.00000000000E+00  0.45593999997E+02  0.45594000000E+02  0.51100000000E-03 0.  1.
         11   -1    0    0    0    0 -0.00000000000E+00 -0.00000000000E+00 -0.45593999997E+02  0.45594000000E+02  0.51100000000E-03 0. -1.
    9900012    2    1    2    0    0 -0.35121939669E+02  0.16343005127E+02  0.12349860180E+02  0.50528886518E+02  0.30000081060E+02 0.  0.
        -12    1    1    2    0    0  0.35121939669E+02 -0.16343005127E+02 -0.12349860180E+02  0.40659113482E+02  0.00000000000E+00 0.  1.
         11    1    3    3    0    0 -0.33482036556E+01  0.13818213150E+02  0.27550108109E+01  0.14482526272E+02  0.51100000000E-03 0. -1.
        -11    1    3    3    0    0 -0.94754780353E+01  0.21656410784E+01  0.97183697883E+01  0.13744868020E+02  0.51100000000E-03 0.  1.
        -12    1    3    3    0    0 -0.22298257978E+02  0.35915089826E+00 -0.12352041962E+00  0.22301492226E+02  0.00000000000E+00 0.  1.
</event>
<event>
 7    1  0.2903212E-011  0.5052885E+02  0.7816164E-02  0.1300439E+00
        -11   -1    0    0    0    0  0.00000000000E+00  0.00000000000E+00  0.45593999997E+02  0.45594000000E+02  0.51100000000E-03 0.  1.
         11   -1    0    0    0    0 -0.00000000000E+00 -0.00000000000E+00 -0.45593999997E+02  0.45594000000E+02  0.51100000000E-03 0. -1.
    9900012    2    1    2    0    0  0.35331135663E+02 -0.19777885671E+02  0.37030285778E+01  0.50528851835E+02  0.29999975639E+02 0.  0.
        -12    1    1    2    0    0 -0.35331135663E+02  0.19777885671E+02 -0.37030285778E+01  0.40659148165E+02  0.00000000000E+00 0.  1.
         11    1    3    3    0    0  0.87986644183E+01  0.32970528135E+01  0.35779032723E+01  0.10054274956E+02  0.51100000000E-03 0. -1.
        -11    1    3    3    0    0  0.26180875762E+01 -0.25009965684E+01  0.72765574765E+01  0.81275860722E+01  0.51100000000E-03 0.  1.
         12    1    3    3    0    0  0.23914383668E+02 -0.20573941916E+02 -0.71514321710E+01  0.32346990807E+02  0.00000000000E+00 0. -1.
</event>
<event>
 7    1  0.2903212E-011  0.5052888E+02  0.7816164E-02  0.1300439E+00
        -11   -1    0    0    0    0  0.00000000000E+00  0.00000000000E+00  0.45593999997E+02  0.45594000000E+02  0.51100000000E-03 0. -1.
         11   -1    0    0    0    0 -0.00000000000E+00 -0.00000000000E+00 -0.45593999997E+02  0.45594000000E+02  0.51100000000E-03 0.  1.
    9900012    2    1    2    0    0 -0.26031292652E+02  0.31157324268E+02  0.21810196455E+01  0.50528881719E+02  0.30000066473E+02 0.  0.
        -12    1    1    2    0    0  0.26031292652E+02 -0.31157324268E+02 -0.21810196455E+01  0.40659118281E+02  0.00000000000E+00 0.  1.
         11    1    3    3    0    0 -0.20175493759E+02  0.25113079865E+02  0.19582057122E+00  0.32214215413E+02  0.51100000000E-03 0. -1.
        -11    1    3    3    0    0 -0.14081287587E+01  0.10599797040E+02 -0.18938586358E+01  0.10859338133E+02  0.51100000000E-03 0.  1.
         12    1    3    3    0    0 -0.44476701338E+01 -0.45555526368E+01  0.38790577101E+01  0.74553281728E+01  0.00000000000E+00 0. -1.
</event>
<event>
 7    1  0.2903212E-011  0.5052885E+02  0.7816164E-02  0.1300439E+00
        -11   -1    0    0    0    0  0.00000000000E+00  0.00000000000E+00  0.45593999997E+02  0.45594000000E+02  0.51100000000E-03 0. -1.
         11   -1    0    0    0    0 -0.00000000000E+00 -0.00000000000E+00 -0.45593999997E+02  0.45594000000E+02  0.51100000000E-03 0.  1.
    9900012    2    1    2    0    0  0.35328610761E+02 -0.11886027669E+02 -0.16241250317E+02  0.50528848461E+02  0.29999965382E+02 0.  0.
        -12    1    1    2    0    0 -0.35328610761E+02  0.11886027669E+02  0.16241250317E+02  0.40659151539E+02  0.00000000000E+00 0.  1.
         11    1    3    3    0    0  0.95943888061E+01 -0.41162238529E+01 -0.70030979897E+01  0.12571355419E+02  0.51100000000E-03 0. -1.
        -11    1    3    3    0    0  0.15080519194E+02  0.12965328676E+00 -0.16892002148E+02  0.22644615386E+02  0.51100000000E-03 0.  1.
         12    1    3    3    0    0  0.10653702760E+02 -0.78994571026E+01  0.76538498205E+01  0.15312877656E+02  0.00000000000E+00 0. -1.
</event>
<event>
 7    1  0.2903212E-011  0.5052887E+02  0.7816164E-02  0.1300439E+00
        -11   -1    0    0    0    0  0.00000000000E+00  0.00000000000E+00  0.45593999997E+02  0.45594000000E+02  0.51100000000E-03 0. -1.
         11   -1    0    0    0    0 -0.00000000000E+00 -0.00000000000E+00 -0.45593999997E+02  0.45594000000E+02  0.51100000000E-03 0.  1.
    9900012    2    1    2    0    0  0.23896610182E+02 -0.22277825712E+02  0.24203626830E+02  0.50528867590E+02  0.30000023526E+02 0.  0.
        -12    1    1    2    0    0 -0.23896610182E+02  0.22277825712E+02 -0.24203626830E+02  0.40659132410E+02  0.00000000000E+00 0.  1.
         11    1    3    3    0    0  0.14277223459E+02 -0.10711050328E+02 -0.39757632814E+00  0.17852836638E+02  0.51100000000E-03 0. -1.
        -11    1    3    3    0    0 -0.34179913012E+01 -0.21001270484E+01  0.10601619933E+01  0.41493543917E+01  0.51100000000E-03 0.  1.
         12    1    3    3    0    0  0.13037378024E+02 -0.94666483354E+01  0.23541041164E+02  0.28526676560E+02  0.00000000000E+00 0. -1.
</event>
<event>
 7    1  0.2903212E-011  0.5052886E+02  0.7816164E-02  0.1300439E+00
        -11   -1    0    0    0    0  0.00000000000E+00  0.00000000000E+00  0.45593999997E+02  0.45594000000E+02  0.51100000000E-03 0.  1.
         11   -1    0    0    0    0 -0.00000000000E+00 -0.00000000000E+00 -0.45593999997E+02  0.45594000000E+02  0.51100000000E-03 0. -1.
    9900012    2    1    2    0    0  0.38556357891E+02 -0.43183348275E+01  0.12162441894E+02  0.50528859056E+02  0.29999997586E+02 0.  0.
        -12    1    1    2    0    0 -0.38556357891E+02  0.43183348275E+01 -0.12162441894E+02  0.40659140944E+02  0.00000000000E+00 0.  1.
         11    1    3    3    0    0  0.10813382496E+02 -0.60232960799E+01  0.26314470257E+01  0.12654400435E+02  0.51100000000E-03 0. -1.
        -11    1    3    3    0    0 -0.38936862218E+01 -0.14178503822E+01 -0.12128232987E+01  0.43176420319E+01  0.51100000000E-03 0.  1.
        -12    1    3    3    0    0  0.31636661617E+02  0.31228116346E+01  0.10743818167E+02  0.33556816589E+02  0.00000000000E+00 0.  1.
</event>
<event>
 7    1  0.2903212E-011  0.5052889E+02  0.7816164E-02  0.1300439E+00
        -11   -1    0    0    0    0  0.00000000000E+00  0.00000000000E+00  0.45593999997E+02  0.45594000000E+02  0.51100000000E-03 0.  1.
         11   -1    0    0    0    0 -0.00000000000E+00 -0.00000000000E+00 -0.45593999997E+02  0.45594000000E+02  0.51100000000E-03 0. -1.
    9900012    2    1    2    0    0 -0.18587376708E+02 -0.89615706886E+01 -0.35033735048E+02  0.50528893843E+02  0.30000103325E+02 0.  0.
        -12    1    1    2    0    0  0.18587376708E+02  0.89615706886E+01  0.35033735048E+02  0.40659106157E+02  0.00000000000E+00 0.  1.
         11    1    3    3    0    0  0.83755279319E-01 -0.22279022658E+01 -0.92454513245E+01  0.95104644422E+01  0.51100000000E-03 0. -1.
        -11    1    3    3    0    0 -0.11947376225E+01 -0.12028014394E+02 -0.16715875447E+02  0.20628160860E+02  0.51100000000E-03 0.  1.
        -12    1    3    3    0    0 -0.17476394364E+02  0.52943459708E+01 -0.90724082767E+01  0.20390268541E+02  0.00000000000E+00 0.  1.
</event>
<event>
 7    1  0.2903212E-011  0.5052885E+02  0.7816164E-02  0.1300439E+00
        -11   -1    0    0    0    0  0.00000000000E+00  0.00000000000E+00  0.45593999997E+02  0.45594000000E+02  0.51100000000E-03 0.  1.
         11   -1    0    0    0    0 -0.00000000000E+00 -0.00000000000E+00 -0.45593999997E+02  0.45594000000E+02  0.51100000000E-03 0. -1.
    9900012    2    1    2    0    0 -0.24569241617E+02  0.61512692512E+00 -0.32390438146E+02  0.50528849762E+02  0.29999969337E+02 0.  0.
        -12    1    1    2    0    0  0.24569241617E+02 -0.61512692512E+00  0.32390438146E+02  0.40659150238E+02  0.00000000000E+00 0.  1.
         11    1    3    3    0    0 -0.23887353223E+01  0.94292552511E+00 -0.41347360791E+01  0.48673614712E+01  0.51100000000E-03 0. -1.
        -11    1    3    3    0    0 -0.19338410501E+02 -0.34987900439E+01 -0.27985250520E+01  0.19850627073E+02  0.51100000000E-03 0.  1.
        -12    1    3    3    0    0 -0.28420957936E+01  0.31709914439E+01 -0.25457177015E+02  0.25810861218E+02  0.00000000000E+00 0.  1.
</event>
<event>
 7    1  0.2903212E-011  0.5052890E+02  0.7816164E-02  0.1300439E+00
        -11   -1    0    0    0    0  0.00000000000E+00  0.00000000000E+00  0.45593999997E+02  0.45594000000E+02  0.51100000000E-03 0.  1.
         11   -1    0    0    0    0 -0.00000000000E+00 -0.00000000000E+00 -0.45593999997E+02  0.45594000000E+02  0.51100000000E-03 0. -1.
    9900012    2    1    2    0    0  0.18144938021E+02  0.25782881688E+02 -0.25674247532E+02  0.50528895850E+02  0.30000109427E+02 0.  0.
        -12    1    1    2    0    0 -0.18144938021E+02 -0.25782881688E+02  0.25674247532E+02  0.40659104150E+02  0.00000000000E+00 0.  1.
         11    1    3    3    0    0 -0.38208285823E+01  0.61945636049E+01 -0.24125975512E+01  0.76675926154E+01  0.51100000000E-03 0. -1.
        -11    1    3    3    0    0  0.14657399875E+02  0.23492878007E+02 -0.17244014952E+02  0.32620710294E+02  0.51100000000E-03 0.  1.
         12    1    3    3    0    0  0.73083667282E+01 -0.39045599245E+01 -0.60176350287E+01  0.10240592941E+02  0.00000000000E+00 0. -1.
</event>
<event>
 7    1  0.2903212E-011  0.5052886E+02  0.7816164E-02  0.1300439E+00
        -11   -1    0    0    0    0  0.00000000000E+00  0.00000000000E+00  0.45593999997E+02  0.45594000000E+02  0.51100000000E-03 0.  1.
         11   -1    0    0    0    0 -0.00000000000E+00 -0.00000000000E+00 -0.45593999997E+02  0.45594000000E+02  0.51100000000E-03 0. -1.
    9900012    2    1    2    0    0 -0.13457661696E+00  0.26761221772E+02 -0.30610203338E+02  0.50528860191E+02  0.30000001037E+02 0.  0.
        -12    1    1    2    0    0  0.13457661696E+00 -0.26761221772E+02  0.30610203338E+02  0.40659139809E+02  0.00000000000E+00 0.  1.
         11    1    3    3    0    0  0.14751302734E+01  0.19773227723E+02 -0.23287991225E+01  0.19964464669E+02  0.51100000000E-03 0.  1.
        -11    1    3    3    0    0 -0.48398803115E+01  0.39033174368E+01 -0.10253462308E+02  0.11991406006E+02  0.51100000000E-03 0. -1.
        -12    1    3    3    0    0  0.32301734211E+01  0.30846766115E+01 -0.18027941908E+02  0.18572989516E+02  0.00000000000E+00 0.  1.
</event>
<event>
 7    1  0.2903212E-011  0.5052887E+02  0.7816164E-02  0.1300439E+00
        -11   -1    0    0    0    0  0.00000000000E+00  0.00000000000E+00  0.45593999997E+02  0.45594000000E+02  0.51100000000E-03 0.  1.
         11   -1    0    0    0    0 -0.00000000000E+00 -0.00000000000E+00 -0.45593999997E+02  0.45594000000E+02  0.51100000000E-03 0. -1.
    9900012    2    1    2    0    0  0.38681055763E+02  0.12133169196E+02 -0.31188362749E+01  0.50528868068E+02  0.30000024981E+02 0.  0.
        -12    1    1    2    0    0 -0.38681055763E+02 -0.12133169196E+02  0.31188362749E+01  0.40659131932E+02  0.00000000000E+00 0.  1.
         11    1    3    3    0    0  0.11118256528E+02 -0.38925381844E+00 -0.36973477714E+01  0.11723375263E+02  0.51100000000E-03 0.  1.
        -11    1    3    3    0    0  0.65658338334E+01  0.14373989548E+02 -0.57202730028E+01  0.16806048701E+02  0.51100000000E-03 0. -1.
         12    1    3    3    0    0  0.20996965402E+02 -0.18515665337E+01  0.62987844993E+01  0.21999444104E+02  0.00000000000E+00 0. -1.
</event>
<event>
 7    1  0.2903212E-011  0.5052888E+02  0.7816164E-02  0.1300439E+00
        -11   -1    0    0    0    0  0.00000000000E+00  0.00000000000E+00  0.45593999997E+02  0.45594000000E+02  0.51100000000E-03 0.  1.
         11   -1    0    0    0    0 -0.00000000000E+00 -0.00000000000E+00 -0.45593999997E+02  0.45594000000E+02  0.51100000000E-03 0. -1.
    9900012    2    1    2    0    0 -0.15688915926E+02  0.19498454819E+01 -0.37459574391E+02  0.50528884246E+02  0.30000074155E+02 0.  0.
        -12    1    1    2    0    0  0.15688915926E+02 -0.19498454819E+01  0.37459574391E+02  0.40659115754E+02  0.00000000000E+00 0.  1.
         11    1    3    3    0    0 -0.13771233285E+02  0.74872644833E+01 -0.19972808330E+02  0.25389349509E+02  0.51100000000E-03 0.  1.
        -11    1    3    3    0    0 -0.94442373390E+01 -0.17580692854E+01 -0.10069406829E+02  0.13916802100E+02  0.51100000000E-03 0. -1.
        -12    1    3    3    0    0  0.75265546980E+01 -0.37793497160E+01 -0.74173592318E+01  0.11222732638E+02  0.00000000000E+00 0.  1.
</event>
<event>
 7    1  0.2903212E-011  0.5052887E+02  0.7816164E-02  0.1300439E+00
        -11   -1    0    0    0    0  0.00000000000E+00  0.00000000000E+00  0.45593999997E+02  0.45594000000E+02  0.51100000000E-03 0.  1.
         11   -1    0    0    0    0 -0.00000000000E+00 -0.00000000000E+00 -0.45593999997E+02  0.45594000000E+02  0.51100000000E-03 0. -1.
    9900012    2    1    2    0    0 -0.11437734642E+02 -0.35178640230E+02 -0.16876215505E+02  0.50528866315E+02  0.30000019652E+02 0.  0.
        -12    1    1    2    0    0  0.11437734642E+02  0.35178640230E+02  0.16876215505E+02  0.40659133685E+02  0.00000000000E+00 0.  1.
         11    1    3    3    0    0  0.40938444118E+01  0.59328721787E+00  0.23255079082E+01  0.47454756435E+01  0.51100000000E-03 0. -1.
        -11    1    3    3    0    0 -0.45816669164E+01 -0.60082561322E+00 -0.11502732897E+01  0.47619105464E+01  0.51100000000E-03 0.  1.
         12    1    3    3    0    0 -0.10949912138E+02 -0.35171101835E+02 -0.18051450124E+02  0.41021480125E+02  0.00000000000E+00 0. -1.
</event>
<event>
 7    1  0.2903212E-011  0.5052883E+02  0.7816164E-02  0.1300439E+00
        -11   -1    0    0    0    0  0.00000000000E+00  0.00000000000E+00  0.45593999997E+02  0.45594000000E+02  0.51100000000E-03 0.  1.
         11   -1    0    0    0    0 -0.00000000000E+00 -0.00000000000E+00 -0.45593999997E+02  0.45594000000E+02  0.51100000000E-03 0. -1.
    9900012    2    1    2    0    0  0.21647551656E+02 -0.34356617661E+02 -0.20430959879E+01  0.50528832387E+02  0.29999916523E+02 0.  0.
        -12    1    1    2    0    0 -0.21647551656E+02  0.34356617661E+02  0.20430959879E+01  0.40659167613E+02  0.00000000000E+00 0.  1.
         11    1    3    3    0    0  0.47834477685E+01 -0.11108939188E+02  0.40564043188E+01  0.12757128153E+02  0.51100000000E-03 0.  1.
        -11    1    3    3    0    0  0.52307109874E+00 -0.12187303223E+02  0.70217450569E+01  0.14075115173E+02  0.51100000000E-03 0. -1.
         12    1    3    3    0    0  0.16341032789E+02 -0.11060375249E+02 -0.13121245364E+02  0.23696589061E+02  0.00000000000E+00 0. -1.
</event>
<event>
 7    1  0.2903212E-011  0.5052886E+02  0.7816164E-02  0.1300439E+00
        -11   -1    0    0    0    0  0.00000000000E+00  0.00000000000E+00  0.45593999997E+02  0.45594000000E+02  0.51100000000E-03 0.  1.
         11   -1    0    0    0    0 -0.00000000000E+00 -0.00000000000E+00 -0.45593999997E+02  0.45594000000E+02  0.51100000000E-03 0. -1.
    9900012    2    1    2    0    0 -0.59668707020E-01  0.29958246335E+02 -0.27489368045E+02  0.50528862782E+02  0.30000008912E+02 0.  0.
        -12    1    1    2    0    0  0.59668707020E-01 -0.29958246335E+02  0.27489368045E+02  0.40659137218E+02  0.00000000000E+00 0.  1.
         11    1    3    3    0    0  0.29685882200E+01  0.13850399619E+02 -0.13368759226E+01  0.14227906491E+02  0.51100000000E-03 0. -1.
        -11    1    3    3    0    0 -0.29219226004E+01  0.10278774755E+02 -0.12894495410E+01  0.10763527420E+02  0.51100000000E-03 0.  1.
         12    1    3    3    0    0 -0.10633432665E+00  0.58290719609E+01 -0.24863042582E+02  0.25537428871E+02  0.00000000000E+00 0. -1.
</event>
<event>
 7    1  0.2903212E-011  0.5052885E+02  0.7816164E-02  0.1300439E+00
        -11   -1    0    0    0    0  0.00000000000E+00  0.00000000000E+00  0.45593999997E+02  0.45594000000E+02  0.51100000000E-03 0.  1.
         11   -1    0    0    0    0 -0.00000000000E+00 -0.00000000000E+00 -0.45593999997E+02  0.45594000000E+02  0.51100000000E-03 0. -1.
    9900012    2    1    2    0    0 -0.14721070173E+02  0.37846058522E+02 -0.20327467120E+01  0.50528854511E+02  0.29999983771E+02 0.  0.
        -12    1    1    2    0    0  0.14721070173E+02 -0.37846058522E+02  0.20327467120E+01  0.40659145489E+02  0.00000000000E+00 0.  1.
         11    1    3    3    0    0 -0.99098422707E+00  0.16464147238E+02 -0.39180704469E+01  0.16952919227E+02  0.51100000000E-03 0. -1.
        -11    1    3    3    0    0  0.58317914215E+00 -0.28779295844E+01  0.44070874175E+01  0.52957526728E+01  0.51100000000E-03 0.  1.
         12    1    3    3    0    0 -0.14313265088E+02  0.24259840869E+02 -0.25217636826E+01  0.28280182611E+02  0.00000000000E+00 0. -1.
</event>
<event>
 7    1  0.2903212E-011  0.5052886E+02  0.7816164E-02  0.1300439E+00
        -11   -1    0    0    0    0  0.00000000000E+00  0.00000000000E+00  0.45593999997E+02  0.45594000000E+02  0.51100000000E-03 0. -1.
         11   -1    0    0    0    0 -0.00000000000E+00 -0.00000000000E+00 -0.45593999997E+02  0.45594000000E+02  0.51100000000E-03 0.  1.
    9900012    2    1    2    0    0 -0.19706295970E+02  0.34166032387E+02  0.98746998930E+01  0.50528861201E+02  0.30000004106E+02 0.  0.
        -12    1    1    2    0    0  0.19706295970E+02 -0.34166032387E+02 -0.98746998930E+01  0.40659138799E+02  0.00000000000E+00 0.  1.
         11    1    3    3    0    0 -0.79781833935E+01  0.80699307210E+01 -0.18989842639E+01  0.11505708739E+02  0.51100000000E-03 0. -1.
        -11    1    3    3    0    0 -0.16672049827E+02  0.12377661803E+02  0.81184984116E+00  0.20780347870E+02  0.51100000000E-03 0.  1.
        -12    1    3    3    0    0  0.49439372508E+01  0.13718439862E+02  0.10961834316E+02  0.18242804592E+02  0.00000000000E+00 0.  1.
</event>
<event>
 7    1  0.2903212E-011  0.5052886E+02  0.7816164E-02  0.1300439E+00
        -11   -1    0    0    0    0  0.00000000000E+00  0.00000000000E+00  0.45593999997E+02  0.45594000000E+02  0.51100000000E-03 0. -1.
         11   -1    0    0    0    0 -0.00000000000E+00 -0.00000000000E+00 -0.45593999997E+02  0.45594000000E+02  0.51100000000E-03 0.  1.
    9900012    2    1    2    0    0 -0.22678954952E+02  0.21610348789E+02 -0.25919562462E+02  0.50528857231E+02  0.29999992039E+02 0.  0.
        -12    1    1    2    0    0  0.22678954952E+02 -0.21610348789E+02  0.25919562462E+02  0.40659142769E+02  0.00000000000E+00 0.  1.
         11    1    3    3    0    0 -0.54099194636E+01  0.15666973333E+02 -0.17272644228E+02  0.23938786955E+02  0.51100000000E-03 0. -1.
        -11    1    3    3    0    0  0.14677817530E+01  0.62298588324E+01 -0.19624463312E+01  0.66945291253E+01  0.51100000000E-03 0.  1.
         12    1    3    3    0    0 -0.18736817241E+02 -0.28648337541E+00 -0.66844719027E+01  0.19895541151E+02  0.00000000000E+00 0. -1.
</event>
<event>
 7    1  0.2903212E-011  0.5052886E+02  0.7816164E-02  0.1300439E+00
        -11   -1    0    0    0    0  0.00000000000E+00  0.00000000000E+00  0.45593999997E+02  0.45594000000E+02  0.51100000000E-03 0. -1.
         11   -1    0    0    0    0 -0.00000000000E+00 -0.00000000000E+00 -0.45593999997E+02  0.45594000000E+02  0.51100000000E-03 0.  1.
    9900012    2    1    2    0    0  0.15283336905E+02 -0.36923462347E+02  0.74995254261E+01  0.50528864000E+02  0.30000012614E+02 0.  0.
        -12    1    1    2    0    0 -0.15283336905E+02  0.36923462347E+02 -0.74995254261E+01  0.40659136000E+02  0.00000000000E+00 0.  1.
         11    1    3    3    0    0 -0.18441776492E+01 -0.10903099479E+02 -0.28452950571E+01  0.11418155441E+02  0.51100000000E-03 0. -1.
        -11    1    3    3    0    0  0.17742149442E+02 -0.29365841562E+02  0.91957559229E+01  0.35520394771E+02  0.51100000000E-03 0.  1.
        -12    1    3    3    0    0 -0.61463488782E+00  0.33454786932E+01  0.11490645603E+01  0.35903137879E+01  0.00000000000E+00 0.  1.
</event>
<event>
 7    1  0.2903212E-011  0.5052886E+02  0.7816164E-02  0.1300439E+00
        -11   -1    0    0    0    0  0.00000000000E+00  0.00000000000E+00  0.45593999997E+02  0.45594000000E+02  0.51100000000E-03 0.  1.
         11   -1    0    0    0    0 -0.00000000000E+00 -0.00000000000E+00 -0.45593999997E+02  0.45594000000E+02  0.51100000000E-03 0. -1.
    9900012    2    1    2    0    0  0.71619967908E+01  0.29600131037E+02 -0.26938895318E+02  0.50528855439E+02  0.29999986593E+02 0.  0.
        -12    1    1    2    0    0 -0.71619967908E+01 -0.29600131037E+02  0.26938895318E+02  0.40659144561E+02  0.00000000000E+00 0.  1.
         11    1    3    3    0    0  0.11668469437E+02  0.18803404346E+02 -0.27305822725E+02  0.35147249522E+02  0.51100000000E-03 0. -1.
        -11    1    3    3    0    0 -0.12984629060E+01  0.48223326296E+01 -0.47454925471E+01  0.68891652386E+01  0.51100000000E-03 0.  1.
        -12    1    3    3    0    0 -0.32080097403E+01  0.59743940616E+01  0.51124199540E+01  0.84924406788E+01  0.00000000000E+00 0.  1.
</event>
<event>
 7    1  0.2903212E-011  0.5052885E+02  0.7816164E-02  0.1300439E+00
        -11   -1    0    0    0    0  0.00000000000E+00  0.00000000000E+00  0.45593999997E+02  0.45594000000E+02  0.51100000000E-03 0. -1.
         11   -1    0    0    0    0 -0.00000000000E+00 -0.00000000000E+00 -0.45593999997E+02  0.45594000000E+02  0.51100000000E-03 0.  1.
    9900012    2    1    2    0    0  0.28085184458E+02  0.57043243638E+01  0.28841796180E+02  0.50528854542E+02  0.29999983866E+02 0.  0.
        -12    1    1    2    0    0 -0.28085184458E+02 -0.57043243638E+01 -0.28841796180E+02  0.40659145458E+02  0.00000000000E+00 0.  1.
         11    1    3    3    0    0  0.24619095305E+02  0.92848337534E+01  0.12077147472E+02  0.28951087766E+02  0.51100000000E-03 0. -1.
        -11    1    3    3    0    0 -0.84335014170E+00  0.28888561785E+01  0.12194914340E+02  0.12560758954E+02  0.51100000000E-03 0.  1.
        -12    1    3    3    0    0  0.43094392941E+01 -0.64693655682E+01  0.45697343681E+01  0.90170078229E+01  0.00000000000E+00 0.  1.
</event>
<event>
 7    1  0.2903212E-011  0.5052886E+02  0.7816164E-02  0.1300439E+00
        -11   -1    0    0    0    0  0.00000000000E+00  0.00000000000E+00  0.45593999997E+02  0.45594000000E+02  0.51100000000E-03 0.  1.
         11   -1    0    0    0    0 -0.00000000000E+00 -0.00000000000E+00 -0.45593999997E+02  0.45594000000E+02  0.51100000000E-03 0. -1.
    9900012    2    1    2    0    0 -0.83621975164E+01 -0.39587261737E+02 -0.40109687749E+01  0.50528861917E+02  0.30000006283E+02 0.  0.
        -12    1    1    2    0    0  0.83621975164E+01  0.39587261737E+02  0.40109687749E+01  0.40659138083E+02  0.00000000000E+00 0.  1.
         11    1    3    3    0    0 -0.87517331410E+01 -0.18693825991E+02  0.22261031210E+01  0.20760720087E+02  0.51100000000E-03 0. -1.
        -11    1    3    3    0    0 -0.33825617816E+01  0.24384713003E+01 -0.43999880646E+01  0.60619932133E+01  0.51100000000E-03 0.  1.
         12    1    3    3    0    0  0.37720974062E+01 -0.23331907046E+02 -0.18370838313E+01  0.23706148617E+02  0.00000000000E+00 0. -1.
</event>
<event>
 7    1  0.2903212E-011  0.5052886E+02  0.7816164E-02  0.1300439E+00
        -11   -1    0    0    0    0  0.00000000000E+00  0.00000000000E+00  0.45593999997E+02  0.45594000000E+02  0.51100000000E-03 0.  1.
         11   -1    0    0    0    0 -0.00000000000E+00 -0.00000000000E+00 -0.45593999997E+02  0.45594000000E+02  0.51100000000E-03 0. -1.
    9900012    2    1    2    0    0 -0.23941249529E+02  0.16980384647E+02 -0.28136247108E+02  0.50528864580E+02  0.30000014378E+02 0.  0.
        -12    1    1    2    0    0  0.23941249529E+02 -0.16980384647E+02  0.28136247108E+02  0.40659135420E+02  0.00000000000E+00 0.  1.
         11    1    3    3    0    0 -0.15349636481E+02  0.48190584679E+01 -0.20368593627E+02  0.25956006457E+02  0.51100000000E-03 0. -1.
        -11    1    3    3    0    0 -0.12362863569E+02  0.71929659965E+01 -0.10519792758E+02  0.17755145603E+02  0.51100000000E-03 0.  1.
        -12    1    3    3    0    0  0.37712505216E+01  0.49683601825E+01  0.27521392766E+01  0.68177125194E+01  0.00000000000E+00 0.  1.
</event>
<event>
 7    1  0.2903212E-011  0.5052886E+02  0.7816164E-02  0.1300439E+00
        -11   -1    0    0    0    0  0.00000000000E+00  0.00000000000E+00  0.45593999997E+02  0.45594000000E+02  0.51100000000E-03 0.  1.
         11   -1    0    0    0    0 -0.00000000000E+00 -0.00000000000E+00 -0.45593999997E+02  0.45594000000E+02  0.51100000000E-03 0. -1.
    9900012    2    1    2    0    0 -0.85721170307E+01 -0.10016796535E+02 -0.38462296412E+02  0.50528860210E+02  0.30000001093E+02 0.  0.
        -12    1    1    2    0    0  0.85721170307E+01  0.10016796535E+02  0.38462296412E+02  0.40659139790E+02  0.00000000000E+00 0.  1.
         11    1    3    3    0    0 -0.54774742906E+01 -0.17153309112E+02 -0.30501306836E+02  0.35419887875E+02  0.51100000000E-03 0.  1.
        -11    1    3    3    0    0 -0.16431480570E+01 -0.28139933926E+00 -0.73377436714E+01  0.75247327908E+01  0.51100000000E-03 0. -1.
        -12    1    3    3    0    0 -0.14514946830E+01  0.74179119158E+01 -0.62324590460E+00  0.75842395442E+01  0.00000000000E+00 0.  1.
</event>
<event>
 7    1  0.2903212E-011  0.5052886E+02  0.7816164E-02  0.1300439E+00
        -11   -1    0    0    0    0  0.00000000000E+00  0.00000000000E+00  0.45593999997E+02  0.45594000000E+02  0.51100000000E-03 0. -1.
         11   -1    0    0    0    0 -0.00000000000E+00 -0.00000000000E+00 -0.45593999997E+02  0.45594000000E+02  0.51100000000E-03 0.  1.
    9900012    2    1    2    0    0 -0.29794202906E+02 -0.23652363820E+02  0.14353973770E+02  0.50528863215E+02  0.30000010230E+02 0.  0.
        -12    1    1    2    0    0  0.29794202906E+02  0.23652363820E+02 -0.14353973770E+02  0.40659136785E+02  0.00000000000E+00 0.  1.
         11    1    3    3    0    0 -0.54223629651E+01 -0.98577661915E+00 -0.34046595082E+01  0.64780770523E+01  0.51100000000E-03 0. -1.
        -11    1    3    3    0    0 -0.91400549637E+01 -0.67803887321E+01 -0.49649447789E+01  0.12416318014E+02  0.51100000000E-03 0.  1.
         12    1    3    3    0    0 -0.15231784977E+02 -0.15886198468E+02  0.22723578057E+02  0.31634468149E+02  0.00000000000E+00 0. -1.
</event>
<event>
 7    1  0.2903212E-011  0.5052886E+02  0.7816164E-02  0.1300439E+00
        -11   -1    0    0    0    0  0.00000000000E+00  0.00000000000E+00  0.45593999997E+02  0.45594000000E+02  0.51100000000E-03 0. -1.
         11   -1    0    0    0    0 -0.00000000000E+00 -0.00000000000E+00 -0.45593999997E+02  0.45594000000E+02  0.51100000000E-03 0.  1.
    9900012    2    1    2    0    0 -0.18366305795E+02  0.23557772065E+02  0.27583975593E+02  0.50528861757E+02  0.30000005795E+02 0.  0.
        -12    1    1    2    0    0  0.18366305795E+02 -0.23557772065E+02 -0.27583975593E+02  0.40659138243E+02  0.00000000000E+00 0.  1.
         11    1    3    3    0    0 -0.79958097250E+01  0.55741643958E+01  0.23634551951E+02  0.25565530076E+02  0.51100000000E-03 0. -1.
        -11    1    3    3    0    0  0.15908007847E+01  0.46677582664E+01  0.50136357396E+01  0.70324361327E+01  0.51100000000E-03 0.  1.
        -12    1    3    3    0    0 -0.11961296854E+02  0.13315849403E+02 -0.10642120983E+01  0.17930895548E+02  0.00000000000E+00 0.  1.
</event>
<event>
 7    1  0.2903212E-011  0.5052886E+02  0.7816164E-02  0.1300439E+00
        -11   -1    0    0    0    0  0.00000000000E+00  0.00000000000E+00  0.45593999997E+02  0.45594000000E+02  0.51100000000E-03 0.  1.
         11   -1    0    0    0    0 -0.00000000000E+00 -0.00000000000E+00 -0.45593999997E+02  0.45594000000E+02  0.51100000000E-03 0. -1.
    9900012    2    1    2    0    0 -0.76086425937E+01 -0.13546465658E+02 -0.37573496605E+02  0.50528858087E+02  0.29999994641E+02 0.  0.
        -12    1    1    2    0    0  0.76086425937E+01  0.13546465658E+02  0.37573496605E+02  0.40659141913E+02  0.00000000000E+00 0.  1.
         11    1    3    3    0    0 -0.38348809082E+01 -0.16438545820E+02 -0.33313167845E+02  0.37345672472E+02  0.51100000000E-03 0. -1.
        -11    1    3    3    0    0 -0.81197519912E+00 -0.38997302106E+01  0.98696547557E+00  0.41038153651E+01  0.51100000000E-03 0.  1.
        -12    1    3    3    0    0 -0.29617864863E+01  0.67918103730E+01 -0.52472942363E+01  0.90793702499E+01  0.00000000000E+00 0.  1.
</event>
<event>
 7    1  0.2903212E-011  0.5052886E+02  0.7816164E-02  0.1300439E+00
        -11   -1    0    0    0    0  0.00000000000E+00  0.00000000000E+00  0.45593999997E+02  0.45594000000E+02  0.51100000000E-03 0.  1.
         11   -1    0    0    0    0 -0.00000000000E+00 -0.00000000000E+00 -0.45593999997E+02  0.45594000000E+02  0.51100000000E-03 0. -1.
    9900012    2    1    2    0    0  0.46220807907E+01 -0.40321416326E+01 -0.40193833618E+02  0.50528855176E+02  0.29999985792E+02 0.  0.
        -12    1    1    2    0    0 -0.46220807907E+01  0.40321416326E+01  0.40193833618E+02  0.40659144824E+02  0.00000000000E+00 0.  1.
         11    1    3    3    0    0  0.56597810679E+01 -0.21748942902E+01 -0.13746279180E+02  0.15024096594E+02  0.51100000000E-03 0. -1.
        -11    1    3    3    0    0 -0.14653119176E+00  0.44239511577E+01 -0.28496316505E+02  0.28838045528E+02  0.51100000000E-03 0.  1.
        -12    1    3    3    0    0 -0.89116908542E+00 -0.62811985001E+01  0.20487620673E+01  0.66667130540E+01  0.00000000000E+00 0.  1.
</event>
<event>
 7    1  0.2903212E-011  0.5052886E+02  0.7816164E-02  0.1300439E+00
        -11   -1    0    0    0    0  0.00000000000E+00  0.00000000000E+00  0.45593999997E+02  0.45594000000E+02  0.51100000000E-03 0.  1.
         11   -1    0    0    0    0 -0.00000000000E+00 -0.00000000000E+00 -0.45593999997E+02  0.45594000000E+02  0.51100000000E-03 0. -1.
    9900012    2    1    2    0    0  0.15493446048E+02 -0.35377377047E+02 -0.12710629551E+02  0.50528858583E+02  0.29999996150E+02 0.  0.
        -12    1    1    2    0    0 -0.15493446048E+02  0.35377377047E+02  0.12710629551E+02  0.40659141417E+02  0.00000000000E+00 0.  1.
         11    1    3    3    0    0 -0.41400425280E+01 -0.92957144026E+01  0.27158877496E+01  0.10532155758E+02  0.51100000000E-03 0. -1.
        -11    1    3    3    0    0  0.35081914974E+01 -0.11228213983E+02  0.20736190839E+01  0.11944877278E+02  0.51100000000E-03 0.  1.
         12    1    3    3    0    0  0.16125297078E+02 -0.14853448662E+02 -0.17500136385E+02  0.28051825547E+02  0.00000000000E+00 0. -1.
</event>
<event>
 7    1  0.2903212E-011  0.5052881E+02  0.7816164E-02  0.1300439E+00
        -11   -1    0    0    0    0  0.00000000000E+00  0.00000000000E+00  0.45593999997E+02  0.45594000000E+02  0.51100000000E-03 0.  1.
         11   -1    0    0    0    0 -0.00000000000E+00 -0.00000000000E+00 -0.45593999997E+02  0.45594000000E+02  0.51100000000E-03 0. -1.
    9900012    2    1    2    0    0  0.35883099854E+02 -0.53916386171E+01 -0.18344025984E+02  0.50528807787E+02  0.29999841748E+02 0.  0.
        -12    1    1    2    0    0 -0.35883099854E+02  0.53916386171E+01  0.18344025984E+02  0.40659192213E+02  0.00000000000E+00 0.  1.
         11    1    3    3    0    0  0.19239093452E+02 -0.11975523935E+02 -0.18929757619E+02  0.29527810859E+02  0.51100000000E-03 0. -1.
        -11    1    3    3    0    0  0.67997767637E+01 -0.18975730186E+01 -0.27652864077E+01  0.75818570664E+01  0.51100000000E-03 0.  1.
        -12    1    3    3    0    0  0.98442296390E+01  0.84814583361E+01  0.33510180425E+01  0.13419139861E+02  0.00000000000E+00 0.  1.
</event>
<event>
 7    1  0.2903212E-011  0.5052886E+02  0.7816164E-02  0.1300439E+00
        -11   -1    0    0    0    0  0.00000000000E+00  0.00000000000E+00  0.45593999997E+02  0.45594000000E+02  0.51100000000E-03 0.  1.
         11   -1    0    0    0    0 -0.00000000000E+00 -0.00000000000E+00 -0.45593999997E+02  0.45594000000E+02  0.51100000000E-03 0. -1.
    9900012    2    1    2    0    0  0.33540722867E+02  0.17335132707E+02 -0.15089040101E+02  0.50528855302E+02  0.29999986177E+02 0.  0.
        -12    1    1    2    0    0 -0.33540722867E+02 -0.17335132707E+02  0.15089040101E+02  0.40659144698E+02  0.00000000000E+00 0.  1.
         11    1    3    3    0    0  0.23356651820E+01  0.10939812539E+02 -0.25560642749E+01  0.11474680608E+02  0.51100000000E-03 0. -1.
        -11    1    3    3    0    0  0.94697321346E+00  0.65593794435E+01 -0.33924281206E+01  0.74451854084E+01  0.51100000000E-03 0.  1.
        -12    1    3    3    0    0  0.30258084471E+02 -0.16405927550E+00 -0.91405477051E+01  0.31608989286E+02  0.00000000000E+00 0.  1.
</event>
<event>
 7    1  0.2903212E-011  0.5052886E+02  0.7816164E-02  0.1300439E+00
        -11   -1    0    0    0    0  0.00000000000E+00  0.00000000000E+00  0.45593999997E+02  0.45594000000E+02  0.51100000000E-03 0.  1.
         11   -1    0    0    0    0 -0.00000000000E+00 -0.00000000000E+00 -0.45593999997E+02  0.45594000000E+02  0.51100000000E-03 0. -1.
    9900012    2    1    2    0    0 -0.36004092382E+02  0.80483559558E+01 -0.17090786048E+02  0.50528859950E+02  0.30000000304E+02 0.  0.
        -12    1    1    2    0    0  0.36004092382E+02 -0.80483559558E+01  0.17090786048E+02  0.40659140050E+02  0.00000000000E+00 0.  1.
         11    1    3    3    0    0 -0.21042967621E+02  0.62061491338E+01 -0.93185579268E+01  0.23836071309E+02  0.51100000000E-03 0. -1.
        -11    1    3    3    0    0 -0.13035540245E+02 -0.70752770461E+01 -0.19454082249E+00  0.14833162210E+02  0.51100000000E-03 0.  1.
         12    1    3    3    0    0 -0.19255845159E+01  0.89174838680E+01 -0.75776872991E+01  0.11859626430E+02  0.00000000000E+00 0. -1.
</event>
<event>
 7    1  0.2903212E-011  0.5052885E+02  0.7816164E-02  0.1300439E+00
        -11   -1    0    0    0    0  0.00000000000E+00  0.00000000000E+00  0.45593999997E+02  0.45594000000E+02  0.51100000000E-03 0.  1.
         11   -1    0    0    0    0 -0.00000000000E+00 -0.00000000000E+00 -0.45593999997E+02  0.45594000000E+02  0.51100000000E-03 0. -1.
    9900012    2    1    2    0    0 -0.23929469434E+00  0.16613975582E+02 -0.37109098357E+02  0.50528848171E+02  0.29999964500E+02 0.  0.
        -12    1    1    2    0    0  0.23929469434E+00 -0.16613975582E+02  0.37109098357E+02  0.40659151829E+02  0.00000000000E+00 0.  1.
         11    1    3    3    0    0 -0.89600086291E+01 -0.19947647393E+01 -0.23527593336E+02  0.25254870608E+02  0.51100000000E-03 0. -1.
        -11    1    3    3    0    0  0.44565233605E+01  0.81248368819E+01 -0.94232923607E+01  0.13216354036E+02  0.51100000000E-03 0.  1.
        -12    1    3    3    0    0  0.42641905742E+01  0.10483903439E+02 -0.41582126604E+01  0.12057623527E+02  0.00000000000E+00 0.  1.
</event>
<event>
 7    1  0.2903212E-011  0.5052886E+02  0.7816164E-02  0.1300439E+00
        -11   -1    0    0    0    0  0.00000000000E+00  0.00000000000E+00  0.45593999997E+02  0.45594000000E+02  0.51100000000E-03 0.  1.
         11   -1    0    0    0    0 -0.00000000000E+00 -0.00000000000E+00 -0.45593999997E+02  0.45594000000E+02  0.51100000000E-03 0. -1.
    9900012    2    1    2    0    0 -0.12225965588E+02 -0.37596739904E+02  0.94961215522E+01  0.50528863136E+02  0.30000009988E+02 0.  0.
        -12    1    1    2    0    0  0.12225965588E+02  0.37596739904E+02 -0.94961215522E+01  0.40659136864E+02  0.00000000000E+00 0.  1.
         11    1    3    3    0    0 -0.47068312088E+01 -0.86079581364E+01 -0.64179397992E+01  0.11723529965E+02  0.51100000000E-03 0.  1.
        -11    1    3    3    0    0  0.18731264106E+01 -0.12964770114E+02 -0.16981252654E+01  0.13208993010E+02  0.51100000000E-03 0. -1.
         12    1    3    3    0    0 -0.93922607900E+01 -0.16024011654E+02  0.17612186617E+02  0.25596340161E+02  0.00000000000E+00 0. -1.
</event>
<event>
 7    1  0.2903212E-011  0.5052886E+02  0.7816164E-02  0.1300439E+00
        -11   -1    0    0    0    0  0.00000000000E+00  0.00000000000E+00  0.45593999997E+02  0.45594000000E+02  0.51100000000E-03 0. -1.
         11   -1    0    0    0    0 -0.00000000000E+00 -0.00000000000E+00 -0.45593999997E+02  0.45594000000E+02  0.51100000000E-03 0.  1.
    9900012    2    1    2    0    0 -0.35800448568E+02 -0.11688907282E+02  0.15325234012E+02  0.50528862422E+02  0.30000007817E+02 0.  0.
        -12    1    1    2    0    0  0.35800448568E+02  0.11688907282E+02 -0.15325234012E+02  0.40659137578E+02  0.00000000000E+00 0.  1.
         11    1    3    3    0    0 -0.17261317983E+01 -0.66845152436E+01  0.58559040105E+01  0.90528386194E+01  0.51100000000E-03 0. -1.
        -11    1    3    3    0    0 -0.10093734600E+02 -0.11722302368E+02  0.40202518234E+01  0.15983062158E+02  0.51100000000E-03 0.  1.
        -12    1    3    3    0    0 -0.23980582170E+02  0.67179103291E+01  0.54490781777E+01  0.25492961644E+02  0.00000000000E+00 0.  1.
</event>
<event>
 7    1  0.2903212E-011  0.5052886E+02  0.7816164E-02  0.1300439E+00
        -11   -1    0    0    0    0  0.00000000000E+00  0.00000000000E+00  0.45593999997E+02  0.45594000000E+02  0.51100000000E-03 0.  1.
         11   -1    0    0    0    0 -0.00000000000E+00 -0.00000000000E+00 -0.45593999997E+02  0.45594000000E+02  0.51100000000E-03 0. -1.
    9900012    2    1    2    0    0  0.96712532956E+01  0.37241430148E+02  0.13141860486E+02  0.50528858878E+02  0.29999997044E+02 0.  0.
        -12    1    1    2    0    0 -0.96712532956E+01 -0.37241430148E+02 -0.13141860486E+02  0.40659141122E+02  0.00000000000E+00 0.  1.
         11    1    3    3    0    0  0.12181496397E+02  0.66115125954E+01 -0.30131786485E+01  0.14183800587E+02  0.51100000000E-03 0. -1.
        -11    1    3    3    0    0  0.32392132971E+01  0.35118278997E+01  0.16208013040E+01  0.50450406450E+01  0.51100000000E-03 0.  1.
        -12    1    3    3    0    0 -0.57494563983E+01  0.27118089653E+02  0.14534237830E+02  0.31300017646E+02  0.00000000000E+00 0.  1.
</event>
<event>
 7    1  0.2903212E-011  0.5052884E+02  0.7816164E-02  0.1300439E+00
        -11   -1    0    0    0    0  0.00000000000E+00  0.00000000000E+00  0.45593999997E+02  0.45594000000E+02  0.51100000000E-03 0. -1.
         11   -1    0    0    0    0 -0.00000000000E+00 -0.00000000000E+00 -0.45593999997E+02  0.45594000000E+02  0.51100000000E-03 0.  1.
    9900012    2    1    2    0    0 -0.95743214704E+01 -0.80286355478E+01  0.38691613740E+02  0.50528836283E+02  0.29999928366E+02 0.  0.
        -12    1    1    2    0    0  0.95743214704E+01  0.80286355478E+01 -0.38691613740E+02  0.40659163717E+02  0.00000000000E+00 0.  1.
         11    1    3    3    0    0  0.20670477974E+01 -0.12557867058E+02  0.16192696795E+02  0.20595536929E+02  0.51100000000E-03 0. -1.
        -11    1    3    3    0    0  0.28802396571E+01 -0.22761636049E+01  0.35200260664E+01  0.50859890884E+01  0.51100000000E-03 0.  1.
         12    1    3    3    0    0 -0.14521608925E+02  0.68053951154E+01  0.18978890878E+02  0.24847310265E+02  0.00000000000E+00 0. -1.
</event>
<event>
 7    1  0.2903212E-011  0.5052885E+02  0.7816164E-02  0.1300439E+00
        -11   -1    0    0    0    0  0.00000000000E+00  0.00000000000E+00  0.45593999997E+02  0.45594000000E+02  0.51100000000E-03 0.  1.
         11   -1    0    0    0    0 -0.00000000000E+00 -0.00000000000E+00 -0.45593999997E+02  0.45594000000E+02  0.51100000000E-03 0. -1.
    9900012    2    1    2    0    0 -0.44096143009E+01  0.39992010019E+02 -0.58618126481E+01  0.50528850831E+02  0.29999972584E+02 0.  0.
        -12    1    1    2    0    0  0.44096143009E+01 -0.39992010019E+02  0.58618126481E+01  0.40659149169E+02  0.00000000000E+00 0.  1.
         11    1    3    3    0    0 -0.11178271211E+02  0.14531197262E+02  0.61325247161E+01  0.19331769210E+02  0.51100000000E-03 0.  1.
        -11    1    3    3    0    0 -0.76876662187E+00  0.70630522178E+01  0.13771003263E+01  0.72369962222E+01  0.51100000000E-03 0. -1.
        -12    1    3    3    0    0  0.75374235323E+01  0.18397760539E+02 -0.13371437691E+02  0.23960085398E+02  0.00000000000E+00 0.  1.
</event>
<event>
 7    1  0.2903212E-011  0.5052886E+02  0.7816164E-02  0.1300439E+00
        -11   -1    0    0    0    0  0.00000000000E+00  0.00000000000E+00  0.45593999997E+02  0.45594000000E+02  0.51100000000E-03 0. -1.
         11   -1    0    0    0    0 -0.00000000000E+00 -0.00000000000E+00 -0.45593999997E+02  0.45594000000E+02  0.51100000000E-03 0.  1.
    9900012    2    1    2    0    0 -0.34746572977E+02 -0.81429393809E+01  0.19481631072E+02  0.50528859027E+02  0.29999997499E+02 0.  0.
        -12    1    1    2    0    0  0.34746572977E+02  0.81429393809E+01 -0.19481631072E+02  0.40659140973E+02  0.00000000000E+00 0.  1.
         11    1    3    3    0    0 -0.27621645256E+02 -0.73028039401E+01  0.14118003748E+02  0.31868546596E+02  0.51100000000E-03 0. -1.
        -11    1    3    3    0    0 -0.52979688094E+01 -0.83571628979E+01  0.14824011650E+01  0.10005406473E+02  0.51100000000E-03 0.  1.
         12    1    3    3    0    0 -0.18269589117E+01  0.75170274571E+01  0.38812261592E+01  0.86549059587E+01  0.00000000000E+00 0. -1.
</event>
<event>
 7    1  0.2903212E-011  0.5052886E+02  0.7816164E-02  0.1300439E+00
        -11   -1    0    0    0    0  0.00000000000E+00  0.00000000000E+00  0.45593999997E+02  0.45594000000E+02  0.51100000000E-03 0.  1.
         11   -1    0    0    0    0 -0.00000000000E+00 -0.00000000000E+00 -0.45593999997E+02  0.45594000000E+02  0.51100000000E-03 0. -1.
    9900012    2    1    2    0    0 -0.21085980326E+02 -0.34730544884E+02  0.15285677560E+01  0.50528857933E+02  0.29999994172E+02 0.  0.
        -12    1    1    2    0    0  0.21085980326E+02  0.34730544884E+02 -0.15285677560E+01  0.40659142067E+02  0.00000000000E+00 0.  1.
         11    1    3    3    0    0 -0.14443821380E+02 -0.13167297992E+02  0.61770284818E+01  0.20497741183E+02  0.51100000000E-03 0. -1.
        -11    1    3    3    0    0  0.35817050471E+01 -0.69801665255E+01  0.54544415720E+01  0.95552220745E+01  0.51100000000E-03 0.  1.
         12    1    3    3    0    0 -0.10223863993E+02 -0.14583080366E+02 -0.10102902298E+02  0.20475894676E+02  0.00000000000E+00 0. -1.
</event>
<event>
 7    1  0.2903212E-011  0.5052886E+02  0.7816164E-02  0.1300439E+00
        -11   -1    0    0    0    0  0.00000000000E+00  0.00000000000E+00  0.45593999997E+02  0.45594000000E+02  0.51100000000E-03 0.  1.
         11   -1    0    0    0    0 -0.00000000000E+00 -0.00000000000E+00 -0.45593999997E+02  0.45594000000E+02  0.51100000000E-03 0. -1.
    9900012    2    1    2    0    0  0.30566006845E+02 -0.18852480800E+01 -0.26745668289E+02  0.50528859490E+02  0.29999998906E+02 0.  0.
        -12    1    1    2    0    0 -0.30566006845E+02  0.18852480800E+01  0.26745668289E+02  0.40659140510E+02  0.00000000000E+00 0.  1.
         11    1    3    3    0    0 -0.13472324463E+01 -0.26395180977E+01 -0.17329197571E-01  0.29635100160E+01  0.51100000000E-03 0. -1.
        -11    1    3    3    0    0  0.17930098632E+02  0.81622302056E+01 -0.43794428460E+01  0.20181426084E+02  0.51100000000E-03 0.  1.
         12    1    3    3    0    0  0.13983140659E+02 -0.74079601879E+01 -0.22348896245E+02  0.27383923390E+02  0.00000000000E+00 0. -1.
</event>
<event>
 7    1  0.2903212E-011  0.5052886E+02  0.7816164E-02  0.1300439E+00
        -11   -1    0    0    0    0  0.00000000000E+00  0.00000000000E+00  0.45593999997E+02  0.45594000000E+02  0.51100000000E-03 0. -1.
         11   -1    0    0    0    0 -0.00000000000E+00 -0.00000000000E+00 -0.45593999997E+02  0.45594000000E+02  0.51100000000E-03 0.  1.
    9900012    2    1    2    0    0  0.20317231263E+02  0.34482778534E+02 -0.71633603684E+01  0.50528860395E+02  0.30000001656E+02 0.  0.
        -12    1    1    2    0    0 -0.20317231263E+02 -0.34482778534E+02  0.71633603684E+01  0.40659139605E+02  0.00000000000E+00 0.  1.
         11    1    3    3    0    0  0.21106562664E+01 -0.27085513226E+01 -0.12818600406E+01  0.36652811034E+01  0.51100000000E-03 0. -1.
        -11    1    3    3    0    0  0.96158524906E+01  0.24926709389E+02 -0.13641492161E+02  0.29998262761E+02  0.51100000000E-03 0.  1.
         12    1    3    3    0    0  0.85907225062E+01  0.12264620469E+02  0.77599918331E+01  0.16865316530E+02  0.00000000000E+00 0. -1.
</event>
<event>
 7    1  0.2903212E-011  0.5052884E+02  0.7816164E-02  0.1300439E+00
        -11   -1    0    0    0    0  0.00000000000E+00  0.00000000000E+00  0.45593999997E+02  0.45594000000E+02  0.51100000000E-03 0.  1.
         11   -1    0    0    0    0 -0.00000000000E+00 -0.00000000000E+00 -0.45593999997E+02  0.45594000000E+02  0.51100000000E-03 0. -1.
    9900012    2    1    2    0    0  0.27777822173E+02  0.20586151366E+02 -0.21395558254E+02  0.50528844257E+02  0.29999952603E+02 0.  0.
        -12    1    1    2    0    0 -0.27777822173E+02 -0.20586151366E+02  0.21395558254E+02  0.40659155743E+02  0.00000000000E+00 0.  1.
         11    1    3    3    0    0  0.26641241267E+00 -0.11313899690E+01 -0.18875254742E+00  0.11775596040E+01  0.51100000000E-03 0. -1.
        -11    1    3    3    0    0 -0.32980915670E+01  0.11526011674E+02 -0.73724513397E+01  0.14074068073E+02  0.51100000000E-03 0.  1.
         12    1    3    3    0    0  0.30809501328E+02  0.10191529660E+02 -0.13834354367E+02  0.35277216580E+02  0.00000000000E+00 0. -1.
</event>
<event>
 7    1  0.2903212E-011  0.5052885E+02  0.7816164E-02  0.1300439E+00
        -11   -1    0    0    0    0  0.00000000000E+00  0.00000000000E+00  0.45593999997E+02  0.45594000000E+02  0.51100000000E-03 0.  1.
         11   -1    0    0    0    0 -0.00000000000E+00 -0.00000000000E+00 -0.45593999997E+02  0.45594000000E+02  0.51100000000E-03 0. -1.
    9900012    2    1    2    0    0 -0.38995171659E+02 -0.10077677897E+02 -0.55662903883E+01  0.50528848592E+02  0.29999965780E+02 0.  0.
        -12    1    1    2    0    0  0.38995171659E+02  0.10077677897E+02  0.55662903883E+01  0.40659151408E+02  0.00000000000E+00 0.  1.
         11    1    3    3    0    0 -0.19406425040E+02 -0.86834308327E+01  0.56277639308E+01  0.21992794979E+02  0.51100000000E-03 0. -1.
        -11    1    3    3    0    0  0.47611388976E+00 -0.32686661402E+01  0.25246404614E+01  0.41574839136E+01  0.51100000000E-03 0.  1.
         12    1    3    3    0    0 -0.20064860509E+02  0.18744190758E+01 -0.13718694780E+02  0.24378569699E+02  0.00000000000E+00 0. -1.
</event>
<event>
 7    1  0.2903212E-011  0.5052887E+02  0.7816164E-02  0.1300439E+00
        -11   -1    0    0    0    0  0.00000000000E+00  0.00000000000E+00  0.45593999997E+02  0.45594000000E+02  0.51100000000E-03 0.  1.
         11   -1    0    0    0    0 -0.00000000000E+00 -0.00000000000E+00 -0.45593999997E+02  0.45594000000E+02  0.51100000000E-03 0. -1.
    9900012    2    1    2    0    0 -0.24103567180E+02  0.81591182981E+00 -0.32734042410E+02  0.50528865781E+02  0.30000018028E+02 0.  0.
        -12    1    1    2    0    0  0.24103567180E+02 -0.81591182981E+00  0.32734042410E+02  0.40659134219E+02  0.00000000000E+00 0.  1.
         11    1    3    3    0    0 -0.34399960158E+01  0.82105560455E-01 -0.98044809479E+01  0.10390772870E+02  0.51100000000E-03 0. -1.
        -11    1    3    3    0    0 -0.78705295655E+01 -0.11775749367E+02 -0.14798834477E+02  0.20484604242E+02  0.51100000000E-03 0.  1.
         12    1    3    3    0    0 -0.12793041599E+02  0.12509555637E+02 -0.81307269846E+01  0.19653488669E+02  0.00000000000E+00 0. -1.
</event>
<event>
 7    1  0.2903212E-011  0.5052882E+02  0.7816164E-02  0.1300439E+00
        -11   -1    0    0    0    0  0.00000000000E+00  0.00000000000E+00  0.45593999997E+02  0.45594000000E+02  0.51100000000E-03 0. -1.
         11   -1    0    0    0    0 -0.00000000000E+00 -0.00000000000E+00 -0.45593999997E+02  0.45594000000E+02  0.51100000000E-03 0.  1.
    9900012    2    1    2    0    0  0.36121153517E+02 -0.95513474723E+01  0.16037551873E+02  0.50528818502E+02  0.29999874319E+02 0.  0.
        -12    1    1    2    0    0 -0.36121153517E+02  0.95513474723E+01 -0.16037551873E+02  0.40659181498E+02  0.00000000000E+00 0.  1.
         11    1    3    3    0    0  0.63670461584E+01 -0.57985143617E+01  0.87058630263E+01  0.12245574583E+02  0.51100000000E-03 0. -1.
        -11    1    3    3    0    0  0.26296944174E+02 -0.97456364533E+01 -0.21448691250E+00  0.28045547020E+02  0.51100000000E-03 0.  1.
         12    1    3    3    0    0  0.34571631851E+01  0.59928033427E+01  0.75461757596E+01  0.10237696899E+02  0.00000000000E+00 0. -1.
</event>
<event>
 7    1  0.2903212E-011  0.5052885E+02  0.7816164E-02  0.1300439E+00
        -11   -1    0    0    0    0  0.00000000000E+00  0.00000000000E+00  0.45593999997E+02  0.45594000000E+02  0.51100000000E-03 0.  1.
         11   -1    0    0    0    0 -0.00000000000E+00 -0.00000000000E+00 -0.45593999997E+02  0.45594000000E+02  0.51100000000E-03 0. -1.
    9900012    2    1    2    0    0 -0.21973669067E+02  0.29075713885E+02 -0.18025729662E+02  0.50528853427E+02  0.29999980476E+02 0.  0.
        -12    1    1    2    0    0  0.21973669067E+02 -0.29075713885E+02  0.18025729662E+02  0.40659146573E+02  0.00000000000E+00 0.  1.
         11    1    3    3    0    0 -0.13613458992E+02  0.19156243009E+02 -0.10353812633E+02  0.25680524688E+02  0.51100000000E-03 0. -1.
        -11    1    3    3    0    0 -0.83526117482E+01  0.12054891878E+02 -0.12690568099E+02  0.19394253276E+02  0.51100000000E-03 0.  1.
        -12    1    3    3    0    0 -0.75983266457E-02 -0.21354210023E+01  0.50186510697E+01  0.54540754625E+01  0.00000000000E+00 0.  1.
</event>
<event>
 7    1  0.2903212E-011  0.5052885E+02  0.7816164E-02  0.1300439E+00
        -11   -1    0    0    0    0  0.00000000000E+00  0.00000000000E+00  0.45593999997E+02  0.45594000000E+02  0.51100000000E-03 0.  1.
         11   -1    0    0    0    0 -0.00000000000E+00 -0.00000000000E+00 -0.45593999997E+02  0.45594000000E+02  0.51100000000E-03 0. -1.
    9900012    2    1    2    0    0 -0.18024470553E+02 -0.36403197720E+02  0.17585598833E+01  0.50528845117E+02  0.29999955218E+02 0.  0.
        -12    1    1    2    0    0  0.18024470553E+02  0.36403197720E+02 -0.17585598833E+01  0.40659154883E+02  0.00000000000E+00 0.  1.
         11    1    3    3    0    0 -0.21675205313E+02 -0.23194273142E+02  0.20421962147E+01  0.31811309272E+02  0.51100000000E-03 0. -1.
        -11    1    3    3    0    0 -0.19249419051E+01  0.10846825658E+01  0.22655600909E+01  0.31646011429E+01  0.51100000000E-03 0.  1.
         12    1    3    3    0    0  0.55756766656E+01 -0.14293607144E+02 -0.25491964223E+01  0.15552934702E+02  0.00000000000E+00 0. -1.
</event>
<event>
 7    1  0.2903212E-011  0.5052886E+02  0.7816164E-02  0.1300439E+00
        -11   -1    0    0    0    0  0.00000000000E+00  0.00000000000E+00  0.45593999997E+02  0.45594000000E+02  0.51100000000E-03 0. -1.
         11   -1    0    0    0    0 -0.00000000000E+00 -0.00000000000E+00 -0.45593999997E+02  0.45594000000E+02  0.51100000000E-03 0.  1.
    9900012    2    1    2    0    0 -0.33355925382E+02 -0.16376305488E+02  0.16503466526E+02  0.50528861459E+02  0.30000004890E+02 0.  0.
        -12    1    1    2    0    0  0.33355925382E+02  0.16376305488E+02 -0.16503466526E+02  0.40659138541E+02  0.00000000000E+00 0.  1.
         11    1    3    3    0    0 -0.10502796772E+02 -0.82903749708E+01  0.14443166135E+02  0.19688679627E+02  0.51100000000E-03 0. -1.
        -11    1    3    3    0    0  0.13143612794E+01 -0.64089196138E+01  0.25140566065E+00  0.65471368747E+01  0.51100000000E-03 0.  1.
         12    1    3    3    0    0 -0.24167489890E+02 -0.16770109036E+01  0.18088947302E+01  0.24293044957E+02  0.00000000000E+00 0. -1.
</event>
<event>
 7    1  0.2903212E-011  0.5052887E+02  0.7816164E-02  0.1300439E+00
        -11   -1    0    0    0    0  0.00000000000E+00  0.00000000000E+00  0.45593999997E+02  0.45594000000E+02  0.51100000000E-03 0.  1.
         11   -1    0    0    0    0 -0.00000000000E+00 -0.00000000000E+00 -0.45593999997E+02  0.45594000000E+02  0.51100000000E-03 0. -1.
    9900012    2    1    2    0    0  0.38260925815E+01  0.53950450291E+01 -0.40117570011E+02  0.50528869182E+02  0.30000028365E+02 0.  0.
        -12    1    1    2    0    0 -0.38260925815E+01 -0.53950450291E+01  0.40117570011E+02  0.40659130818E+02  0.00000000000E+00 0.  1.
         11    1    3    3    0    0  0.12413534139E+02 -0.14770799575E+01 -0.10652939201E+02  0.16424454600E+02  0.51100000000E-03 0. -1.
        -11    1    3    3    0    0 -0.26122582049E+01  0.80150372542E+00  0.64967126570E+00  0.28086249599E+01  0.51100000000E-03 0.  1.
        -12    1    3    3    0    0 -0.59751833526E+01  0.60706212612E+01 -0.30114302075E+02  0.31295789622E+02  0.00000000000E+00 0.  1.
</event>
<event>
 7    1  0.2903212E-011  0.5052887E+02  0.7816164E-02  0.1300439E+00
        -11   -1    0    0    0    0  0.00000000000E+00  0.00000000000E+00  0.45593999997E+02  0.45594000000E+02  0.51100000000E-03 0.  1.
         11   -1    0    0    0    0 -0.00000000000E+00 -0.00000000000E+00 -0.45593999997E+02  0.45594000000E+02  0.51100000000E-03 0. -1.
    9900012    2    1    2    0    0 -0.89871366270E+01 -0.18325806037E+02 -0.35164771779E+02  0.50528868603E+02  0.30000026606E+02 0.  0.
        -12    1    1    2    0    0  0.89871366270E+01  0.18325806037E+02  0.35164771779E+02  0.40659131397E+02  0.00000000000E+00 0.  1.
         11    1    3    3    0    0 -0.59421139405E+01  0.24326615610E+01 -0.48327192270E+01  0.80362762360E+01  0.51100000000E-03 0. -1.
        -11    1    3    3    0    0 -0.26534568534E+01 -0.44358177965E+00  0.26357855112E+01  0.37662930834E+01  0.51100000000E-03 0.  1.
         12    1    3    3    0    0 -0.39156583306E+00 -0.20314885819E+02 -0.32967838063E+02  0.38726299284E+02  0.00000000000E+00 0. -1.
</event>
<event>
 7    1  0.2903212E-011  0.5052891E+02  0.7816164E-02  0.1300439E+00
        -11   -1    0    0    0    0  0.00000000000E+00  0.00000000000E+00  0.45593999997E+02  0.45594000000E+02  0.51100000000E-03 0.  1.
         11   -1    0    0    0    0 -0.00000000000E+00 -0.00000000000E+00 -0.45593999997E+02  0.45594000000E+02  0.51100000000E-03 0. -1.
    9900012    2    1    2    0    0 -0.68972534962E+01 -0.35516003433E+02 -0.18552700359E+02  0.50528913731E+02  0.30000163777E+02 0.  0.
        -12    1    1    2    0    0  0.68972534962E+01  0.35516003433E+02  0.18552700359E+02  0.40659086269E+02  0.00000000000E+00 0.  1.
         11    1    3    3    0    0 -0.38206181174E+01 -0.77243923360E+01 -0.95935953350E+01  0.12895752459E+02  0.51100000000E-03 0.  1.
        -11    1    3    3    0    0  0.20973614444E+01 -0.18359678111E+02 -0.16274326596E+02  0.24623777366E+02  0.51100000000E-03 0. -1.
        -12    1    3    3    0    0 -0.51739968233E+01 -0.94319329853E+01  0.73152215725E+01  0.13009383906E+02  0.00000000000E+00 0.  1.
</event>
<event>
 7    1  0.2903212E-011  0.5052888E+02  0.7816164E-02  0.1300439E+00
        -11   -1    0    0    0    0  0.00000000000E+00  0.00000000000E+00  0.45593999997E+02  0.45594000000E+02  0.51100000000E-03 0. -1.
         11   -1    0    0    0    0 -0.00000000000E+00 -0.00000000000E+00 -0.45593999997E+02  0.45594000000E+02  0.51100000000E-03 0.  1.
    9900012    2    1    2    0    0  0.73766935500E+01 -0.38378562013E+02 -0.11217577938E+02  0.50528884359E+02  0.30000074498E+02 0.  0.
        -12    1    1    2    0    0 -0.73766935500E+01  0.38378562013E+02  0.11217577938E+02  0.40659115641E+02  0.00000000000E+00 0.  1.
         11    1    3    3    0    0  0.11088930480E+01 -0.39479974780E+02 -0.14520999523E+02  0.42080369293E+02  0.51100000000E-03 0. -1.
        -11    1    3    3    0    0 -0.39702623331E+00  0.52879083933E+00 -0.42908463781E+00  0.78826611574E+00  0.51100000000E-03 0.  1.
         12    1    3    3    0    0  0.66648267353E+01  0.57262192794E+00  0.37325062225E+01  0.76602489506E+01  0.00000000000E+00 0. -1.
</event>
<event>
 7    1  0.2903212E-011  0.5052886E+02  0.7816164E-02  0.1300439E+00
        -11   -1    0    0    0    0  0.00000000000E+00  0.00000000000E+00  0.45593999997E+02  0.45594000000E+02  0.51100000000E-03 0.  1.
         11   -1    0    0    0    0 -0.00000000000E+00 -0.00000000000E+00 -0.45593999997E+02  0.45594000000E+02  0.51100000000E-03 0. -1.
    9900012    2    1    2    0    0 -0.31429801879E+02  0.25477229333E+02  0.40303732232E+01  0.50528861188E+02  0.30000004066E+02 0.  0.
        -12    1    1    2    0    0  0.31429801879E+02 -0.25477229333E+02 -0.40303732232E+01  0.40659138812E+02  0.00000000000E+00 0.  1.
         11    1    3    3    0    0 -0.38311166729E+01  0.60545908019E+01 -0.99627651734E+01  0.12271601970E+02  0.51100000000E-03 0. -1.
        -11    1    3    3    0    0 -0.42383756661E+01  0.37261490423E+01 -0.18766961851E+01  0.59472686003E+01  0.51100000000E-03 0.  1.
        -12    1    3    3    0    0 -0.23360309540E+02  0.15696489489E+02  0.15869834582E+02  0.32309990618E+02  0.00000000000E+00 0.  1.
</event>
<event>
 7    1  0.2903212E-011  0.5052886E+02  0.7816164E-02  0.1300439E+00
        -11   -1    0    0    0    0  0.00000000000E+00  0.00000000000E+00  0.45593999997E+02  0.45594000000E+02  0.51100000000E-03 0.  1.
         11   -1    0    0    0    0 -0.00000000000E+00 -0.00000000000E+00 -0.45593999997E+02  0.45594000000E+02  0.51100000000E-03 0. -1.
    9900012    2    1    2    0    0  0.15922744675E+02 -0.24182441204E+02 -0.28545424062E+02  0.50528862092E+02  0.30000006814E+02 0.  0.
        -12    1    1    2    0    0 -0.15922744675E+02  0.24182441204E+02  0.28545424062E+02  0.40659137908E+02  0.00000000000E+00 0.  1.
         11    1    3    3    0    0  0.14206083391E+02 -0.74096057257E+01 -0.18820422092E+02  0.24716863683E+02  0.51100000000E-03 0. -1.
        -11    1    3    3    0    0  0.20794809546E+01  0.28694908076E+01 -0.40109888171E+01  0.53522191741E+01  0.51100000000E-03 0.  1.
        -12    1    3    3    0    0 -0.36281967012E+00 -0.19642326286E+02 -0.57140131523E+01  0.20459779235E+02  0.00000000000E+00 0.  1.
</event>
<event>
 7    1  0.2903212E-011  0.5052887E+02  0.7816164E-02  0.1300439E+00
        -11   -1    0    0    0    0  0.00000000000E+00  0.00000000000E+00  0.45593999997E+02  0.45594000000E+02  0.51100000000E-03 0.  1.
         11   -1    0    0    0    0 -0.00000000000E+00 -0.00000000000E+00 -0.45593999997E+02  0.45594000000E+02  0.51100000000E-03 0. -1.
    9900012    2    1    2    0    0 -0.18329810716E+02  0.12573018528E+02 -0.34045588954E+02  0.50528869622E+02  0.30000029704E+02 0.  0.
        -12    1    1    2    0    0  0.18329810716E+02 -0.12573018528E+02  0.34045588954E+02  0.40659130378E+02  0.00000000000E+00 0.  1.
         11    1    3    3    0    0 -0.23007583130E+01  0.24557393308E+01  0.52430310485E+01  0.62300497039E+01  0.51100000000E-03 0.  1.
        -11    1    3    3    0    0 -0.36525522332E+01  0.15824490682E+01 -0.28944146157E+01  0.49216784839E+01  0.51100000000E-03 0. -1.
        -12    1    3    3    0    0 -0.12376500170E+02  0.85348301294E+01 -0.36394205387E+02  0.39377141435E+02  0.00000000000E+00 0.  1.
</event>
<event>
 7    1  0.2903212E-011  0.5052887E+02  0.7816164E-02  0.1300439E+00
        -11   -1    0    0    0    0  0.00000000000E+00  0.00000000000E+00  0.45593999997E+02  0.45594000000E+02  0.51100000000E-03 0. -1.
         11   -1    0    0    0    0 -0.00000000000E+00 -0.00000000000E+00 -0.45593999997E+02  0.45594000000E+02  0.51100000000E-03 0.  1.
    9900012    2    1    2    0    0  0.47880063164E+00 -0.13941717356E+02  0.38191149980E+02  0.50528872246E+02  0.30000037680E+02 0.  0.
        -12    1    1    2    0    0 -0.47880063164E+00  0.13941717356E+02 -0.38191149980E+02  0.40659127754E+02  0.00000000000E+00 0.  1.
         11    1    3    3    0    0  0.17050637105E+01  0.11762887562E+01  0.88536403861E+01  0.90927358832E+01  0.51100000000E-03 0. -1.
        -11    1    3    3    0    0 -0.98019344881E+01  0.17001845878E+01  0.13649233329E+02  0.16889941328E+02  0.51100000000E-03 0.  1.
        -12    1    3    3    0    0  0.85756714093E+01 -0.16818190700E+02  0.15688276265E+02  0.24546195035E+02  0.00000000000E+00 0.  1.
</event>
<event>
 7    1  0.2903212E-011  0.5052885E+02  0.7816164E-02  0.1300439E+00
        -11   -1    0    0    0    0  0.00000000000E+00  0.00000000000E+00  0.45593999997E+02  0.45594000000E+02  0.51100000000E-03 0.  1.
         11   -1    0    0    0    0 -0.00000000000E+00 -0.00000000000E+00 -0.45593999997E+02  0.45594000000E+02  0.51100000000E-03 0. -1.
    9900012    2    1    2    0    0 -0.10764168426E+02 -0.37249154844E+02 -0.12239250264E+02  0.50528854590E+02  0.29999984010E+02 0.  0.
        -12    1    1    2    0    0  0.10764168426E+02  0.37249154844E+02  0.12239250264E+02  0.40659145410E+02  0.00000000000E+00 0.  1.
         11    1    3    3    0    0 -0.13090902190E+02 -0.12237538446E+02 -0.12289669339E+02  0.21729358943E+02  0.51100000000E-03 0. -1.
        -11    1    3    3    0    0 -0.65891949153E+00 -0.74560749934E+01 -0.64115089763E+01  0.98556926097E+01  0.51100000000E-03 0.  1.
         12    1    3    3    0    0  0.29856532551E+01 -0.17555541404E+02  0.64619280509E+01  0.18943803037E+02  0.00000000000E+00 0. -1.
</event>
<event>
 7    1  0.2903212E-011  0.5052886E+02  0.7816164E-02  0.1300439E+00
        -11   -1    0    0    0    0  0.00000000000E+00  0.00000000000E+00  0.45593999997E+02  0.45594000000E+02  0.51100000000E-03 0. -1.
         11   -1    0    0    0    0 -0.00000000000E+00 -0.00000000000E+00 -0.45593999997E+02  0.45594000000E+02  0.51100000000E-03 0.  1.
    9900012    2    1    2    0    0  0.12604599999E+02  0.38546115598E+02 -0.29131356457E+01  0.50528864149E+02  0.30000013068E+02 0.  0.
        -12    1    1    2    0    0 -0.12604599999E+02 -0.38546115598E+02  0.29131356457E+01  0.40659135851E+02  0.00000000000E+00 0.  1.
         11    1    3    3    0    0 -0.32649669787E+01  0.25739488448E+01  0.58221230029E+00  0.41981178463E+01  0.51100000000E-03 0. -1.
        -11    1    3    3    0    0 -0.50310918303E+01  0.57076577633E+01 -0.56662511670E+01  0.94866034331E+01  0.51100000000E-03 0.  1.
         12    1    3    3    0    0  0.20900658808E+02  0.30264508990E+02  0.21709032211E+01  0.36844142870E+02  0.00000000000E+00 0. -1.
</event>
<event>
 7    1  0.2903212E-011  0.5052883E+02  0.7816164E-02  0.1300439E+00
        -11   -1    0    0    0    0  0.00000000000E+00  0.00000000000E+00  0.45593999997E+02  0.45594000000E+02  0.51100000000E-03 0.  1.
         11   -1    0    0    0    0 -0.00000000000E+00 -0.00000000000E+00 -0.45593999997E+02  0.45594000000E+02  0.51100000000E-03 0. -1.
    9900012    2    1    2    0    0 -0.38159973118E+02  0.13770160032E+02 -0.27142590935E+01  0.50528830578E+02  0.29999911024E+02 0.  0.
        -12    1    1    2    0    0  0.38159973118E+02 -0.13770160032E+02  0.27142590935E+01  0.40659169422E+02  0.00000000000E+00 0.  1.
         11    1    3    3    0    0  0.12675457911E+01  0.44968181767E-01 -0.16178630068E+00  0.12786201696E+01  0.51100000000E-03 0. -1.
        -11    1    3    3    0    0 -0.13914730048E+02  0.18579265529E+02 -0.13843942985E+01  0.23253502268E+02  0.51100000000E-03 0.  1.
         12    1    3    3    0    0 -0.25512788861E+02 -0.48540736788E+01 -0.11680784943E+01  0.25996708140E+02  0.00000000000E+00 0. -1.
</event>
<event>
 7    1  0.2903212E-011  0.5052888E+02  0.7816164E-02  0.1300439E+00
        -11   -1    0    0    0    0  0.00000000000E+00  0.00000000000E+00  0.45593999997E+02  0.45594000000E+02  0.51100000000E-03 0.  1.
         11   -1    0    0    0    0 -0.00000000000E+00 -0.00000000000E+00 -0.45593999997E+02  0.45594000000E+02  0.51100000000E-03 0. -1.
    9900012    2    1    2    0    0  0.12155729416E+02  0.38608555167E+02  0.38446773648E+01  0.50528882526E+02  0.30000068927E+02 0.  0.
        -12    1    1    2    0    0 -0.12155729416E+02 -0.38608555167E+02 -0.38446773648E+01  0.40659117474E+02  0.00000000000E+00 0.  1.
         11    1    3    3    0    0  0.11896916547E+02  0.23990955029E+02  0.50411731744E+01  0.27249146294E+02  0.51100000000E-03 0. -1.
        -11    1    3    3    0    0  0.18821521702E+01 -0.58459331453E+00  0.60483941103E+01  0.63613927492E+01  0.51100000000E-03 0.  1.
        -12    1    3    3    0    0 -0.16233393012E+01  0.15202193453E+02 -0.72448899199E+01  0.16918343483E+02  0.00000000000E+00 0.  1.
</event>
<event>
 7    1  0.2903212E-011  0.5052886E+02  0.7816164E-02  0.1300439E+00
        -11   -1    0    0    0    0  0.00000000000E+00  0.00000000000E+00  0.45593999997E+02  0.45594000000E+02  0.51100000000E-03 0.  1.
         11   -1    0    0    0    0 -0.00000000000E+00 -0.00000000000E+00 -0.45593999997E+02  0.45594000000E+02  0.51100000000E-03 0. -1.
    9900012    2    1    2    0    0  0.18455890695E+02 -0.25360447293E+02 -0.25872645554E+02  0.50528856179E+02  0.29999988842E+02 0.  0.
        -12    1    1    2    0    0 -0.18455890695E+02  0.25360447293E+02  0.25872645554E+02  0.40659143821E+02  0.00000000000E+00 0.  1.
         11    1    3    3    0    0  0.56269290223E+01 -0.87971709433E+01 -0.57395776272E+01  0.11916178013E+02  0.51100000000E-03 0. -1.
        -11    1    3    3    0    0  0.43569314044E+01 -0.20071374463E+02 -0.53625589995E+01  0.21227339998E+02  0.51100000000E-03 0.  1.
        -12    1    3    3    0    0  0.84720302685E+01  0.35080981136E+01 -0.14770508928E+02  0.17385338168E+02  0.00000000000E+00 0.  1.
</event>
<event>
 7    1  0.2903212E-011  0.5052883E+02  0.7816164E-02  0.1300439E+00
        -11   -1    0    0    0    0  0.00000000000E+00  0.00000000000E+00  0.45593999997E+02  0.45594000000E+02  0.51100000000E-03 0.  1.
         11   -1    0    0    0    0 -0.00000000000E+00 -0.00000000000E+00 -0.45593999997E+02  0.45594000000E+02  0.51100000000E-03 0. -1.
    9900012    2    1    2    0    0  0.37691887330E+02 -0.29640952706E+01 -0.14956736252E+02  0.50528828949E+02  0.29999906072E+02 0.  0.
        -12    1    1    2    0    0 -0.37691887330E+02  0.29640952706E+01  0.14956736252E+02  0.40659171051E+02  0.00000000000E+00 0.  1.
         11    1    3    3    0    0  0.13209743555E+01 -0.56097768736E+01 -0.19483056350E+01  0.60836226813E+01  0.51100000000E-03 0. -1.
        -11    1    3    3    0    0  0.10209958375E+02 -0.53943748413E+01  0.40018486159E+01  0.12221183353E+02  0.51100000000E-03 0.  1.
         12    1    3    3    0    0  0.26160954600E+02  0.80400564443E+01 -0.17010279232E+02  0.32224022914E+02  0.00000000000E+00 0. -1.
</event>
<event>
 7    1  0.2903212E-011  0.5052887E+02  0.7816164E-02  0.1300439E+00
        -11   -1    0    0    0    0  0.00000000000E+00  0.00000000000E+00  0.45593999997E+02  0.45594000000E+02  0.51100000000E-03 0.  1.
         11   -1    0    0    0    0 -0.00000000000E+00 -0.00000000000E+00 -0.45593999997E+02  0.45594000000E+02  0.51100000000E-03 0. -1.
    9900012    2    1    2    0    0  0.22637145696E+02 -0.18941487058E+02 -0.27963267672E+02  0.50528872659E+02  0.30000038935E+02 0.  0.
        -12    1    1    2    0    0 -0.22637145696E+02  0.18941487058E+02  0.27963267672E+02  0.40659127341E+02  0.00000000000E+00 0.  1.
         11    1    3    3    0    0  0.11935879332E+02 -0.59384640597E+01 -0.94946990940E+01  0.16367036444E+02  0.51100000000E-03 0. -1.
        -11    1    3    3    0    0  0.12057652868E+02 -0.18761068160E+02 -0.11741592228E+02  0.25203762804E+02  0.51100000000E-03 0.  1.
         12    1    3    3    0    0 -0.13563865038E+01  0.57580451616E+01 -0.67269763498E+01  0.89580734112E+01  0.00000000000E+00 0. -1.
</event>
<event>
 7    1  0.2903212E-011  0.5052885E+02  0.7816164E-02  0.1300439E+00
        -11   -1    0    0    0    0  0.00000000000E+00  0.00000000000E+00  0.45593999997E+02  0.45594000000E+02  0.51100000000E-03 0.  1.
         11   -1    0    0    0    0 -0.00000000000E+00 -0.00000000000E+00 -0.45593999997E+02  0.45594000000E+02  0.51100000000E-03 0. -1.
    9900012    2    1    2    0    0  0.14750231619E+02 -0.24390888361E+02 -0.28994508785E+02  0.50528852105E+02  0.29999976459E+02 0.  0.
        -12    1    1    2    0    0 -0.14750231619E+02  0.24390888361E+02  0.28994508785E+02  0.40659147895E+02  0.00000000000E+00 0.  1.
         11    1    3    3    0    0 -0.77037163691E+00 -0.19099672632E+01 -0.51746787903E+01  0.55694477509E+01  0.51100000000E-03 0. -1.
        -11    1    3    3    0    0  0.90847137573E+01  0.43077369289E+01 -0.98254271440E+01  0.14058009828E+02  0.51100000000E-03 0.  1.
         12    1    3    3    0    0  0.64358894983E+01 -0.26788658027E+02 -0.13994402851E+02  0.30901394526E+02  0.00000000000E+00 0. -1.
</event>
<event>
 7    1  0.2903212E-011  0.5052877E+02  0.7816164E-02  0.1300439E+00
        -11   -1    0    0    0    0  0.00000000000E+00  0.00000000000E+00  0.45593999997E+02  0.45594000000E+02  0.51100000000E-03 0.  1.
         11   -1    0    0    0    0 -0.00000000000E+00 -0.00000000000E+00 -0.45593999997E+02  0.45594000000E+02  0.51100000000E-03 0. -1.
    9900012    2    1    2    0    0  0.34681145417E-01  0.39311221809E+02 -0.10382670591E+02  0.50528767205E+02  0.29999718395E+02 0.  0.
        -12    1    1    2    0    0 -0.34681145417E-01 -0.39311221809E+02  0.10382670591E+02  0.40659232795E+02  0.00000000000E+00 0.  1.
         11    1    3    3    0    0 -0.26054327889E+01  0.14989322828E+02 -0.10336322472E+02  0.18393141150E+02  0.51100000000E-03 0. -1.
        -11    1    3    3    0    0 -0.71290362937E+01  0.16033277558E+02 -0.52382475501E+01  0.18311973826E+02  0.51100000000E-03 0.  1.
        -12    1    3    3    0    0  0.97691502281E+01  0.82886214223E+01  0.51918994306E+01  0.13823652229E+02  0.00000000000E+00 0.  1.
</event>
<event>
 7    1  0.2903212E-011  0.5052886E+02  0.7816164E-02  0.1300439E+00
        -11   -1    0    0    0    0  0.00000000000E+00  0.00000000000E+00  0.45593999997E+02  0.45594000000E+02  0.51100000000E-03 0.  1.
         11   -1    0    0    0    0 -0.00000000000E+00 -0.00000000000E+00 -0.45593999997E+02  0.45594000000E+02  0.51100000000E-03 0. -1.
    9900012    2    1    2    0    0  0.13782203025E+02  0.15989414099E+02 -0.34749895072E+02  0.50528859687E+02  0.29999999506E+02 0.  0.
        -12    1    1    2    0    0 -0.13782203025E+02 -0.15989414099E+02  0.34749895072E+02  0.40659140313E+02  0.00000000000E+00 0.  1.
         11    1    3    3    0    0 -0.66810675173E+01  0.38853970608E-01 -0.13017123196E+02  0.14631598319E+02  0.51100000000E-03 0. -1.
        -11    1    3    3    0    0 -0.46784293824E+00 -0.94363400066E+00  0.33458816036E+00  0.11051115963E+01  0.51100000000E-03 0.  1.
         12    1    3    3    0    0  0.20931113480E+02  0.16894194129E+02 -0.22067360036E+02  0.34792149772E+02  0.00000000000E+00 0. -1.
</event>
<event>
 7    1  0.2903212E-011  0.5052886E+02  0.7816164E-02  0.1300439E+00
        -11   -1    0    0    0    0  0.00000000000E+00  0.00000000000E+00  0.45593999997E+02  0.45594000000E+02  0.51100000000E-03 0.  1.
         11   -1    0    0    0    0 -0.00000000000E+00 -0.00000000000E+00 -0.45593999997E+02  0.45594000000E+02  0.51100000000E-03 0. -1.
    9900012    2    1    2    0    0 -0.28621484597E+02  0.19256223045E+01 -0.28814369676E+02  0.50528864475E+02  0.30000014058E+02 0.  0.
        -12    1    1    2    0    0  0.28621484597E+02 -0.19256223045E+01  0.28814369676E+02  0.40659135525E+02  0.00000000000E+00 0.  1.
         11    1    3    3    0    0  0.66375698642E+00 -0.40208914118E+01 -0.38106429657E+01  0.55793495280E+01  0.51100000000E-03 0. -1.
        -11    1    3    3    0    0 -0.11763593189E+02 -0.79421119878E+01 -0.53097382944E+01  0.15154292743E+02  0.51100000000E-03 0.  1.
         12    1    3    3    0    0 -0.17521648395E+02  0.13888625704E+02 -0.19693988416E+02  0.29795222203E+02  0.00000000000E+00 0. -1.
</event>
<event>
 7    1  0.2903212E-011  0.5052886E+02  0.7816164E-02  0.1300439E+00
        -11   -1    0    0    0    0  0.00000000000E+00  0.00000000000E+00  0.45593999997E+02  0.45594000000E+02  0.51100000000E-03 0.  1.
         11   -1    0    0    0    0 -0.00000000000E+00 -0.00000000000E+00 -0.45593999997E+02  0.45594000000E+02  0.51100000000E-03 0. -1.
    9900012    2    1    2    0    0 -0.14322326955E+01 -0.18804236173E+02 -0.36021039486E+02  0.50528857434E+02  0.29999992656E+02 0.  0.
        -12    1    1    2    0    0  0.14322326955E+01  0.18804236173E+02  0.36021039486E+02  0.40659142566E+02  0.00000000000E+00 0.  1.
         11    1    3    3    0    0  0.41911210443E+01 -0.28963639473E+01 -0.12802963240E+02  0.13779342790E+02  0.51100000000E-03 0. -1.
        -11    1    3    3    0    0 -0.51256045955E+01 -0.45859373757E+01 -0.24404113103E+02  0.25354750654E+02  0.51100000000E-03 0.  1.
        -12    1    3    3    0    0 -0.49774914431E+00 -0.11321934850E+02  0.11860368577E+01  0.11394763990E+02  0.00000000000E+00 0.  1.
</event>
<event>
 7    1  0.2903212E-011  0.5052885E+02  0.7816164E-02  0.1300439E+00
        -11   -1    0    0    0    0  0.00000000000E+00  0.00000000000E+00  0.45593999997E+02  0.45594000000E+02  0.51100000000E-03 0. -1.
         11   -1    0    0    0    0 -0.00000000000E+00 -0.00000000000E+00 -0.45593999997E+02  0.45594000000E+02  0.51100000000E-03 0.  1.
    9900012    2    1    2    0    0 -0.24740881387E+02 -0.26786069180E+01  0.32154013334E+02  0.50528847029E+02  0.29999961029E+02 0.  0.
        -12    1    1    2    0    0  0.24740881387E+02  0.26786069180E+01 -0.32154013334E+02  0.40659152971E+02  0.00000000000E+00 0.  1.
         11    1    3    3    0    0 -0.10348141497E+01  0.86485417609E+00  0.70995113556E+01  0.72264704261E+01  0.51100000000E-03 0.  1.
        -11    1    3    3    0    0 -0.18818787516E+02  0.86767709236E+01  0.21065733042E+02  0.29549927684E+02  0.51100000000E-03 0. -1.
         12    1    3    3    0    0 -0.48872797212E+01 -0.12220232018E+02  0.39887689366E+01  0.13752448919E+02  0.00000000000E+00 0. -1.
</event>
<event>
 7    1  0.2903212E-011  0.5052886E+02  0.7816164E-02  0.1300439E+00
        -11   -1    0    0    0    0  0.00000000000E+00  0.00000000000E+00  0.45593999997E+02  0.45594000000E+02  0.51100000000E-03 0.  1.
         11   -1    0    0    0    0 -0.00000000000E+00 -0.00000000000E+00 -0.45593999997E+02  0.45594000000E+02  0.51100000000E-03 0. -1.
    9900012    2    1    2    0    0  0.50761120548E+01 -0.28610492389E+02 -0.28440086771E+02  0.50528859283E+02  0.29999998275E+02 0.  0.
        -12    1    1    2    0    0 -0.50761120548E+01  0.28610492389E+02  0.28440086771E+02  0.40659140717E+02  0.00000000000E+00 0.  1.
         11    1    3    3    0    0  0.10994538865E+02 -0.16057241820E+02 -0.18506885868E+02  0.26855534336E+02  0.51100000000E-03 0. -1.
        -11    1    3    3    0    0  0.57582979378E+01 -0.42700904407E+01 -0.31149700213E+01  0.78163102553E+01  0.51100000000E-03 0.  1.
        -12    1    3    3    0    0 -0.11676724748E+02 -0.82831601281E+01 -0.68182308826E+01  0.15857014691E+02  0.00000000000E+00 0.  1.
</event>
<event>
 7    1  0.2903212E-011  0.5052886E+02  0.7816164E-02  0.1300439E+00
        -11   -1    0    0    0    0  0.00000000000E+00  0.00000000000E+00  0.45593999997E+02  0.45594000000E+02  0.51100000000E-03 0.  1.
         11   -1    0    0    0    0 -0.00000000000E+00 -0.00000000000E+00 -0.45593999997E+02  0.45594000000E+02  0.51100000000E-03 0. -1.
    9900012    2    1    2    0    0  0.32595635280E+02 -0.14716097863E+02 -0.19342349572E+02  0.50528862496E+02  0.30000008042E+02 0.  0.
        -12    1    1    2    0    0 -0.32595635280E+02  0.14716097863E+02  0.19342349572E+02  0.40659137504E+02  0.00000000000E+00 0.  1.
         11    1    3    3    0    0  0.11068710578E+02  0.40427576439E+01 -0.52196946295E+01  0.12888190545E+02  0.51100000000E-03 0. -1.
        -11    1    3    3    0    0  0.14492806491E+02 -0.71443793949E-01 -0.88776554657E+01  0.16995861585E+02  0.51100000000E-03 0.  1.
        -12    1    3    3    0    0  0.70341182111E+01 -0.18687411713E+02 -0.52449994773E+01  0.20644810366E+02  0.00000000000E+00 0.  1.
</event>
<event>
 7    1  0.2903212E-011  0.5052886E+02  0.7816164E-02  0.1300439E+00
        -11   -1    0    0    0    0  0.00000000000E+00  0.00000000000E+00  0.45593999997E+02  0.45594000000E+02  0.51100000000E-03 0. -1.
         11   -1    0    0    0    0 -0.00000000000E+00 -0.00000000000E+00 -0.45593999997E+02  0.45594000000E+02  0.51100000000E-03 0.  1.
    9900012    2    1    2    0    0 -0.31218002733E+02 -0.56373102744E+01  0.25432708616E+02  0.50528860446E+02  0.30000001812E+02 0.  0.
        -12    1    1    2    0    0  0.31218002733E+02  0.56373102744E+01 -0.25432708616E+02  0.40659139554E+02  0.00000000000E+00 0.  1.
         11    1    3    3    0    0 -0.56214888004E+01  0.64096291003E+01  0.65697776700E+01  0.10763199359E+02  0.51100000000E-03 0. -1.
        -11    1    3    3    0    0 -0.71920475718E+00 -0.52537057598E+00  0.11287364677E+02  0.11322449882E+02  0.51100000000E-03 0.  1.
         12    1    3    3    0    0 -0.24877309175E+02 -0.11521568799E+02  0.75755662688E+01  0.28443211205E+02  0.00000000000E+00 0. -1.
</event>
<event>
 7    1  0.2903212E-011  0.5052886E+02  0.7816164E-02  0.1300439E+00
        -11   -1    0    0    0    0  0.00000000000E+00  0.00000000000E+00  0.45593999997E+02  0.45594000000E+02  0.51100000000E-03 0. -1.
         11   -1    0    0    0    0 -0.00000000000E+00 -0.00000000000E+00 -0.45593999997E+02  0.45594000000E+02  0.51100000000E-03 0.  1.
    9900012    2    1    2    0    0  0.25335343850E+02  0.25004565421E+02  0.19648352091E+02  0.50528859824E+02  0.29999999922E+02 0.  0.
        -12    1    1    2    0    0 -0.25335343850E+02 -0.25004565421E+02 -0.19648352091E+02  0.40659140176E+02  0.00000000000E+00 0.  1.
         11    1    3    3    0    0  0.11772828249E+02  0.13957878207E+02  0.14899524916E+02  0.23567301331E+02  0.51100000000E-03 0.  1.
        -11    1    3    3    0    0  0.13516383490E+02  0.13876202272E+02  0.93889414348E+01  0.21526584347E+02  0.51100000000E-03 0. -1.
        -12    1    3    3    0    0  0.46132111755E-01 -0.28295150578E+01 -0.46401142594E+01  0.54349741467E+01  0.00000000000E+00 0.  1.
</event>
<event>
 7    1  0.2903212E-011  0.5052886E+02  0.7816164E-02  0.1300439E+00
        -11   -1    0    0    0    0  0.00000000000E+00  0.00000000000E+00  0.45593999997E+02  0.45594000000E+02  0.51100000000E-03 0. -1.
         11   -1    0    0    0    0 -0.00000000000E+00 -0.00000000000E+00 -0.45593999997E+02  0.45594000000E+02  0.51100000000E-03 0.  1.
    9900012    2    1    2    0    0 -0.66393097826E+01 -0.14385395129E+02  0.37445237890E+02  0.50528857509E+02  0.29999992885E+02 0.  0.
        -12    1    1    2    0    0  0.66393097826E+01  0.14385395129E+02 -0.37445237890E+02  0.40659142491E+02  0.00000000000E+00 0.  1.
         11    1    3    3    0    0  0.50901260001E+00 -0.44352980031E+01  0.20265216609E+02  0.20751143744E+02  0.51100000000E-03 0. -1.
        -11    1    3    3    0    0 -0.48557863458E+01  0.41195276948E+01  0.13694503430E+02  0.15102602223E+02  0.51100000000E-03 0.  1.
        -12    1    3    3    0    0 -0.22925360368E+01 -0.14069624821E+02  0.34855178515E+01  0.14675111542E+02  0.00000000000E+00 0.  1.
</event>
<event>
 7    1  0.2903212E-011  0.5052886E+02  0.7816164E-02  0.1300439E+00
        -11   -1    0    0    0    0  0.00000000000E+00  0.00000000000E+00  0.45593999997E+02  0.45594000000E+02  0.51100000000E-03 0.  1.
         11   -1    0    0    0    0 -0.00000000000E+00 -0.00000000000E+00 -0.45593999997E+02  0.45594000000E+02  0.51100000000E-03 0. -1.
    9900012    2    1    2    0    0 -0.39517459122E+02 -0.59488127400E+01  0.74932004507E+01  0.50528855869E+02  0.29999987899E+02 0.  0.
        -12    1    1    2    0    0  0.39517459122E+02  0.59488127400E+01 -0.74932004507E+01  0.40659144131E+02  0.00000000000E+00 0.  1.
         11    1    3    3    0    0 -0.50441227095E+01 -0.99532058744E+00  0.46108205035E+01  0.69060482880E+01  0.51100000000E-03 0. -1.
        -11    1    3    3    0    0 -0.13484393576E+02  0.55192732762E+01  0.11573872590E+02  0.18607680528E+02  0.51100000000E-03 0.  1.
         12    1    3    3    0    0 -0.20988942836E+02 -0.10472765429E+02 -0.86914926432E+01  0.25015127053E+02  0.00000000000E+00 0. -1.
</event>
<event>
 7    1  0.2903212E-011  0.5052885E+02  0.7816164E-02  0.1300439E+00
        -11   -1    0    0    0    0  0.00000000000E+00  0.00000000000E+00  0.45593999997E+02  0.45594000000E+02  0.51100000000E-03 0.  1.
         11   -1    0    0    0    0 -0.00000000000E+00 -0.00000000000E+00 -0.45593999997E+02  0.45594000000E+02  0.51100000000E-03 0. -1.
    9900012    2    1    2    0    0  0.21894335793E+02 -0.33808144274E+02 -0.55510103050E+01  0.50528852511E+02  0.29999977693E+02 0.  0.
        -12    1    1    2    0    0 -0.21894335793E+02  0.33808144274E+02  0.55510103050E+01  0.40659147489E+02  0.00000000000E+00 0.  1.
         11    1    3    3    0    0  0.25588270512E+01 -0.56897520059E+01  0.29206612037E+01  0.68884784891E+01  0.51100000000E-03 0. -1.
        -11    1    3    3    0    0  0.37748310923E+01 -0.15860857016E+02  0.77359307766E+01  0.18046073265E+02  0.51100000000E-03 0.  1.
         12    1    3    3    0    0  0.15560677650E+02 -0.12257535252E+02 -0.16207602285E+02  0.25594300757E+02  0.00000000000E+00 0. -1.
</event>
<event>
 7    1  0.2903212E-011  0.5052886E+02  0.7816164E-02  0.1300439E+00
        -11   -1    0    0    0    0  0.00000000000E+00  0.00000000000E+00  0.45593999997E+02  0.45594000000E+02  0.51100000000E-03 0.  1.
         11   -1    0    0    0    0 -0.00000000000E+00 -0.00000000000E+00 -0.45593999997E+02  0.45594000000E+02  0.51100000000E-03 0. -1.
    9900012    2    1    2    0    0  0.15448402563E+02 -0.38259347360E+01 -0.37414896186E+02  0.50528863573E+02  0.30000011317E+02 0.  0.
        -12    1    1    2    0    0 -0.15448402563E+02  0.38259347360E+01  0.37414896186E+02  0.40659136427E+02  0.00000000000E+00 0.  1.
         11    1    3    3    0    0  0.13315035724E+01 -0.12142894300E-02  0.11672391706E+01  0.17706921755E+01  0.51100000000E-03 0. -1.
        -11    1    3    3    0    0  0.34434995055E+01  0.10799520945E+02 -0.11225282578E+02  0.15952877819E+02  0.51100000000E-03 0.  1.
         12    1    3    3    0    0  0.10673399485E+02 -0.14624241391E+02 -0.27356852779E+02  0.32805293579E+02  0.00000000000E+00 0. -1.
</event>
<event>
 7    1  0.2903212E-011  0.5052886E+02  0.7816164E-02  0.1300439E+00
        -11   -1    0    0    0    0  0.00000000000E+00  0.00000000000E+00  0.45593999997E+02  0.45594000000E+02  0.51100000000E-03 0.  1.
         11   -1    0    0    0    0 -0.00000000000E+00 -0.00000000000E+00 -0.45593999997E+02  0.45594000000E+02  0.51100000000E-03 0. -1.
    9900012    2    1    2    0    0  0.24887831639E+02 -0.32124261189E+02 -0.13391559642E+01  0.50528860077E+02  0.30000000689E+02 0.  0.
        -12    1    1    2    0    0 -0.24887831639E+02  0.32124261189E+02  0.13391559642E+01  0.40659139923E+02  0.00000000000E+00 0.  1.
         11    1    3    3    0    0  0.23843498621E+02 -0.11712454268E+02  0.58139123052E+00  0.26571263189E+02  0.51100000000E-03 0.  1.
        -11    1    3    3    0    0  0.54971845330E+01 -0.63895035569E+01  0.21379802227E+01  0.86957318948E+01  0.51100000000E-03 0. -1.
        -12    1    3    3    0    0 -0.44528515147E+01 -0.14022303364E+02 -0.40585274175E+01  0.15261864992E+02  0.00000000000E+00 0.  1.
</event>
<event>
 7    1  0.2903212E-011  0.5052885E+02  0.7816164E-02  0.1300439E+00
        -11   -1    0    0    0    0  0.00000000000E+00  0.00000000000E+00  0.45593999997E+02  0.45594000000E+02  0.51100000000E-03 0.  1.
         11   -1    0    0    0    0 -0.00000000000E+00 -0.00000000000E+00 -0.45593999997E+02  0.45594000000E+02  0.51100000000E-03 0. -1.
    9900012    2    1    2    0    0 -0.63501984117E+01 -0.24008660133E+02 -0.32193565452E+02  0.50528850504E+02  0.29999971592E+02 0.  0.
        -12    1    1    2    0    0  0.63501984117E+01  0.24008660133E+02  0.32193565452E+02  0.40659149496E+02  0.00000000000E+00 0.  1.
         11    1    3    3    0    0  0.33320216162E+01 -0.84292874045E+01 -0.16735447134E+02  0.19032352594E+02  0.51100000000E-03 0. -1.
        -11    1    3    3    0    0 -0.27055477411E+01 -0.81397153442E+01 -0.18881204941E+02  0.20738246183E+02  0.51100000000E-03 0.  1.
        -12    1    3    3    0    0 -0.69766722867E+01 -0.74396573841E+01  0.34230866240E+01  0.10758251727E+02  0.00000000000E+00 0.  1.
</event>
<event>
 7    1  0.2903212E-011  0.5052882E+02  0.7816164E-02  0.1300439E+00
        -11   -1    0    0    0    0  0.00000000000E+00  0.00000000000E+00  0.45593999997E+02  0.45594000000E+02  0.51100000000E-03 0. -1.
         11   -1    0    0    0    0 -0.00000000000E+00 -0.00000000000E+00 -0.45593999997E+02  0.45594000000E+02  0.51100000000E-03 0.  1.
    9900012    2    1    2    0    0  0.42543308956E-02 -0.35777354519E+02 -0.19317087503E+02  0.50528819191E+02  0.29999876411E+02 0.  0.
        -12    1    1    2    0    0 -0.42543308956E-02  0.35777354519E+02  0.19317087503E+02  0.40659180809E+02  0.00000000000E+00 0.  1.
         11    1    3    3    0    0  0.58305896333E+00  0.27345104456E+01 -0.50456646887E+01  0.57685559322E+01  0.51100000000E-03 0. -1.
        -11    1    3    3    0    0 -0.42901446446E+01 -0.25076883156E+02 -0.16945290682E+02  0.30567929051E+02  0.51100000000E-03 0.  1.
         12    1    3    3    0    0  0.37113400122E+01 -0.13434981809E+02  0.26738678675E+01  0.14192334208E+02  0.00000000000E+00 0. -1.
</event>
<event>
 7    1  0.2903212E-011  0.5052886E+02  0.7816164E-02  0.1300439E+00
        -11   -1    0    0    0    0  0.00000000000E+00  0.00000000000E+00  0.45593999997E+02  0.45594000000E+02  0.51100000000E-03 0.  1.
         11   -1    0    0    0    0 -0.00000000000E+00 -0.00000000000E+00 -0.45593999997E+02  0.45594000000E+02  0.51100000000E-03 0. -1.
    9900012    2    1    2    0    0  0.27767686025E+02 -0.18384367276E+02 -0.23326732928E+02  0.50528858144E+02  0.29999994816E+02 0.  0.
        -12    1    1    2    0    0 -0.27767686025E+02  0.18384367276E+02  0.23326732928E+02  0.40659141856E+02  0.00000000000E+00 0.  1.
         11    1    3    3    0    0  0.93825880269E+01 -0.60113721208E+01 -0.69929833265E+01  0.13155659198E+02  0.51100000000E-03 0. -1.
        -11    1    3    3    0    0  0.12978099307E+02 -0.19252752170E+02 -0.62961446749E+01  0.24057035681E+02  0.51100000000E-03 0.  1.
        -12    1    3    3    0    0  0.54069986916E+01  0.68797570156E+01 -0.10037604927E+02  0.13316163265E+02  0.00000000000E+00 0.  1.
</event>
<event>
 7    1  0.2903212E-011  0.5052886E+02  0.7816164E-02  0.1300439E+00
        -11   -1    0    0    0    0  0.00000000000E+00  0.00000000000E+00  0.45593999997E+02  0.45594000000E+02  0.51100000000E-03 0.  1.
         11   -1    0    0    0    0 -0.00000000000E+00 -0.00000000000E+00 -0.45593999997E+02  0.45594000000E+02  0.51100000000E-03 0. -1.
    9900012    2    1    2    0    0  0.10220897429E+02  0.19854416070E+02 -0.33977950181E+02  0.50528859819E+02  0.29999999905E+02 0.  0.
        -12    1    1    2    0    0 -0.10220897429E+02 -0.19854416070E+02  0.33977950181E+02  0.40659140181E+02  0.00000000000E+00 0.  1.
         11    1    3    3    0    0 -0.40576396007E+01  0.12585860632E+01  0.12385392753E+01  0.44252070918E+01  0.51100000000E-03 0.  1.
        -11    1    3    3    0    0 -0.28939167267E+01 -0.65277618664E+00 -0.76220395297E+00  0.30629766401E+01  0.51100000000E-03 0. -1.
         12    1    3    3    0    0  0.17172453757E+02  0.19248606194E+02 -0.34454285504E+02  0.43040676087E+02  0.00000000000E+00 0. -1.
</event>
<event>
 7    1  0.2903212E-011  0.5052887E+02  0.7816164E-02  0.1300439E+00
        -11   -1    0    0    0    0  0.00000000000E+00  0.00000000000E+00  0.45593999997E+02  0.45594000000E+02  0.51100000000E-03 0.  1.
         11   -1    0    0    0    0 -0.00000000000E+00 -0.00000000000E+00 -0.45593999997E+02  0.45594000000E+02  0.51100000000E-03 0. -1.
    9900012    2    1    2    0    0  0.78640747817E+01  0.33138574261E+02 -0.22207120581E+02  0.50528868422E+02  0.30000026054E+02 0.  0.
        -12    1    1    2    0    0 -0.78640747817E+01 -0.33138574261E+02  0.22207120581E+02  0.40659131578E+02  0.00000000000E+00 0.  1.
         11    1    3    3    0    0  0.70958713045E+01  0.13487416013E+02 -0.93726737735E+01  0.17891584452E+02  0.51100000000E-03 0. -1.
        -11    1    3    3    0    0  0.94991251175E+01  0.19000459232E+02 -0.94702273285E+01  0.23258031622E+02  0.51100000000E-03 0.  1.
        -12    1    3    3    0    0 -0.87309216403E+01  0.65069901626E+00 -0.33642194792E+01  0.93792523477E+01  0.00000000000E+00 0.  1.
</event>
<event>
 7    1  0.2903212E-011  0.5052887E+02  0.7816164E-02  0.1300439E+00
        -11   -1    0    0    0    0  0.00000000000E+00  0.00000000000E+00  0.45593999997E+02  0.45594000000E+02  0.51100000000E-03 0. -1.
         11   -1    0    0    0    0 -0.00000000000E+00 -0.00000000000E+00 -0.45593999997E+02  0.45594000000E+02  0.51100000000E-03 0.  1.
    9900012    2    1    2    0    0 -0.36417102726E+02  0.16480942996E+02  0.74389415578E+01  0.50528871818E+02  0.30000036378E+02 0.  0.
        -12    1    1    2    0    0  0.36417102726E+02 -0.16480942996E+02 -0.74389415578E+01  0.40659128182E+02  0.00000000000E+00 0.  1.
         11    1    3    3    0    0 -0.25456670725E+00  0.75481713154E+01  0.47329520573E+01  0.89129417059E+01  0.51100000000E-03 0. -1.
        -11    1    3    3    0    0 -0.71249481973E+01 -0.41793105801E+01  0.50288253017E+01  0.96706053541E+01  0.51100000000E-03 0.  1.
         12    1    3    3    0    0 -0.29037587822E+02  0.13112082261E+02 -0.23228358012E+01  0.31945324758E+02  0.00000000000E+00 0. -1.
</event>
<event>
 7    1  0.2903212E-011  0.5052886E+02  0.7816164E-02  0.1300439E+00
        -11   -1    0    0    0    0  0.00000000000E+00  0.00000000000E+00  0.45593999997E+02  0.45594000000E+02  0.51100000000E-03 0. -1.
         11   -1    0    0    0    0 -0.00000000000E+00 -0.00000000000E+00 -0.45593999997E+02  0.45594000000E+02  0.51100000000E-03 0.  1.
    9900012    2    1    2    0    0 -0.18136688152E+02  0.26383490407E+01  0.36294149175E+02  0.50528860718E+02  0.30000002638E+02 0.  0.
        -12    1    1    2    0    0  0.18136688152E+02 -0.26383490407E+01 -0.36294149175E+02  0.40659139282E+02  0.00000000000E+00 0.  1.
         11    1    3    3    0    0 -0.55206379393E+01 -0.46846237725E+00  0.19333448791E+02  0.20111666829E+02  0.51100000000E-03 0. -1.
        -11    1    3    3    0    0 -0.68791860748E+01  0.64526911955E+01  0.20734262354E+02  0.22778719462E+02  0.51100000000E-03 0.  1.
        -12    1    3    3    0    0 -0.57368641381E+01 -0.33458797776E+01 -0.37735619692E+01  0.76384744262E+01  0.00000000000E+00 0.  1.
</event>
<event>
 7    1  0.2903212E-011  0.5052886E+02  0.7816164E-02  0.1300439E+00
        -11   -1    0    0    0    0  0.00000000000E+00  0.00000000000E+00  0.45593999997E+02  0.45594000000E+02  0.51100000000E-03 0.  1.
         11   -1    0    0    0    0 -0.00000000000E+00 -0.00000000000E+00 -0.45593999997E+02  0.45594000000E+02  0.51100000000E-03 0. -1.
    9900012    2    1    2    0    0 -0.18109171694E+02  0.32992706417E+02 -0.15385204787E+02  0.50528864465E+02  0.30000014027E+02 0.  0.
        -12    1    1    2    0    0  0.18109171694E+02 -0.32992706417E+02  0.15385204787E+02  0.40659135535E+02  0.00000000000E+00 0.  1.
         11    1    3    3    0    0 -0.90118472131E+01  0.69045595757E+01 -0.94423921672E+01  0.14766350369E+02  0.51100000000E-03 0. -1.
        -11    1    3    3    0    0  0.68230929885E+01  0.96028737993E+01 -0.50794110523E+01  0.12828491729E+02  0.51100000000E-03 0.  1.
         12    1    3    3    0    0 -0.15920417469E+02  0.16485273042E+02 -0.86340156758E+00  0.22934022367E+02  0.00000000000E+00 0. -1.
</event>
<event>
 7    1  0.2903212E-011  0.5052886E+02  0.7816164E-02  0.1300439E+00
        -11   -1    0    0    0    0  0.00000000000E+00  0.00000000000E+00  0.45593999997E+02  0.45594000000E+02  0.51100000000E-03 0.  1.
         11   -1    0    0    0    0 -0.00000000000E+00 -0.00000000000E+00 -0.45593999997E+02  0.45594000000E+02  0.51100000000E-03 0. -1.
    9900012    2    1    2    0    0 -0.27114764281E+02 -0.24504165609E+02 -0.17818552745E+02  0.50528863313E+02  0.30000010526E+02 0.  0.
        -12    1    1    2    0    0  0.27114764281E+02  0.24504165609E+02  0.17818552745E+02  0.40659136687E+02  0.00000000000E+00 0.  1.
         11    1    3    3    0    0 -0.22521003021E+02 -0.25963182425E+02 -0.20143383186E+02  0.39837649342E+02  0.51100000000E-03 0. -1.
        -11    1    3    3    0    0 -0.32902467337E+01  0.44066859692E+01 -0.14893692337E+01  0.56976157974E+01  0.51100000000E-03 0.  1.
        -12    1    3    3    0    0 -0.13035145269E+01 -0.29476691533E+01  0.38141996744E+01  0.49935981732E+01  0.00000000000E+00 0.  1.
</event>
<event>
 7    1  0.2903212E-011  0.5052885E+02  0.7816164E-02  0.1300439E+00
        -11   -1    0    0    0    0  0.00000000000E+00  0.00000000000E+00  0.45593999997E+02  0.45594000000E+02  0.51100000000E-03 0. -1.
         11   -1    0    0    0    0 -0.00000000000E+00 -0.00000000000E+00 -0.45593999997E+02  0.45594000000E+02  0.51100000000E-03 0.  1.
    9900012    2    1    2    0    0  0.21232164338E+02 -0.65484917756E+01  0.34051119003E+02  0.50528852783E+02  0.29999978520E+02 0.  0.
        -12    1    1    2    0    0 -0.21232164338E+02  0.65484917756E+01 -0.34051119003E+02  0.40659147217E+02  0.00000000000E+00 0.  1.
         11    1    3    3    0    0  0.11763662764E+02  0.17576498512E+01  0.69221633783E+01  0.13761883618E+02  0.51100000000E-03 0. -1.
        -11    1    3    3    0    0  0.22142033069E+01 -0.86824636563E+01  0.29286936572E+00  0.89651349211E+01  0.51100000000E-03 0.  1.
        -12    1    3    3    0    0  0.72542982674E+01  0.37632202948E+00  0.26836086259E+02  0.27801834244E+02  0.00000000000E+00 0.  1.
</event>
<event>
 7    1  0.2903212E-011  0.5052886E+02  0.7816164E-02  0.1300439E+00
        -11   -1    0    0    0    0  0.00000000000E+00  0.00000000000E+00  0.45593999997E+02  0.45594000000E+02  0.51100000000E-03 0.  1.
         11   -1    0    0    0    0 -0.00000000000E+00 -0.00000000000E+00 -0.45593999997E+02  0.45594000000E+02  0.51100000000E-03 0. -1.
    9900012    2    1    2    0    0 -0.71948579182E+01 -0.65754706943E+00 -0.40012088281E+02  0.50528861332E+02  0.30000004504E+02 0.  0.
        -12    1    1    2    0    0  0.71948579182E+01  0.65754706943E+00  0.40012088281E+02  0.40659138668E+02  0.00000000000E+00 0.  1.
         11    1    3    3    0    0  0.39324178288E+01  0.48039315189E+01 -0.61891529216E+01  0.87662581622E+01  0.51100000000E-03 0. -1.
        -11    1    3    3    0    0 -0.27571388906E+01  0.18974283011E+01  0.22329889362E+01  0.40234672697E+01  0.51100000000E-03 0.  1.
        -12    1    3    3    0    0 -0.83701368565E+01 -0.73589068895E+01 -0.36055924296E+02  0.37739135900E+02  0.00000000000E+00 0.  1.
</event>
<event>
 7    1  0.2903212E-011  0.5052885E+02  0.7816164E-02  0.1300439E+00
        -11   -1    0    0    0    0  0.00000000000E+00  0.00000000000E+00  0.45593999997E+02  0.45594000000E+02  0.51100000000E-03 0.  1.
         11   -1    0    0    0    0 -0.00000000000E+00 -0.00000000000E+00 -0.45593999997E+02  0.45594000000E+02  0.51100000000E-03 0. -1.
    9900012    2    1    2    0    0  0.24676901134E+02 -0.31246779505E+02 -0.82374701461E+01  0.50528848590E+02  0.29999965774E+02 0.  0.
        -12    1    1    2    0    0 -0.24676901134E+02  0.31246779505E+02  0.82374701461E+01  0.40659151410E+02  0.00000000000E+00 0.  1.
         11    1    3    3    0    0  0.21053991804E+02 -0.21694759170E+02 -0.71981580803E+01  0.31076464186E+02  0.51100000000E-03 0. -1.
        -11    1    3    3    0    0  0.63385775332E+01 -0.83225813302E+01 -0.71376293356E+01  0.12664465166E+02  0.51100000000E-03 0.  1.
        -12    1    3    3    0    0 -0.27156682034E+01 -0.12294390047E+01  0.60983172699E+01  0.67879192380E+01  0.00000000000E+00 0.  1.
</event>
<event>
 7    1  0.2903212E-011  0.5052887E+02  0.7816164E-02  0.1300439E+00
        -11   -1    0    0    0    0  0.00000000000E+00  0.00000000000E+00  0.45593999997E+02  0.45594000000E+02  0.51100000000E-03 0. -1.
         11   -1    0    0    0    0 -0.00000000000E+00 -0.00000000000E+00 -0.45593999997E+02  0.45594000000E+02  0.51100000000E-03 0.  1.
    9900012    2    1    2    0    0 -0.18300124440E+02 -0.36059836715E+02  0.42377784212E+01  0.50528866409E+02  0.30000019938E+02 0.  0.
        -12    1    1    2    0    0  0.18300124440E+02  0.36059836715E+02 -0.42377784212E+01  0.40659133591E+02  0.00000000000E+00 0.  1.
         11    1    3    3    0    0 -0.44127756751E+01 -0.26317526042E+01 -0.24864110588E+01  0.57079725948E+01  0.51100000000E-03 0. -1.
        -11    1    3    3    0    0 -0.83371840958E+01 -0.30235193854E+02 -0.47106449007E+01  0.31715386829E+02  0.51100000000E-03 0.  1.
        -12    1    3    3    0    0 -0.55501646689E+01 -0.31928902561E+01  0.11434834381E+02  0.13105506986E+02  0.00000000000E+00 0.  1.
</event>
<event>
 7    1  0.2903212E-011  0.5052883E+02  0.7816164E-02  0.1300439E+00
        -11   -1    0    0    0    0  0.00000000000E+00  0.00000000000E+00  0.45593999997E+02  0.45594000000E+02  0.51100000000E-03 0. -1.
         11   -1    0    0    0    0 -0.00000000000E+00 -0.00000000000E+00 -0.45593999997E+02  0.45594000000E+02  0.51100000000E-03 0.  1.
    9900012    2    1    2    0    0  0.36401081557E+02 -0.15112839085E+02  0.99865487663E+01  0.50528833752E+02  0.29999920674E+02 0.  0.
        -12    1    1    2    0    0 -0.36401081557E+02  0.15112839085E+02 -0.99865487663E+01  0.40659166248E+02  0.00000000000E+00 0.  1.
         11    1    3    3    0    0  0.12664947567E+02 -0.60090357888E+01  0.15630436156E+02  0.20995712483E+02  0.51100000000E-03 0. -1.
        -11    1    3    3    0    0  0.54012028191E+00 -0.48058215751E+01  0.11745752499E+01  0.49766734080E+01  0.51100000000E-03 0.  1.
        -12    1    3    3    0    0  0.23196013707E+02 -0.42979817209E+01 -0.68184626397E+01  0.24556447861E+02  0.00000000000E+00 0.  1.
</event>
<event>
 7    1  0.2903212E-011  0.5052886E+02  0.7816164E-02  0.1300439E+00
        -11   -1    0    0    0    0  0.00000000000E+00  0.00000000000E+00  0.45593999997E+02  0.45594000000E+02  0.51100000000E-03 0. -1.
         11   -1    0    0    0    0 -0.00000000000E+00 -0.00000000000E+00 -0.45593999997E+02  0.45594000000E+02  0.51100000000E-03 0.  1.
    9900012    2    1    2    0    0 -0.30505226563E+02  0.17894948093E+02  0.20059107518E+02  0.50528858232E+02  0.29999995082E+02 0.  0.
        -12    1    1    2    0    0  0.30505226563E+02 -0.17894948093E+02 -0.20059107518E+02  0.40659141768E+02  0.00000000000E+00 0.  1.
         11    1    3    3    0    0 -0.14412738142E+02  0.18329248567E+02  0.12818986213E+01  0.23352336887E+02  0.51100000000E-03 0. -1.
        -11    1    3    3    0    0 -0.11941926547E+01 -0.40997555698E+01  0.47630195519E+01  0.63969092022E+01  0.51100000000E-03 0.  1.
        -12    1    3    3    0    0 -0.14898295766E+02  0.36654550960E+01  0.14014189345E+02  0.20779612142E+02  0.00000000000E+00 0.  1.
</event>
<event>
 7    1  0.2903212E-011  0.5052886E+02  0.7816164E-02  0.1300439E+00
        -11   -1    0    0    0    0  0.00000000000E+00  0.00000000000E+00  0.45593999997E+02  0.45594000000E+02  0.51100000000E-03 0.  1.
         11   -1    0    0    0    0 -0.00000000000E+00 -0.00000000000E+00 -0.45593999997E+02  0.45594000000E+02  0.51100000000E-03 0. -1.
    9900012    2    1    2    0    0 -0.16613267388E+02 -0.31003266263E+02 -0.20395150300E+02  0.50528864150E+02  0.30000013070E+02 0.  0.
        -12    1    1    2    0    0  0.16613267388E+02  0.31003266263E+02  0.20395150300E+02  0.40659135850E+02  0.00000000000E+00 0.  1.
         11    1    3    3    0    0 -0.14576017403E+02 -0.16184965707E+02 -0.18015677369E+02  0.28266199419E+02  0.51100000000E-03 0. -1.
        -11    1    3    3    0    0 -0.44215186478E+01 -0.60336793659E+01 -0.84778737381E+01  0.11306168990E+02  0.51100000000E-03 0.  1.
        -12    1    3    3    0    0  0.23842686628E+01 -0.87846211905E+01  0.60984008073E+01  0.10956495741E+02  0.00000000000E+00 0.  1.
</event>
<event>
 7    1  0.2903212E-011  0.5052886E+02  0.7816164E-02  0.1300439E+00
        -11   -1    0    0    0    0  0.00000000000E+00  0.00000000000E+00  0.45593999997E+02  0.45594000000E+02  0.51100000000E-03 0. -1.
         11   -1    0    0    0    0 -0.00000000000E+00 -0.00000000000E+00 -0.45593999997E+02  0.45594000000E+02  0.51100000000E-03 0.  1.
    9900012    2    1    2    0    0  0.33275105125E+02 -0.20430139315E+02  0.11337668856E+02  0.50528856519E+02  0.29999989875E+02 0.  0.
        -12    1    1    2    0    0 -0.33275105125E+02  0.20430139315E+02 -0.11337668856E+02  0.40659143481E+02  0.00000000000E+00 0.  1.
         11    1    3    3    0    0  0.11445037566E+02 -0.10226030835E+02 -0.19947130065E+01  0.15477062763E+02  0.51100000000E-03 0. -1.
        -11    1    3    3    0    0  0.23180649767E+02 -0.85493939476E+01  0.34565107955E+01  0.24947587612E+02  0.51100000000E-03 0.  1.
        -12    1    3    3    0    0 -0.13505822079E+01 -0.16547145327E+01  0.98758710669E+01  0.10104206145E+02  0.00000000000E+00 0.  1.
</event>
<event>
 7    1  0.2903212E-011  0.5052886E+02  0.7816164E-02  0.1300439E+00
        -11   -1    0    0    0    0  0.00000000000E+00  0.00000000000E+00  0.45593999997E+02  0.45594000000E+02  0.51100000000E-03 0. -1.
         11   -1    0    0    0    0 -0.00000000000E+00 -0.00000000000E+00 -0.45593999997E+02  0.45594000000E+02  0.51100000000E-03 0.  1.
    9900012    2    1    2    0    0 -0.31884661862E+02  0.47740611682E+01  0.24773825265E+02  0.50528859080E+02  0.29999997659E+02 0.  0.
        -12    1    1    2    0    0  0.31884661862E+02 -0.47740611682E+01 -0.24773825265E+02  0.40659140920E+02  0.00000000000E+00 0.  1.
         11    1    3    3    0    0 -0.12879640041E+02  0.14364061896E+00  0.47881256350E+01  0.13741612263E+02  0.51100000000E-03 0. -1.
        -11    1    3    3    0    0 -0.19270152369E+02  0.21331369774E+01  0.30020165878E+01  0.19618897766E+02  0.51100000000E-03 0.  1.
         12    1    3    3    0    0  0.26513054881E+00  0.24972835718E+01  0.16983683043E+02  0.17168349051E+02  0.00000000000E+00 0. -1.
</event>
<event>
 7    1  0.2903212E-011  0.5052885E+02  0.7816164E-02  0.1300439E+00
        -11   -1    0    0    0    0  0.00000000000E+00  0.00000000000E+00  0.45593999997E+02  0.45594000000E+02  0.51100000000E-03 0. -1.
         11   -1    0    0    0    0 -0.00000000000E+00 -0.00000000000E+00 -0.45593999997E+02  0.45594000000E+02  0.51100000000E-03 0.  1.
    9900012    2    1    2    0    0  0.38253582529E+02  0.67115435264E+01  0.12032652944E+02  0.50528854293E+02  0.29999983108E+02 0.  0.
        -12    1    1    2    0    0 -0.38253582529E+02 -0.67115435264E+01 -0.12032652944E+02  0.40659145707E+02  0.00000000000E+00 0.  1.
         11    1    3    3    0    0  0.47884673243E+01  0.45959922870E+01 -0.72244145845E+01  0.98104398865E+01  0.51100000000E-03 0. -1.
        -11    1    3    3    0    0  0.27794688511E+01 -0.60534160711E+00 -0.18336278956E+01  0.33843872527E+01  0.51100000000E-03 0.  1.
         12    1    3    3    0    0  0.30685646353E+02  0.27208928466E+01  0.21090695425E+02  0.37334027153E+02  0.00000000000E+00 0. -1.
</event>
<event>
 7    1  0.2903212E-011  0.5052888E+02  0.7816164E-02  0.1300439E+00
        -11   -1    0    0    0    0  0.00000000000E+00  0.00000000000E+00  0.45593999997E+02  0.45594000000E+02  0.51100000000E-03 0. -1.
         11   -1    0    0    0    0 -0.00000000000E+00 -0.00000000000E+00 -0.45593999997E+02  0.45594000000E+02  0.51100000000E-03 0.  1.
    9900012    2    1    2    0    0 -0.12190232020E+02 -0.47398805045E+01  0.38497998876E+02  0.50528878743E+02  0.30000057427E+02 0.  0.
        -12    1    1    2    0    0  0.12190232020E+02  0.47398805045E+01 -0.38497998876E+02  0.40659121257E+02  0.00000000000E+00 0.  1.
         11    1    3    3    0    0  0.69003548153E+01 -0.38718608414E+01  0.81645647763E+01  0.11369534784E+02  0.51100000000E-03 0. -1.
        -11    1    3    3    0    0  0.21389364276E+01  0.22380357097E+01  0.57453379127E+01  0.65263129615E+01  0.51100000000E-03 0.  1.
         12    1    3    3    0    0 -0.21229523263E+02 -0.31060553728E+01  0.24588096187E+02  0.32633030998E+02  0.00000000000E+00 0. -1.
</event>
<event>
 7    1  0.2903212E-011  0.5052885E+02  0.7816164E-02  0.1300439E+00
        -11   -1    0    0    0    0  0.00000000000E+00  0.00000000000E+00  0.45593999997E+02  0.45594000000E+02  0.51100000000E-03 0.  1.
         11   -1    0    0    0    0 -0.00000000000E+00 -0.00000000000E+00 -0.45593999997E+02  0.45594000000E+02  0.51100000000E-03 0. -1.
    9900012    2    1    2    0    0 -0.13054054907E+02 -0.14890959676E+02 -0.35510804609E+02  0.50528852523E+02  0.29999977728E+02 0.  0.
        -12    1    1    2    0    0  0.13054054907E+02  0.14890959676E+02  0.35510804609E+02  0.40659147477E+02  0.00000000000E+00 0.  1.
         11    1    3    3    0    0 -0.47926424628E+01 -0.74598090413E+01 -0.84368457437E+01  0.12239221343E+02  0.51100000000E-03 0. -1.
        -11    1    3    3    0    0 -0.12869692846E+02 -0.58436598739E+01 -0.39757520292E+01  0.14682777637E+02  0.51100000000E-03 0.  1.
        -12    1    3    3    0    0  0.46082804014E+01 -0.15874907609E+01 -0.23098206836E+02  0.23606853544E+02  0.00000000000E+00 0.  1.
</event>
<event>
 7    1  0.2903212E-011  0.5052886E+02  0.7816164E-02  0.1300439E+00
        -11   -1    0    0    0    0  0.00000000000E+00  0.00000000000E+00  0.45593999997E+02  0.45594000000E+02  0.51100000000E-03 0.  1.
         11   -1    0    0    0    0 -0.00000000000E+00 -0.00000000000E+00 -0.45593999997E+02  0.45594000000E+02  0.51100000000E-03 0. -1.
    9900012    2    1    2    0    0 -0.36308037660E+02  0.16641386805E+02 -0.76128888059E+01  0.50528862903E+02  0.30000009280E+02 0.  0.
        -12    1    1    2    0    0  0.36308037660E+02 -0.16641386805E+02  0.76128888059E+01  0.40659137097E+02  0.00000000000E+00 0.  1.
         11    1    3    3    0    0 -0.31792468800E+01  0.29267219913E+01  0.48359644602E+01  0.64853577280E+01  0.51100000000E-03 0. -1.
        -11    1    3    3    0    0  0.20960087280E+01  0.57643431794E+01 -0.16197343667E+01  0.63438509249E+01  0.51100000000E-03 0.  1.
         12    1    3    3    0    0 -0.35224799508E+02  0.79503216344E+01 -0.10829118899E+02  0.37699654250E+02  0.00000000000E+00 0. -1.
</event>
<event>
 7    1  0.2903212E-011  0.5052887E+02  0.7816164E-02  0.1300439E+00
        -11   -1    0    0    0    0  0.00000000000E+00  0.00000000000E+00  0.45593999997E+02  0.45594000000E+02  0.51100000000E-03 0. -1.
         11   -1    0    0    0    0 -0.00000000000E+00 -0.00000000000E+00 -0.45593999997E+02  0.45594000000E+02  0.51100000000E-03 0.  1.
    9900012    2    1    2    0    0  0.23187561876E+02 -0.10421247501E+02  0.31731680539E+02  0.50528868491E+02  0.30000026265E+02 0.  0.
        -12    1    1    2    0    0 -0.23187561876E+02  0.10421247501E+02 -0.31731680539E+02  0.40659131509E+02  0.00000000000E+00 0.  1.
         11    1    3    3    0    0 -0.26578391404E+01  0.32769149903E+00  0.26061995900E+01  0.37368124356E+01  0.51100000000E-03 0. -1.
        -11    1    3    3    0    0 -0.30041107522E+01  0.20561681598E+01 -0.28290560724E+00  0.36513757348E+01  0.51100000000E-03 0.  1.
        -12    1    3    3    0    0  0.28849511769E+02 -0.12805107160E+02  0.29408386556E+02  0.43140680321E+02  0.00000000000E+00 0.  1.
</event>
<event>
 7    1  0.2903212E-011  0.5052886E+02  0.7816164E-02  0.1300439E+00
        -11   -1    0    0    0    0  0.00000000000E+00  0.00000000000E+00  0.45593999997E+02  0.45594000000E+02  0.51100000000E-03 0.  1.
         11   -1    0    0    0    0 -0.00000000000E+00 -0.00000000000E+00 -0.45593999997E+02  0.45594000000E+02  0.51100000000E-03 0. -1.
    9900012    2    1    2    0    0  0.15278583896E+02  0.37176134243E+02 -0.61372181610E+01  0.50528861669E+02  0.30000005528E+02 0.  0.
        -12    1    1    2    0    0 -0.15278583896E+02 -0.37176134243E+02  0.61372181610E+01  0.40659138331E+02  0.00000000000E+00 0.  1.
         11    1    3    3    0    0 -0.11931955254E+01 -0.50970553295E+00 -0.68229519580E+01  0.69452277842E+01  0.51100000000E-03 0. -1.
        -11    1    3    3    0    0  0.56686555603E-01  0.99100913953E+01  0.48831976685E+01  0.11048019938E+02  0.51100000000E-03 0.  1.
         12    1    3    3    0    0  0.16415092866E+02  0.27775748380E+02 -0.41974638715E+01  0.32535613946E+02  0.00000000000E+00 0. -1.
</event>
<event>
 7    1  0.2903212E-011  0.5052886E+02  0.7816164E-02  0.1300439E+00
        -11   -1    0    0    0    0  0.00000000000E+00  0.00000000000E+00  0.45593999997E+02  0.45594000000E+02  0.51100000000E-03 0.  1.
         11   -1    0    0    0    0 -0.00000000000E+00 -0.00000000000E+00 -0.45593999997E+02  0.45594000000E+02  0.51100000000E-03 0. -1.
    9900012    2    1    2    0    0 -0.39078564941E+01 -0.34633636354E+02 -0.20938128574E+02  0.50528864033E+02  0.30000012713E+02 0.  0.
        -12    1    1    2    0    0  0.39078564941E+01  0.34633636354E+02  0.20938128574E+02  0.40659135967E+02  0.00000000000E+00 0.  1.
         11    1    3    3    0    0 -0.27826498967E+01 -0.17607355890E+02 -0.42075211593E+00  0.17830848395E+02  0.51100000000E-03 0. -1.
        -11    1    3    3    0    0  0.68291707832E+01 -0.15132684261E+01 -0.20215923089E+01  0.72810981755E+01  0.51100000000E-03 0.  1.
        -12    1    3    3    0    0 -0.79543773806E+01 -0.15513012037E+02 -0.18495784149E+02  0.25416917462E+02  0.00000000000E+00 0.  1.
</event>
<event>
 7    1  0.2903212E-011  0.5052886E+02  0.7816164E-02  0.1300439E+00
        -11   -1    0    0    0    0  0.00000000000E+00  0.00000000000E+00  0.45593999997E+02  0.45594000000E+02  0.51100000000E-03 0.  1.
         11   -1    0    0    0    0 -0.00000000000E+00 -0.00000000000E+00 -0.45593999997E+02  0.45594000000E+02  0.51100000000E-03 0. -1.
    9900012    2    1    2    0    0 -0.17111087400E+01  0.29178452651E+02 -0.28264029224E+02  0.50528864001E+02  0.30000012618E+02 0.  0.
        -12    1    1    2    0    0  0.17111087400E+01 -0.29178452651E+02  0.28264029224E+02  0.40659135999E+02  0.00000000000E+00 0.  1.
         11    1    3    3    0    0  0.50814059076E+01  0.16457733608E+02 -0.67305291632E+01  0.18492639200E+02  0.51100000000E-03 0. -1.
        -11    1    3    3    0    0 -0.22162115512E+00  0.14057721676E+02 -0.63282012796E+01  0.15418002022E+02  0.51100000000E-03 0.  1.
         12    1    3    3    0    0 -0.65708934924E+01 -0.13370026331E+01 -0.15205298781E+02  0.16618222779E+02  0.00000000000E+00 0. -1.
</event>
<event>
 7    1  0.2903212E-011  0.5052884E+02  0.7816164E-02  0.1300439E+00
        -11   -1    0    0    0    0  0.00000000000E+00  0.00000000000E+00  0.45593999997E+02  0.45594000000E+02  0.51100000000E-03 0.  1.
         11   -1    0    0    0    0 -0.00000000000E+00 -0.00000000000E+00 -0.45593999997E+02  0.45594000000E+02  0.51100000000E-03 0. -1.
    9900012    2    1    2    0    0 -0.31462698233E+02 -0.24609956578E+02 -0.75904963515E+01  0.50528843863E+02  0.29999951407E+02 0.  0.
        -12    1    1    2    0    0  0.31462698233E+02  0.24609956578E+02  0.75904963515E+01  0.40659156137E+02  0.00000000000E+00 0.  1.
         11    1    3    3    0    0 -0.53657131082E+01 -0.17544257834E+01 -0.12679869469E+01  0.57859033995E+01  0.51100000000E-03 0. -1.
        -11    1    3    3    0    0 -0.13162342152E+02 -0.11104653141E+02  0.10759306674E+02  0.20305744327E+02  0.51100000000E-03 0.  1.
        -12    1    3    3    0    0 -0.12934642973E+02 -0.11750877653E+02 -0.17081816079E+02  0.24437196136E+02  0.00000000000E+00 0.  1.
</event>
<event>
 7    1  0.2903212E-011  0.5052886E+02  0.7816164E-02  0.1300439E+00
        -11   -1    0    0    0    0  0.00000000000E+00  0.00000000000E+00  0.45593999997E+02  0.45594000000E+02  0.51100000000E-03 0. -1.
         11   -1    0    0    0    0 -0.00000000000E+00 -0.00000000000E+00 -0.45593999997E+02  0.45594000000E+02  0.51100000000E-03 0.  1.
    9900012    2    1    2    0    0  0.36629861354E+02 -0.16547815305E+02 -0.61309641095E+01  0.50528860128E+02  0.30000000846E+02 0.  0.
        -12    1    1    2    0    0 -0.36629861354E+02  0.16547815305E+02  0.61309641095E+01  0.40659139872E+02  0.00000000000E+00 0.  1.
         11    1    3    3    0    0 -0.10159847099E+01 -0.10806034554E+02  0.87624307590E+00  0.10889004082E+02  0.51100000000E-03 0. -1.
        -11    1    3    3    0    0  0.18367565269E+02 -0.45580518534E+01  0.46468316300E+00  0.18930378267E+02  0.51100000000E-03 0.  1.
        -12    1    3    3    0    0  0.19278280795E+02 -0.11837288975E+01 -0.74718903484E+01  0.20709477779E+02  0.00000000000E+00 0.  1.
</event>
<event>
 7    1  0.2903212E-011  0.5052887E+02  0.7816164E-02  0.1300439E+00
        -11   -1    0    0    0    0  0.00000000000E+00  0.00000000000E+00  0.45593999997E+02  0.45594000000E+02  0.51100000000E-03 0.  1.
         11   -1    0    0    0    0 -0.00000000000E+00 -0.00000000000E+00 -0.45593999997E+02  0.45594000000E+02  0.51100000000E-03 0. -1.
    9900012    2    1    2    0    0  0.42452185337E+01  0.23228715119E+02 -0.33099397111E+02  0.50528866025E+02  0.30000018770E+02 0.  0.
        -12    1    1    2    0    0 -0.42452185337E+01 -0.23228715119E+02  0.33099397111E+02  0.40659133975E+02  0.00000000000E+00 0.  1.
         11    1    3    3    0    0 -0.27967072274E+01  0.60734645399E+01 -0.10884850455E+01  0.67744625461E+01  0.51100000000E-03 0.  1.
        -11    1    3    3    0    0 -0.22988972376E+01  0.19475447962E+02 -0.17165890994E+02  0.26062344786E+02  0.51100000000E-03 0. -1.
         12    1    3    3    0    0  0.93408229986E+01 -0.23201973836E+01 -0.14845021072E+02  0.17692058693E+02  0.00000000000E+00 0. -1.
</event>
<event>
 7    1  0.2903212E-011  0.5052886E+02  0.7816164E-02  0.1300439E+00
        -11   -1    0    0    0    0  0.00000000000E+00  0.00000000000E+00  0.45593999997E+02  0.45594000000E+02  0.51100000000E-03 0.  1.
         11   -1    0    0    0    0 -0.00000000000E+00 -0.00000000000E+00 -0.45593999997E+02  0.45594000000E+02  0.51100000000E-03 0. -1.
    9900012    2    1    2    0    0 -0.81121728346E+01 -0.75604663272E+01 -0.39117744364E+02  0.50528856831E+02  0.29999990822E+02 0.  0.
        -12    1    1    2    0    0  0.81121728346E+01  0.75604663272E+01  0.39117744364E+02  0.40659143169E+02  0.00000000000E+00 0.  1.
         11    1    3    3    0    0  0.62697530872E+00  0.97728661029E-01 -0.52104630204E+01  0.52489593327E+01  0.51100000000E-03 0. -1.
        -11    1    3    3    0    0 -0.16366115581E+02 -0.11876570090E+02 -0.28760934190E+02  0.35158128392E+02  0.51100000000E-03 0.  1.
        -12    1    3    3    0    0  0.76269674378E+01  0.42183751022E+01 -0.51463471536E+01  0.10121769105E+02  0.00000000000E+00 0.  1.
</event>
<event>
 7    1  0.2903212E-011  0.5052886E+02  0.7816164E-02  0.1300439E+00
        -11   -1    0    0    0    0  0.00000000000E+00  0.00000000000E+00  0.45593999997E+02  0.45594000000E+02  0.51100000000E-03 0. -1.
         11   -1    0    0    0    0 -0.00000000000E+00 -0.00000000000E+00 -0.45593999997E+02  0.45594000000E+02  0.51100000000E-03 0.  1.
    9900012    2    1    2    0    0  0.34611526011E+02 -0.17853801528E+02  0.11681166804E+02  0.50528860564E+02  0.30000002170E+02 0.  0.
        -12    1    1    2    0    0 -0.34611526011E+02  0.17853801528E+02 -0.11681166804E+02  0.40659139436E+02  0.00000000000E+00 0.  1.
         11    1    3    3    0    0  0.14220888579E+02 -0.20729861837E+00  0.15712941351E+02  0.21193705925E+02  0.51100000000E-03 0. -1.
        -11    1    3    3    0    0 -0.79332411321E+00  0.38818569268E+00  0.68422689307E+00  0.11172367623E+01  0.51100000000E-03 0.  1.
         12    1    3    3    0    0  0.21183961545E+02 -0.18034688602E+02 -0.47160014400E+01  0.28217917877E+02  0.00000000000E+00 0. -1.
</event>
<event>
 7    1  0.2903212E-011  0.5052883E+02  0.7816164E-02  0.1300439E+00
        -11   -1    0    0    0    0  0.00000000000E+00  0.00000000000E+00  0.45593999997E+02  0.45594000000E+02  0.51100000000E-03 0.  1.
         11   -1    0    0    0    0 -0.00000000000E+00 -0.00000000000E+00 -0.45593999997E+02  0.45594000000E+02  0.51100000000E-03 0. -1.
    9900012    2    1    2    0    0 -0.56022393219E+01  0.77738430730E+01 -0.39513922194E+02  0.50528834136E+02  0.29999921841E+02 0.  0.
        -12    1    1    2    0    0  0.56022393219E+01 -0.77738430730E+01  0.39513922194E+02  0.40659165864E+02  0.00000000000E+00 0.  1.
         11    1    3    3    0    0 -0.79912003032E+00  0.52693805513E+01 -0.24893718825E+02  0.25457851469E+02  0.51100000000E-03 0. -1.
        -11    1    3    3    0    0 -0.59719112685E+01  0.71946017682E+01 -0.17211003096E+02  0.19586848819E+02  0.51100000000E-03 0.  1.
        -12    1    3    3    0    0  0.11687919770E+01 -0.46901392465E+01  0.25907997276E+01  0.54841338483E+01  0.00000000000E+00 0.  1.
</event>
<event>
 7    1  0.2903212E-011  0.5052889E+02  0.7816164E-02  0.1300439E+00
        -11   -1    0    0    0    0  0.00000000000E+00  0.00000000000E+00  0.45593999997E+02  0.45594000000E+02  0.51100000000E-03 0. -1.
         11   -1    0    0    0    0 -0.00000000000E+00 -0.00000000000E+00 -0.45593999997E+02  0.45594000000E+02  0.51100000000E-03 0.  1.
    9900012    2    1    2    0    0 -0.86905029718E+00  0.24786260083E+02  0.32218778339E+02  0.50528885217E+02  0.30000077105E+02 0.  0.
        -12    1    1    2    0    0  0.86905029718E+00 -0.24786260083E+02 -0.32218778339E+02  0.40659114783E+02  0.00000000000E+00 0.  1.
         11    1    3    3    0    0  0.30324365405E+00  0.93282077975E+01  0.18599955804E+02  0.20810232426E+02  0.51100000000E-03 0. -1.
        -11    1    3    3    0    0 -0.33910236381E+01  0.13906462960E+02  0.18944604610E+02  0.23744195027E+02  0.51100000000E-03 0.  1.
        -12    1    3    3    0    0  0.22187296869E+01  0.15515893257E+01 -0.53257820758E+01  0.59744577644E+01  0.00000000000E+00 0.  1.
</event>
<event>
 7    1  0.2903212E-011  0.5052886E+02  0.7816164E-02  0.1300439E+00
        -11   -1    0    0    0    0  0.00000000000E+00  0.00000000000E+00  0.45593999997E+02  0.45594000000E+02  0.51100000000E-03 0.  1.
         11   -1    0    0    0    0 -0.00000000000E+00 -0.00000000000E+00 -0.45593999997E+02  0.45594000000E+02  0.51100000000E-03 0. -1.
    9900012    2    1    2    0    0 -0.14616042017E+01  0.11203496387E+02 -0.39057791085E+02  0.50528860036E+02  0.30000000566E+02 0.  0.
        -12    1    1    2    0    0  0.14616042017E+01 -0.11203496387E+02  0.39057791085E+02  0.40659139964E+02  0.00000000000E+00 0.  1.
         11    1    3    3    0    0 -0.94109694579E+00  0.10365799185E+02 -0.68801664900E+01  0.12476864486E+02  0.51100000000E-03 0. -1.
        -11    1    3    3    0    0 -0.25879038858E+01  0.88751711507E+01 -0.71584159163E+01  0.11692255051E+02  0.51100000000E-03 0.  1.
         12    1    3    3    0    0  0.20673966299E+01 -0.80374739483E+01 -0.25019208679E+02  0.26359740500E+02  0.00000000000E+00 0. -1.
</event>
<event>
 7    1  0.2903212E-011  0.5052886E+02  0.7816164E-02  0.1300439E+00
        -11   -1    0    0    0    0  0.00000000000E+00  0.00000000000E+00  0.45593999997E+02  0.45594000000E+02  0.51100000000E-03 0. -1.
         11   -1    0    0    0    0 -0.00000000000E+00 -0.00000000000E+00 -0.45593999997E+02  0.45594000000E+02  0.51100000000E-03 0.  1.
    9900012    2    1    2    0    0 -0.17172529259E+02  0.16104945486E+02  0.33149674140E+02  0.50528856800E+02  0.29999990728E+02 0.  0.
        -12    1    1    2    0    0  0.17172529259E+02 -0.16104945486E+02 -0.33149674140E+02  0.40659143200E+02  0.00000000000E+00 0.  1.
         11    1    3    3    0    0 -0.13287975490E+02 -0.22233755425E+00  0.34906154244E+01  0.13740601257E+02  0.51100000000E-03 0. -1.
        -11    1    3    3    0    0  0.43726597709E+01  0.85516541694E+01  0.87101313233E+01  0.12966006727E+02  0.51100000000E-03 0.  1.
        -12    1    3    3    0    0 -0.82572135399E+01  0.77756288704E+01  0.20948927392E+02  0.23822248816E+02  0.00000000000E+00 0.  1.
</event>
<event>
 7    1  0.2903212E-011  0.5052881E+02  0.7816164E-02  0.1300439E+00
        -11   -1    0    0    0    0  0.00000000000E+00  0.00000000000E+00  0.45593999997E+02  0.45594000000E+02  0.51100000000E-03 0. -1.
         11   -1    0    0    0    0 -0.00000000000E+00 -0.00000000000E+00 -0.45593999997E+02  0.45594000000E+02  0.51100000000E-03 0.  1.
    9900012    2    1    2    0    0  0.41007414890E+01 -0.21061182371E+02  0.34536645799E+02  0.50528814240E+02  0.29999861365E+02 0.  0.
        -12    1    1    2    0    0 -0.41007414890E+01  0.21061182371E+02 -0.34536645799E+02  0.40659185760E+02  0.00000000000E+00 0.  1.
         11    1    3    3    0    0  0.39542125464E+01 -0.20350214790E+02  0.20648526172E+02  0.29259676557E+02  0.51100000000E-03 0. -1.
        -11    1    3    3    0    0 -0.36556543163E+01 -0.60068267876E+00  0.16332676240E+02  0.16747565244E+02  0.51100000000E-03 0.  1.
        -12    1    3    3    0    0  0.38021832588E+01 -0.11028490200E+00 -0.24445566136E+01  0.45215724400E+01  0.00000000000E+00 0.  1.
</event>
<event>
 7    1  0.2903212E-011  0.5052887E+02  0.7816164E-02  0.1300439E+00
        -11   -1    0    0    0    0  0.00000000000E+00  0.00000000000E+00  0.45593999997E+02  0.45594000000E+02  0.51100000000E-03 0.  1.
         11   -1    0    0    0    0 -0.00000000000E+00 -0.00000000000E+00 -0.45593999997E+02  0.45594000000E+02  0.51100000000E-03 0. -1.
    9900012    2    1    2    0    0  0.24154534951E+02 -0.29673996573E+02 -0.13754184254E+02  0.50528865530E+02  0.30000017266E+02 0.  0.
        -12    1    1    2    0    0 -0.24154534951E+02  0.29673996573E+02  0.13754184254E+02  0.40659134470E+02  0.00000000000E+00 0.  1.
         11    1    3    3    0    0  0.19468065869E+02 -0.19098936846E+02 -0.66629474309E+01  0.28074362790E+02  0.51100000000E-03 0. -1.
        -11    1    3    3    0    0  0.10147617306E+02 -0.11002747198E+02 -0.22345220269E+01  0.15133660227E+02  0.51100000000E-03 0.  1.
        -12    1    3    3    0    0 -0.54611482246E+01  0.42768747082E+00 -0.48567147964E+01  0.73208425142E+01  0.00000000000E+00 0.  1.
</event>
<event>
 7    1  0.2903212E-011  0.5052886E+02  0.7816164E-02  0.1300439E+00
        -11   -1    0    0    0    0  0.00000000000E+00  0.00000000000E+00  0.45593999997E+02  0.45594000000E+02  0.51100000000E-03 0.  1.
         11   -1    0    0    0    0 -0.00000000000E+00 -0.00000000000E+00 -0.45593999997E+02  0.45594000000E+02  0.51100000000E-03 0. -1.
    9900012    2    1    2    0    0 -0.26669318414E+02  0.15601289531E+02 -0.26429398656E+02  0.50528857203E+02  0.29999991953E+02 0.  0.
        -12    1    1    2    0    0  0.26669318414E+02 -0.15601289531E+02  0.26429398656E+02  0.40659142797E+02  0.00000000000E+00 0.  1.
         11    1    3    3    0    0 -0.37889659404E+01 -0.36208966597E+01 -0.32026007370E+01  0.61419709588E+01  0.51100000000E-03 0.  1.
        -11    1    3    3    0    0 -0.15014066072E+02  0.14917515787E+02 -0.27295577571E+02  0.34539875687E+02  0.51100000000E-03 0. -1.
         12    1    3    3    0    0 -0.78662864024E+01  0.43046704040E+01  0.40687796524E+01  0.98470105571E+01  0.00000000000E+00 0. -1.
</event>
<event>
 7    1  0.2903212E-011  0.5052887E+02  0.7816164E-02  0.1300439E+00
        -11   -1    0    0    0    0  0.00000000000E+00  0.00000000000E+00  0.45593999997E+02  0.45594000000E+02  0.51100000000E-03 0.  1.
         11   -1    0    0    0    0 -0.00000000000E+00 -0.00000000000E+00 -0.45593999997E+02  0.45594000000E+02  0.51100000000E-03 0. -1.
    9900012    2    1    2    0    0 -0.11417258796E+02  0.15360571945E+02 -0.35872889002E+02  0.50528866534E+02  0.30000020317E+02 0.  0.
        -12    1    1    2    0    0  0.11417258796E+02 -0.15360571945E+02  0.35872889002E+02  0.40659133466E+02  0.00000000000E+00 0.  1.
         11    1    3    3    0    0  0.62210253765E+01  0.13996369425E+01 -0.77448469841E+01  0.10032088286E+02  0.51100000000E-03 0. -1.
        -11    1    3    3    0    0  0.28175078496E+01  0.54694768075E+00 -0.89932821781E+01  0.94401603187E+01  0.51100000000E-03 0.  1.
         12    1    3    3    0    0 -0.20455792022E+02  0.13413987321E+02 -0.19134759840E+02  0.31056617929E+02  0.00000000000E+00 0. -1.
</event>
<event>
 7    1  0.2903212E-011  0.5052888E+02  0.7816164E-02  0.1300439E+00
        -11   -1    0    0    0    0  0.00000000000E+00  0.00000000000E+00  0.45593999997E+02  0.45594000000E+02  0.51100000000E-03 0. -1.
         11   -1    0    0    0    0 -0.00000000000E+00 -0.00000000000E+00 -0.45593999997E+02  0.45594000000E+02  0.51100000000E-03 0.  1.
    9900012    2    1    2    0    0  0.36924601674E+01  0.50324843327E+01  0.40177155667E+02  0.50528880505E+02  0.30000062783E+02 0.  0.
        -12    1    1    2    0    0 -0.36924601674E+01 -0.50324843327E+01 -0.40177155667E+02  0.40659119495E+02  0.00000000000E+00 0.  1.
         11    1    3    3    0    0 -0.61489253794E+00 -0.62337184680E+01  0.18786669319E+02  0.19803441194E+02  0.51100000000E-03 0. -1.
        -11    1    3    3    0    0  0.35122828921E+01 -0.21405908365E+01 -0.13381177580E+01  0.43253693066E+01  0.51100000000E-03 0.  1.
         12    1    3    3    0    0  0.79506981330E+00  0.13406793637E+02  0.22728604105E+02  0.26400070004E+02  0.00000000000E+00 0. -1.
</event>
<event>
 7    1  0.2903212E-011  0.5052886E+02  0.7816164E-02  0.1300439E+00
        -11   -1    0    0    0    0  0.00000000000E+00  0.00000000000E+00  0.45593999997E+02  0.45594000000E+02  0.51100000000E-03 0. -1.
         11   -1    0    0    0    0 -0.00000000000E+00 -0.00000000000E+00 -0.45593999997E+02  0.45594000000E+02  0.51100000000E-03 0.  1.
    9900012    2    1    2    0    0 -0.40130459541E+02 -0.27089537198E+00  0.65298178985E+01  0.50528859710E+02  0.29999999575E+02 0.  0.
        -12    1    1    2    0    0  0.40130459541E+02  0.27089537198E+00 -0.65298178985E+01  0.40659140290E+02  0.00000000000E+00 0.  1.
         11    1    3    3    0    0 -0.93090657017E+01 -0.85407857763E+01  0.72253916693E+01  0.14553694065E+02  0.51100000000E-03 0. -1.
        -11    1    3    3    0    0 -0.78535949363E+01  0.70016033778E+01 -0.63479073812E+01  0.12288097154E+02  0.51100000000E-03 0.  1.
         12    1    3    3    0    0 -0.22967798903E+02  0.12682870265E+01  0.56523336103E+01  0.23687068491E+02  0.00000000000E+00 0. -1.
</event>
<event>
 7    1  0.2903212E-011  0.5052886E+02  0.7816164E-02  0.1300439E+00
        -11   -1    0    0    0    0  0.00000000000E+00  0.00000000000E+00  0.45593999997E+02  0.45594000000E+02  0.51100000000E-03 0.  1.
         11   -1    0    0    0    0 -0.00000000000E+00 -0.00000000000E+00 -0.45593999997E+02  0.45594000000E+02  0.51100000000E-03 0. -1.
    9900012    2    1    2    0    0  0.44302148365E+01 -0.50943853309E+01 -0.40094716389E+02  0.50528857760E+02  0.29999993646E+02 0.  0.
        -12    1    1    2    0    0 -0.44302148365E+01  0.50943853309E+01  0.40094716389E+02  0.40659142240E+02  0.00000000000E+00 0.  1.
         11    1    3    3    0    0  0.38701779673E+01 -0.31555348746E+01 -0.26069048763E+02  0.26543002496E+02  0.51100000000E-03 0. -1.
        -11    1    3    3    0    0  0.86889086989E+01  0.37512225440E+01 -0.78725520687E+01  0.12310397284E+02  0.51100000000E-03 0.  1.
        -12    1    3    3    0    0 -0.81288718297E+01 -0.56900730003E+01 -0.61531155579E+01  0.11675457980E+02  0.00000000000E+00 0.  1.
</event>
<event>
 7    1  0.2903212E-011  0.5052882E+02  0.7816164E-02  0.1300439E+00
        -11   -1    0    0    0    0  0.00000000000E+00  0.00000000000E+00  0.45593999997E+02  0.45594000000E+02  0.51100000000E-03 0.  1.
         11   -1    0    0    0    0 -0.00000000000E+00 -0.00000000000E+00 -0.45593999997E+02  0.45594000000E+02  0.51100000000E-03 0. -1.
    9900012    2    1    2    0    0  0.80836326272E+01  0.12282170748E+02 -0.37907416819E+02  0.50528817954E+02  0.29999872653E+02 0.  0.
        -12    1    1    2    0    0 -0.80836326272E+01 -0.12282170748E+02  0.37907416819E+02  0.40659182046E+02  0.00000000000E+00 0.  1.
         11    1    3    3    0    0  0.44303413998E+01 -0.24462482829E+01  0.43214524537E+00  0.50792524405E+01  0.51100000000E-03 0. -1.
        -11    1    3    3    0    0  0.63742913185E+01  0.51926857467E+01 -0.30109807461E+01  0.87556599061E+01  0.51100000000E-03 0.  1.
         12    1    3    3    0    0 -0.27210000911E+01  0.95357332837E+01 -0.35328581319E+02  0.36693905608E+02  0.00000000000E+00 0. -1.
</event>
<event>
 7    1  0.2903212E-011  0.5052886E+02  0.7816164E-02  0.1300439E+00
        -11   -1    0    0    0    0  0.00000000000E+00  0.00000000000E+00  0.45593999997E+02  0.45594000000E+02  0.51100000000E-03 0.  1.
         11   -1    0    0    0    0 -0.00000000000E+00 -0.00000000000E+00 -0.45593999997E+02  0.45594000000E+02  0.51100000000E-03 0. -1.
    9900012    2    1    2    0    0 -0.31758727675E+01  0.39009947255E+01 -0.40346764058E+02  0.50528864524E+02  0.30000014208E+02 0.  0.
        -12    1    1    2    0    0  0.31758727675E+01 -0.39009947255E+01  0.40346764058E+02  0.40659135476E+02  0.00000000000E+00 0.  1.
         11    1    3    3    0    0  0.51772650901E+01 -0.82241354248E+00 -0.26964244803E+02  0.27469090555E+02  0.51100000000E-03 0. -1.
        -11    1    3    3    0    0 -0.34449882250E+01 -0.15226392363E+00 -0.15457172683E+02  0.15837149863E+02  0.51100000000E-03 0.  1.
        -12    1    3    3    0    0 -0.49081496327E+01  0.48756721916E+01  0.20746534282E+01  0.72226241065E+01  0.00000000000E+00 0.  1.
</event>
<event>
 7    1  0.2903212E-011  0.5052886E+02  0.7816164E-02  0.1300439E+00
        -11   -1    0    0    0    0  0.00000000000E+00  0.00000000000E+00  0.45593999997E+02  0.45594000000E+02  0.51100000000E-03 0. -1.
         11   -1    0    0    0    0 -0.00000000000E+00 -0.00000000000E+00 -0.45593999997E+02  0.45594000000E+02  0.51100000000E-03 0.  1.
    9900012    2    1    2    0    0  0.77060615732E+01 -0.37337038067E+02 -0.14132523725E+02  0.50528855599E+02  0.29999987078E+02 0.  0.
        -12    1    1    2    0    0 -0.77060615732E+01  0.37337038067E+02  0.14132523725E+02  0.40659144401E+02  0.00000000000E+00 0.  1.
         11    1    3    3    0    0 -0.24971670872E+01 -0.14747356375E+01 -0.10409444690E+02  0.10805888565E+02  0.51100000000E-03 0. -1.
        -11    1    3    3    0    0  0.42133682876E+01 -0.13600167298E+01 -0.13302042162E+01  0.46229386055E+01  0.51100000000E-03 0.  1.
         12    1    3    3    0    0  0.59898603729E+01 -0.34502285700E+02 -0.23928748195E+01  0.35100028429E+02  0.00000000000E+00 0. -1.
</event>
<event>
 7    1  0.2903212E-011  0.5052886E+02  0.7816164E-02  0.1300439E+00
        -11   -1    0    0    0    0  0.00000000000E+00  0.00000000000E+00  0.45593999997E+02  0.45594000000E+02  0.51100000000E-03 0. -1.
         11   -1    0    0    0    0 -0.00000000000E+00 -0.00000000000E+00 -0.45593999997E+02  0.45594000000E+02  0.51100000000E-03 0.  1.
    9900012    2    1    2    0    0 -0.18696534388E+02 -0.59383391939E+01  0.35613779895E+02  0.50528860943E+02  0.30000003321E+02 0.  0.
        -12    1    1    2    0    0  0.18696534388E+02  0.59383391939E+01 -0.35613779895E+02  0.40659139057E+02  0.00000000000E+00 0.  1.
         11    1    3    3    0    0 -0.12472015318E+02 -0.16919476297E+01  0.10713409963E+02  0.16528490741E+02  0.51100000000E-03 0. -1.
        -11    1    3    3    0    0 -0.10139548917E+02 -0.65975592407E+01  0.42048735632E+01  0.12806998170E+02  0.51100000000E-03 0.  1.
         12    1    3    3    0    0  0.39150298471E+01  0.23511676766E+01  0.20695496368E+02  0.21193372032E+02  0.00000000000E+00 0. -1.
</event>
<event>
 7    1  0.2903212E-011  0.5052885E+02  0.7816164E-02  0.1300439E+00
        -11   -1    0    0    0    0  0.00000000000E+00  0.00000000000E+00  0.45593999997E+02  0.45594000000E+02  0.51100000000E-03 0. -1.
         11   -1    0    0    0    0 -0.00000000000E+00 -0.00000000000E+00 -0.45593999997E+02  0.45594000000E+02  0.51100000000E-03 0.  1.
    9900012    2    1    2    0    0 -0.32109490328E+02  0.11233166786E+02  0.22270230923E+02  0.50528848625E+02  0.29999965880E+02 0.  0.
        -12    1    1    2    0    0  0.32109490328E+02 -0.11233166786E+02 -0.22270230923E+02  0.40659151375E+02  0.00000000000E+00 0.  1.
         11    1    3    3    0    0 -0.76521057178E+01  0.61480919068E+01  0.25159752000E+01  0.10133305851E+02  0.51100000000E-03 0. -1.
        -11    1    3    3    0    0 -0.60205780285E+01  0.12077502925E+02  0.15940307954E+01  0.13588758999E+02  0.51100000000E-03 0.  1.
        -12    1    3    3    0    0 -0.18436806582E+02 -0.69924280454E+01  0.18160224927E+02  0.26806783774E+02  0.00000000000E+00 0.  1.
</event>
<event>
 7    1  0.2903212E-011  0.5052879E+02  0.7816164E-02  0.1300439E+00
        -11   -1    0    0    0    0  0.00000000000E+00  0.00000000000E+00  0.45593999997E+02  0.45594000000E+02  0.51100000000E-03 0. -1.
         11   -1    0    0    0    0 -0.00000000000E+00 -0.00000000000E+00 -0.45593999997E+02  0.45594000000E+02  0.51100000000E-03 0.  1.
    9900012    2    1    2    0    0 -0.12892030771E+02  0.38560637210E+02  0.20917121148E+00  0.50528794990E+02  0.29999802852E+02 0.  0.
        -12    1    1    2    0    0  0.12892030771E+02 -0.38560637210E+02 -0.20917121148E+00  0.40659205010E+02  0.00000000000E+00 0.  1.
         11    1    3    3    0    0  0.21333987076E+01  0.87587989883E+01  0.68969106194E+01  0.11350565013E+02  0.51100000000E-03 0. -1.
        -11    1    3    3    0    0 -0.10108667930E+02  0.39220803718E+01  0.27667655814E+01  0.11190302668E+02  0.51100000000E-03 0.  1.
         12    1    3    3    0    0 -0.49167615484E+01  0.25879757850E+02 -0.94545049893E+01  0.27987927309E+02  0.00000000000E+00 0. -1.
</event>
<event>
 7    1  0.2903212E-011  0.5052885E+02  0.7816164E-02  0.1300439E+00
        -11   -1    0    0    0    0  0.00000000000E+00  0.00000000000E+00  0.45593999997E+02  0.45594000000E+02  0.51100000000E-03 0. -1.
         11   -1    0    0    0    0 -0.00000000000E+00 -0.00000000000E+00 -0.45593999997E+02  0.45594000000E+02  0.51100000000E-03 0.  1.
    9900012    2    1    2    0    0 -0.14557747731E+02  0.50075859212E+01  0.37631934385E+02  0.50528850706E+02  0.29999972205E+02 0.  0.
        -12    1    1    2    0    0  0.14557747731E+02 -0.50075859212E+01 -0.37631934385E+02  0.40659149294E+02  0.00000000000E+00 0.  1.
         11    1    3    3    0    0 -0.38765840133E+01  0.85923682375E+01  0.11112240975E+02  0.14571842550E+02  0.51100000000E-03 0. -1.
        -11    1    3    3    0    0 -0.73271419807E+01  0.85472287935E+01  0.91572577599E+01  0.14511977798E+02  0.51100000000E-03 0.  1.
        -12    1    3    3    0    0 -0.33540217371E+01 -0.12132011110E+02  0.17362435650E+02  0.21445030358E+02  0.00000000000E+00 0.  1.
</event>
<event>
 7    1  0.2903212E-011  0.5052886E+02  0.7816164E-02  0.1300439E+00
        -11   -1    0    0    0    0  0.00000000000E+00  0.00000000000E+00  0.45593999997E+02  0.45594000000E+02  0.51100000000E-03 0.  1.
         11   -1    0    0    0    0 -0.00000000000E+00 -0.00000000000E+00 -0.45593999997E+02  0.45594000000E+02  0.51100000000E-03 0. -1.
    9900012    2    1    2    0    0  0.34610732443E+02 -0.53036598568E+01 -0.20667230272E+02  0.50528855700E+02  0.29999987385E+02 0.  0.
        -12    1    1    2    0    0 -0.34610732443E+02  0.53036598568E+01  0.20667230272E+02  0.40659144300E+02  0.00000000000E+00 0.  1.
         11    1    3    3    0    0  0.19479083232E+02  0.57563195189E+01 -0.16229116579E+02  0.25999117738E+02  0.51100000000E-03 0. -1.
        -11    1    3    3    0    0  0.17660992860E+02 -0.63470185670E+01 -0.37350103978E+01  0.19134931837E+02  0.51100000000E-03 0.  1.
        -12    1    3    3    0    0 -0.25293436488E+01 -0.47129608086E+01 -0.70310329503E+00  0.53948061245E+01  0.00000000000E+00 0.  1.
</event>
<event>
 7    1  0.2903212E-011  0.5052886E+02  0.7816164E-02  0.1300439E+00
        -11   -1    0    0    0    0  0.00000000000E+00  0.00000000000E+00  0.45593999997E+02  0.45594000000E+02  0.51100000000E-03 0.  1.
         11   -1    0    0    0    0 -0.00000000000E+00 -0.00000000000E+00 -0.45593999997E+02  0.45594000000E+02  0.51100000000E-03 0. -1.
    9900012    2    1    2    0    0 -0.59817476056E+01  0.92597639398E+00 -0.40206053810E+02  0.50528862039E+02  0.30000006655E+02 0.  0.
        -12    1    1    2    0    0  0.59817476056E+01 -0.92597639398E+00  0.40206053810E+02  0.40659137961E+02  0.00000000000E+00 0.  1.
         11    1    3    3    0    0  0.35490712337E+01 -0.71721811654E+01 -0.21463187783E+01  0.82850934726E+01  0.51100000000E-03 0.  1.
        -11    1    3    3    0    0 -0.41671072007E+01 -0.98521093084E+00 -0.21009625872E+01  0.47696401389E+01  0.51100000000E-03 0. -1.
         12    1    3    3    0    0 -0.53637116385E+01  0.90833684903E+01 -0.35958772445E+02  0.37474128428E+02  0.00000000000E+00 0. -1.
</event>
<event>
 7    1  0.2903212E-011  0.5052887E+02  0.7816164E-02  0.1300439E+00
        -11   -1    0    0    0    0  0.00000000000E+00  0.00000000000E+00  0.45593999997E+02  0.45594000000E+02  0.51100000000E-03 0.  1.
         11   -1    0    0    0    0 -0.00000000000E+00 -0.00000000000E+00 -0.45593999997E+02  0.45594000000E+02  0.51100000000E-03 0. -1.
    9900012    2    1    2    0    0  0.25999877120E+02 -0.93341359703E+01 -0.29833630364E+02  0.50528865660E+02  0.30000017661E+02 0.  0.
        -12    1    1    2    0    0 -0.25999877120E+02  0.93341359703E+01  0.29833630364E+02  0.40659134340E+02  0.00000000000E+00 0.  1.
         11    1    3    3    0    0  0.13707533897E+02  0.62119123167E+01 -0.83051475281E+01  0.17188944584E+02  0.51100000000E-03 0. -1.
        -11    1    3    3    0    0  0.67333142021E+01 -0.43735815906E-02 -0.70803946894E+00  0.67704401203E+01  0.51100000000E-03 0.  1.
         12    1    3    3    0    0  0.55590290205E+01 -0.15541674705E+02 -0.20820443367E+02  0.26569480956E+02  0.00000000000E+00 0. -1.
</event>
<event>
 7    1  0.2903212E-011  0.5052888E+02  0.7816164E-02  0.1300439E+00
        -11   -1    0    0    0    0  0.00000000000E+00  0.00000000000E+00  0.45593999997E+02  0.45594000000E+02  0.51100000000E-03 0.  1.
         11   -1    0    0    0    0 -0.00000000000E+00 -0.00000000000E+00 -0.45593999997E+02  0.45594000000E+02  0.51100000000E-03 0. -1.
    9900012    2    1    2    0    0  0.21492967484E+02  0.24516609229E+02 -0.24293057090E+02  0.50528875537E+02  0.30000047681E+02 0.  0.
        -12    1    1    2    0    0 -0.21492967484E+02 -0.24516609229E+02  0.24293057090E+02  0.40659124463E+02  0.00000000000E+00 0.  1.
         11    1    3    3    0    0  0.46038365275E+01  0.12679592390E+02 -0.59335838458E+01  0.14736851477E+02  0.51100000000E-03 0.  1.
        -11    1    3    3    0    0  0.57292854724E+01  0.11220095875E+02  0.18150744473E+01  0.12728305425E+02  0.51100000000E-03 0. -1.
         12    1    3    3    0    0  0.11159845484E+02  0.61692096362E+00 -0.20174547692E+02  0.23063718635E+02  0.00000000000E+00 0. -1.
</event>
<event>
 7    1  0.2903212E-011  0.5052887E+02  0.7816164E-02  0.1300439E+00
        -11   -1    0    0    0    0  0.00000000000E+00  0.00000000000E+00  0.45593999997E+02  0.45594000000E+02  0.51100000000E-03 0.  1.
         11   -1    0    0    0    0 -0.00000000000E+00 -0.00000000000E+00 -0.45593999997E+02  0.45594000000E+02  0.51100000000E-03 0. -1.
    9900012    2    1    2    0    0  0.31845797325E+02 -0.68921795412E+01 -0.24320943540E+02  0.50528865223E+02  0.30000016332E+02 0.  0.
        -12    1    1    2    0    0 -0.31845797325E+02  0.68921795412E+01  0.24320943540E+02  0.40659134777E+02  0.00000000000E+00 0.  1.
         11    1    3    3    0    0  0.36255092590E+01  0.60485999445E+01 -0.14520749412E+02  0.16142553777E+02  0.51100000000E-03 0. -1.
        -11    1    3    3    0    0  0.23575381966E+02 -0.55319654126E+01 -0.72107505095E+01  0.25266503504E+02  0.51100000000E-03 0.  1.
        -12    1    3    3    0    0  0.46449061009E+01 -0.74088140731E+01 -0.25894436181E+01  0.91198079424E+01  0.00000000000E+00 0.  1.
</event>
<event>
 7    1  0.2903212E-011  0.5052886E+02  0.7816164E-02  0.1300439E+00
        -11   -1    0    0    0    0  0.00000000000E+00  0.00000000000E+00  0.45593999997E+02  0.45594000000E+02  0.51100000000E-03 0. -1.
         11   -1    0    0    0    0 -0.00000000000E+00 -0.00000000000E+00 -0.45593999997E+02  0.45594000000E+02  0.51100000000E-03 0.  1.
    9900012    2    1    2    0    0 -0.85742507569E+01 -0.32720993217E+02  0.22560692670E+02  0.50528855557E+02  0.29999986950E+02 0.  0.
        -12    1    1    2    0    0  0.85742507569E+01  0.32720993217E+02 -0.22560692670E+02  0.40659144443E+02  0.00000000000E+00 0.  1.
         11    1    3    3    0    0 -0.81843259710E+01 -0.94678997732E+01  0.19199513370E+02  0.22918237969E+02  0.51100000000E-03 0. -1.
        -11    1    3    3    0    0 -0.16434832002E+01 -0.26060205618E+01  0.60128684507E+01  0.67562539521E+01  0.51100000000E-03 0.  1.
        -12    1    3    3    0    0  0.12535584143E+01 -0.20647072882E+02 -0.26516891508E+01  0.20854363635E+02  0.00000000000E+00 0.  1.
</event>
<event>
 7    1  0.2903212E-011  0.5052886E+02  0.7816164E-02  0.1300439E+00
        -11   -1    0    0    0    0  0.00000000000E+00  0.00000000000E+00  0.45593999997E+02  0.45594000000E+02  0.51100000000E-03 0.  1.
         11   -1    0    0    0    0 -0.00000000000E+00 -0.00000000000E+00 -0.45593999997E+02  0.45594000000E+02  0.51100000000E-03 0. -1.
    9900012    2    1    2    0    0  0.64895050168E+01 -0.28911022428E+02 -0.27842494599E+02  0.50528863281E+02  0.30000010430E+02 0.  0.
        -12    1    1    2    0    0 -0.64895050168E+01  0.28911022428E+02  0.27842494599E+02  0.40659136719E+02  0.00000000000E+00 0.  1.
         11    1    3    3    0    0 -0.67248113985E+01 -0.30709987830E+01 -0.87537742952E+01  0.11457865706E+02  0.51100000000E-03 0.  1.
        -11    1    3    3    0    0 -0.22994196715E+01  0.78919713795E+00  0.59482708258E+00  0.25027949312E+01  0.51100000000E-03 0. -1.
         12    1    3    3    0    0  0.15513736087E+02 -0.26629220783E+02 -0.19683547386E+02  0.36568202644E+02  0.00000000000E+00 0. -1.
</event>
<event>
 7    1  0.2903212E-011  0.5052886E+02  0.7816164E-02  0.1300439E+00
        -11   -1    0    0    0    0  0.00000000000E+00  0.00000000000E+00  0.45593999997E+02  0.45594000000E+02  0.51100000000E-03 0.  1.
         11   -1    0    0    0    0 -0.00000000000E+00 -0.00000000000E+00 -0.45593999997E+02  0.45594000000E+02  0.51100000000E-03 0. -1.
    9900012    2    1    2    0    0  0.10870836640E+02 -0.22628494222E+02 -0.31983461886E+02  0.50528859893E+02  0.30000000132E+02 0.  0.
        -12    1    1    2    0    0 -0.10870836640E+02  0.22628494222E+02  0.31983461886E+02  0.40659140107E+02  0.00000000000E+00 0.  1.
         11    1    3    3    0    0  0.94603627305E+01 -0.72527891929E+00 -0.14381422846E+02  0.17229330104E+02  0.51100000000E-03 0. -1.
        -11    1    3    3    0    0 -0.50865636270E+01 -0.59764295654E+01 -0.13501232804E+02  0.15616469747E+02  0.51100000000E-03 0.  1.
        -12    1    3    3    0    0  0.64970375363E+01 -0.15926785737E+02 -0.41008062361E+01  0.17683060042E+02  0.00000000000E+00 0.  1.
</event>
<event>
 7    1  0.2903212E-011  0.5052885E+02  0.7816164E-02  0.1300439E+00
        -11   -1    0    0    0    0  0.00000000000E+00  0.00000000000E+00  0.45593999997E+02  0.45594000000E+02  0.51100000000E-03 0.  1.
         11   -1    0    0    0    0 -0.00000000000E+00 -0.00000000000E+00 -0.45593999997E+02  0.45594000000E+02  0.51100000000E-03 0. -1.
    9900012    2    1    2    0    0 -0.29908430846E+02 -0.14406531715E+01 -0.27505933372E+02  0.50528854807E+02  0.29999984670E+02 0.  0.
        -12    1    1    2    0    0  0.29908430846E+02  0.14406531715E+01  0.27505933372E+02  0.40659145193E+02  0.00000000000E+00 0.  1.
         11    1    3    3    0    0 -0.22077821218E+01  0.70984423938E+01 -0.77197237486E-01  0.74342549048E+01  0.51100000000E-03 0. -1.
        -11    1    3    3    0    0 -0.10409087659E+02 -0.41189816293E+01 -0.10475307698E+01  0.11243328534E+02  0.51100000000E-03 0.  1.
         12    1    3    3    0    0 -0.17291561065E+02 -0.44201139360E+01 -0.26381205364E+02  0.31851271368E+02  0.00000000000E+00 0. -1.
</event>
<event>
 7    1  0.2903212E-011  0.5052886E+02  0.7816164E-02  0.1300439E+00
        -11   -1    0    0    0    0  0.00000000000E+00  0.00000000000E+00  0.45593999997E+02  0.45594000000E+02  0.51100000000E-03 0.  1.
         11   -1    0    0    0    0 -0.00000000000E+00 -0.00000000000E+00 -0.45593999997E+02  0.45594000000E+02  0.51100000000E-03 0. -1.
    9900012    2    1    2    0    0 -0.11431520916E+02  0.38170934007E+02  0.80911127198E+01  0.50528856152E+02  0.29999988759E+02 0.  0.
        -12    1    1    2    0    0  0.11431520916E+02 -0.38170934007E+02 -0.80911127198E+01  0.40659143848E+02  0.00000000000E+00 0.  1.
         11    1    3    3    0    0 -0.23154267176E+01  0.33337877336E+00 -0.48326914963E+01  0.53691013821E+01  0.51100000000E-03 0. -1.
        -11    1    3    3    0    0 -0.81331041433E+01  0.60963259870E+01 -0.15120861421E+01  0.10276136351E+02  0.51100000000E-03 0.  1.
         12    1    3    3    0    0 -0.98299005509E+00  0.31741229247E+02  0.14435890358E+02  0.34883618419E+02  0.00000000000E+00 0. -1.
</event>
<event>
 7    1  0.2903212E-011  0.5052885E+02  0.7816164E-02  0.1300439E+00
        -11   -1    0    0    0    0  0.00000000000E+00  0.00000000000E+00  0.45593999997E+02  0.45594000000E+02  0.51100000000E-03 0. -1.
         11   -1    0    0    0    0 -0.00000000000E+00 -0.00000000000E+00 -0.45593999997E+02  0.45594000000E+02  0.51100000000E-03 0.  1.
    9900012    2    1    2    0    0  0.29151108688E+02 -0.16658512687E+02  0.22931935445E+02  0.50528845484E+02  0.29999956334E+02 0.  0.
        -12    1    1    2    0    0 -0.29151108688E+02  0.16658512687E+02 -0.22931935445E+02  0.40659154516E+02  0.00000000000E+00 0.  1.
         11    1    3    3    0    0  0.45378191528E+01  0.55465249758E+01  0.91946905172E-01  0.71668819207E+01  0.51100000000E-03 0. -1.
        -11    1    3    3    0    0  0.46987860233E+01 -0.91214827452E+01  0.15200415929E+02  0.18339375187E+02  0.51100000000E-03 0.  1.
         12    1    3    3    0    0  0.19914503512E+02 -0.13083554918E+02  0.76395726108E+01  0.25022588377E+02  0.00000000000E+00 0. -1.
</event>
<event>
 7    1  0.2903212E-011  0.5052885E+02  0.7816164E-02  0.1300439E+00
        -11   -1    0    0    0    0  0.00000000000E+00  0.00000000000E+00  0.45593999997E+02  0.45594000000E+02  0.51100000000E-03 0.  1.
         11   -1    0    0    0    0 -0.00000000000E+00 -0.00000000000E+00 -0.45593999997E+02  0.45594000000E+02  0.51100000000E-03 0. -1.
    9900012    2    1    2    0    0 -0.16528628905E+02 -0.32069582585E+02  0.18748664190E+02  0.50528854540E+02  0.29999983859E+02 0.  0.
        -12    1    1    2    0    0  0.16528628905E+02  0.32069582585E+02 -0.18748664190E+02  0.40659145460E+02  0.00000000000E+00 0.  1.
         11    1    3    3    0    0 -0.49507320651E+01  0.82075083416E+00  0.20446147250E+01  0.54188402400E+01  0.51100000000E-03 0. -1.
        -11    1    3    3    0    0 -0.57387934869E+01  0.16013396910E+01  0.61673234986E+01  0.85751920613E+01  0.51100000000E-03 0.  1.
         12    1    3    3    0    0 -0.58391033527E+01 -0.34491673110E+02  0.10536725966E+02  0.36534822238E+02  0.00000000000E+00 0. -1.
</event>
<event>
 7    1  0.2903212E-011  0.5052885E+02  0.7816164E-02  0.1300439E+00
        -11   -1    0    0    0    0  0.00000000000E+00  0.00000000000E+00  0.45593999997E+02  0.45594000000E+02  0.51100000000E-03 0.  1.
         11   -1    0    0    0    0 -0.00000000000E+00 -0.00000000000E+00 -0.45593999997E+02  0.45594000000E+02  0.51100000000E-03 0. -1.
    9900012    2    1    2    0    0  0.10813320734E+02  0.25571800975E+01 -0.39111370785E+02  0.50528850967E+02  0.29999973000E+02 0.  0.
        -12    1    1    2    0    0 -0.10813320734E+02 -0.25571800975E+01  0.39111370785E+02  0.40659149033E+02  0.00000000000E+00 0.  1.
         11    1    3    3    0    0  0.10323711045E-01 -0.75045493766E+01 -0.12895984778E+02  0.14920616327E+02  0.51100000000E-03 0. -1.
        -11    1    3    3    0    0  0.53372545484E+01  0.61234739494E+01 -0.27565557987E+02  0.28737487829E+02  0.51100000000E-03 0.  1.
        -12    1    3    3    0    0  0.54657424746E+01  0.39382555247E+01  0.13501719791E+01  0.68707468116E+01  0.00000000000E+00 0.  1.
</event>
<event>
 7    1  0.2903212E-011  0.5052884E+02  0.7816164E-02  0.1300439E+00
        -11   -1    0    0    0    0  0.00000000000E+00  0.00000000000E+00  0.45593999997E+02  0.45594000000E+02  0.51100000000E-03 0.  1.
         11   -1    0    0    0    0 -0.00000000000E+00 -0.00000000000E+00 -0.45593999997E+02  0.45594000000E+02  0.51100000000E-03 0. -1.
    9900012    2    1    2    0    0  0.23136439585E+02 -0.33429529894E+02 -0.58213397659E+00  0.50528841308E+02  0.29999943639E+02 0.  0.
        -12    1    1    2    0    0 -0.23136439585E+02  0.33429529894E+02  0.58213397659E+00  0.40659158692E+02  0.00000000000E+00 0.  1.
         11    1    3    3    0    0  0.85883770783E+01 -0.15925347393E+01 -0.41564216300E+01  0.96732739423E+01  0.51100000000E-03 0. -1.
        -11    1    3    3    0    0  0.34790425329E+01 -0.52662649290E+00 -0.54088680388E+01  0.64526681405E+01  0.51100000000E-03 0.  1.
        -12    1    3    3    0    0  0.11069019974E+02 -0.31310368662E+02  0.89831556922E+01  0.34402899225E+02  0.00000000000E+00 0.  1.
</event>
<event>
 7    1  0.2903212E-011  0.5052884E+02  0.7816164E-02  0.1300439E+00
        -11   -1    0    0    0    0  0.00000000000E+00  0.00000000000E+00  0.45593999997E+02  0.45594000000E+02  0.51100000000E-03 0.  1.
         11   -1    0    0    0    0 -0.00000000000E+00 -0.00000000000E+00 -0.45593999997E+02  0.45594000000E+02  0.51100000000E-03 0. -1.
    9900012    2    1    2    0    0 -0.27688766147E+02  0.11453888696E+01 -0.29752103333E+02  0.50528839419E+02  0.29999937898E+02 0.  0.
        -12    1    1    2    0    0  0.27688766147E+02 -0.11453888696E+01  0.29752103333E+02  0.40659160581E+02  0.00000000000E+00 0.  1.
         11    1    3    3    0    0 -0.13042216246E+02  0.76944674783E+01 -0.20245836639E+02  0.25282368082E+02  0.51100000000E-03 0. -1.
        -11    1    3    3    0    0 -0.46155590199E+00  0.29778277003E+01 -0.74494205626E+01  0.80358172356E+01  0.51100000000E-03 0.  1.
         12    1    3    3    0    0 -0.14184993999E+02 -0.95269063090E+01 -0.20568461312E+01  0.17210654101E+02  0.00000000000E+00 0. -1.
</event>
<event>
 7    1  0.2903212E-011  0.5052886E+02  0.7816164E-02  0.1300439E+00
        -11   -1    0    0    0    0  0.00000000000E+00  0.00000000000E+00  0.45593999997E+02  0.45594000000E+02  0.51100000000E-03 0. -1.
         11   -1    0    0    0    0 -0.00000000000E+00 -0.00000000000E+00 -0.45593999997E+02  0.45594000000E+02  0.51100000000E-03 0.  1.
    9900012    2    1    2    0    0  0.18028509199E+02 -0.59991017140E+01  0.35946481948E+02  0.50528856751E+02  0.29999990580E+02 0.  0.
        -12    1    1    2    0    0 -0.18028509199E+02  0.59991017140E+01 -0.35946481948E+02  0.40659143249E+02  0.00000000000E+00 0.  1.
         11    1    3    3    0    0  0.14918310804E+02 -0.26484005441E+00  0.18661949499E+02  0.23893398604E+02  0.51100000000E-03 0. -1.
        -11    1    3    3    0    0  0.39502918890E+01  0.15657480233E+00  0.19788570408E+02  0.20179614484E+02  0.51100000000E-03 0.  1.
        -12    1    3    3    0    0 -0.84009349363E+00 -0.58908364619E+01 -0.25040379587E+01  0.64558436627E+01  0.00000000000E+00 0.  1.
</event>
<event>
 7    1  0.2903212E-011  0.5052885E+02  0.7816164E-02  0.1300439E+00
        -11   -1    0    0    0    0  0.00000000000E+00  0.00000000000E+00  0.45593999997E+02  0.45594000000E+02  0.51100000000E-03 0. -1.
         11   -1    0    0    0    0 -0.00000000000E+00 -0.00000000000E+00 -0.45593999997E+02  0.45594000000E+02  0.51100000000E-03 0.  1.
    9900012    2    1    2    0    0  0.27793166729E+01  0.22554411686E+02  0.33715576480E+02  0.50528853611E+02  0.29999981037E+02 0.  0.
        -12    1    1    2    0    0 -0.27793166729E+01 -0.22554411686E+02 -0.33715576480E+02  0.40659146389E+02  0.00000000000E+00 0.  1.
         11    1    3    3    0    0 -0.35888435838E+00  0.15468702719E+02  0.90837489798E+01  0.17942242267E+02  0.51100000000E-03 0. -1.
        -11    1    3    3    0    0  0.51467961231E+00  0.48664469016E+01 -0.23206537549E+01  0.54159611022E+01  0.51100000000E-03 0.  1.
        -12    1    3    3    0    0  0.26235214190E+01  0.22192620659E+01  0.26952481255E+02  0.27170650242E+02  0.00000000000E+00 0.  1.
</event>
<event>
 7    1  0.2903212E-011  0.5052887E+02  0.7816164E-02  0.1300439E+00
        -11   -1    0    0    0    0  0.00000000000E+00  0.00000000000E+00  0.45593999997E+02  0.45594000000E+02  0.51100000000E-03 0. -1.
         11   -1    0    0    0    0 -0.00000000000E+00 -0.00000000000E+00 -0.45593999997E+02  0.45594000000E+02  0.51100000000E-03 0.  1.
    9900012    2    1    2    0    0 -0.40449685611E+02  0.23416283408E+01  0.33918757732E+01  0.50528866825E+02  0.30000021201E+02 0.  0.
        -12    1    1    2    0    0  0.40449685611E+02 -0.23416283408E+01 -0.33918757732E+01  0.40659133175E+02  0.00000000000E+00 0.  1.
         11    1    3    3    0    0 -0.15721504316E+02  0.31369710041E+01  0.11224612469E+02  0.19570340068E+02  0.51100000000E-03 0. -1.
        -11    1    3    3    0    0 -0.15403600137E+02 -0.83085224132E+01 -0.19289370268E+01  0.17607476826E+02  0.51100000000E-03 0.  1.
        -12    1    3    3    0    0 -0.93245811578E+01  0.75131797499E+01 -0.59037996689E+01  0.13351049931E+02  0.00000000000E+00 0.  1.
</event>
<event>
 7    1  0.2903212E-011  0.5052886E+02  0.7816164E-02  0.1300439E+00
        -11   -1    0    0    0    0  0.00000000000E+00  0.00000000000E+00  0.45593999997E+02  0.45594000000E+02  0.51100000000E-03 0.  1.
         11   -1    0    0    0    0 -0.00000000000E+00 -0.00000000000E+00 -0.45593999997E+02  0.45594000000E+02  0.51100000000E-03 0. -1.
    9900012    2    1    2    0    0 -0.11676698783E+02 -0.31550757778E+02 -0.22833528986E+02  0.50528860108E+02  0.30000000783E+02 0.  0.
        -12    1    1    2    0    0  0.11676698783E+02  0.31550757778E+02  0.22833528986E+02  0.40659139892E+02  0.00000000000E+00 0.  1.
         11    1    3    3    0    0  0.32828305733E+01 -0.84044775250E+01  0.14282116160E+01  0.91352070432E+01  0.51100000000E-03 0. -1.
        -11    1    3    3    0    0  0.20195596990E+01 -0.36828542619E+01  0.19179582835E+01  0.46174236464E+01  0.51100000000E-03 0.  1.
         12    1    3    3    0    0 -0.16979089056E+02 -0.19463425991E+02 -0.26179698885E+02  0.36776229418E+02  0.00000000000E+00 0. -1.
</event>
<event>
 7    1  0.2903212E-011  0.5052886E+02  0.7816164E-02  0.1300439E+00
        -11   -1    0    0    0    0  0.00000000000E+00  0.00000000000E+00  0.45593999997E+02  0.45594000000E+02  0.51100000000E-03 0. -1.
         11   -1    0    0    0    0 -0.00000000000E+00 -0.00000000000E+00 -0.45593999997E+02  0.45594000000E+02  0.51100000000E-03 0.  1.
    9900012    2    1    2    0    0 -0.10839008912E+02 -0.36676005713E+02  0.13804059665E+02  0.50528861144E+02  0.30000003935E+02 0.  0.
        -12    1    1    2    0    0  0.10839008912E+02  0.36676005713E+02 -0.13804059665E+02  0.40659138856E+02  0.00000000000E+00 0.  1.
         11    1    3    3    0    0  0.30141455218E+01  0.36905430883E+00  0.10074610432E+02  0.10522312005E+02  0.51100000000E-03 0. -1.
        -11    1    3    3    0    0 -0.56683209820E+01 -0.11776229078E+02 -0.65477413624E+00  0.13085800070E+02  0.51100000000E-03 0.  1.
        -12    1    3    3    0    0 -0.81848334514E+01 -0.25268830944E+02  0.43842233689E+01  0.26920749070E+02  0.00000000000E+00 0.  1.
</event>
<event>
 7    1  0.2903212E-011  0.5052890E+02  0.7816164E-02  0.1300439E+00
        -11   -1    0    0    0    0  0.00000000000E+00  0.00000000000E+00  0.45593999997E+02  0.45594000000E+02  0.51100000000E-03 0. -1.
         11   -1    0    0    0    0 -0.00000000000E+00 -0.00000000000E+00 -0.45593999997E+02  0.45594000000E+02  0.51100000000E-03 0.  1.
    9900012    2    1    2    0    0 -0.23852239899E+02  0.30056491306E+02 -0.13447695661E+02  0.50528898480E+02  0.30000117420E+02 0.  0.
        -12    1    1    2    0    0  0.23852239899E+02 -0.30056491306E+02  0.13447695661E+02  0.40659101520E+02  0.00000000000E+00 0.  1.
         11    1    3    3    0    0  0.89416837553E+00  0.15509599369E+01 -0.16021194795E+01  0.24024572623E+01  0.51100000000E-03 0. -1.
        -11    1    3    3    0    0 -0.11306625206E+02 -0.35245092108E+01 -0.41452245989E+01  0.12547702019E+02  0.51100000000E-03 0.  1.
         12    1    3    3    0    0 -0.13439783069E+02  0.32030040580E+02 -0.77003515827E+01  0.35578739199E+02  0.00000000000E+00 0. -1.
</event>
<event>
 7    1  0.2903212E-011  0.5052886E+02  0.7816164E-02  0.1300439E+00
        -11   -1    0    0    0    0  0.00000000000E+00  0.00000000000E+00  0.45593999997E+02  0.45594000000E+02  0.51100000000E-03 0. -1.
         11   -1    0    0    0    0 -0.00000000000E+00 -0.00000000000E+00 -0.45593999997E+02  0.45594000000E+02  0.51100000000E-03 0.  1.
    9900012    2    1    2    0    0 -0.20744311000E+02  0.31552619067E+02  0.15075515527E+02  0.50528863545E+02  0.30000011233E+02 0.  0.
        -12    1    1    2    0    0  0.20744311000E+02 -0.31552619067E+02 -0.15075515527E+02  0.40659136455E+02  0.00000000000E+00 0.  1.
         11    1    3    3    0    0 -0.10826813981E+02  0.21292092686E+01  0.13796135582E+01  0.11120106426E+02  0.51100000000E-03 0. -1.
        -11    1    3    3    0    0 -0.28344761147E+01 -0.35285468787E+00  0.77096066275E+01  0.82217270623E+01  0.51100000000E-03 0.  1.
        -12    1    3    3    0    0 -0.70830209034E+01  0.29776264486E+02  0.59862953414E+01  0.31187030057E+02  0.00000000000E+00 0.  1.
</event>
<event>
 7    1  0.2903212E-011  0.5052886E+02  0.7816164E-02  0.1300439E+00
        -11   -1    0    0    0    0  0.00000000000E+00  0.00000000000E+00  0.45593999997E+02  0.45594000000E+02  0.51100000000E-03 0.  1.
         11   -1    0    0    0    0 -0.00000000000E+00 -0.00000000000E+00 -0.45593999997E+02  0.45594000000E+02  0.51100000000E-03 0. -1.
    9900012    2    1    2    0    0  0.32531990221E+02  0.16437593030E+02 -0.18017788217E+02  0.50528861488E+02  0.30000004977E+02 0.  0.
        -12    1    1    2    0    0 -0.32531990221E+02 -0.16437593030E+02  0.18017788217E+02  0.40659138512E+02  0.00000000000E+00 0.  1.
         11    1    3    3    0    0  0.82851170364E+01  0.13528033677E+01 -0.97238919988E+01  0.12846295852E+02  0.51100000000E-03 0. -1.
        -11    1    3    3    0    0  0.74898540181E+01 -0.31224094294E+01  0.50614818818E+01  0.95637834019E+01  0.51100000000E-03 0.  1.
        -12    1    3    3    0    0  0.16757019166E+02  0.18207199091E+02 -0.13355378100E+02  0.28118782233E+02  0.00000000000E+00 0.  1.
</event>
<event>
 7    1  0.2903212E-011  0.5052887E+02  0.7816164E-02  0.1300439E+00
        -11   -1    0    0    0    0  0.00000000000E+00  0.00000000000E+00  0.45593999997E+02  0.45594000000E+02  0.51100000000E-03 0. -1.
         11   -1    0    0    0    0 -0.00000000000E+00 -0.00000000000E+00 -0.45593999997E+02  0.45594000000E+02  0.51100000000E-03 0.  1.
    9900012    2    1    2    0    0  0.68947151605E+01 -0.38735150831E+02  0.10257486968E+02  0.50528867619E+02  0.30000023616E+02 0.  0.
        -12    1    1    2    0    0 -0.68947151605E+01  0.38735150831E+02 -0.10257486968E+02  0.40659132381E+02  0.00000000000E+00 0.  1.
         11    1    3    3    0    0 -0.55449727997E+00  0.79452471950E+00 -0.10794320144E+01  0.14504862971E+01  0.51100000000E-03 0. -1.
        -11    1    3    3    0    0 -0.45083975131E+01 -0.57659860833E+01 -0.58309686002E+01  0.93580146787E+01  0.51100000000E-03 0.  1.
         12    1    3    3    0    0  0.11957609954E+02 -0.33763689467E+02  0.17167887583E+02  0.39720366644E+02  0.00000000000E+00 0. -1.
</event>
<event>
 7    1  0.2903212E-011  0.5052886E+02  0.7816164E-02  0.1300439E+00
        -11   -1    0    0    0    0  0.00000000000E+00  0.00000000000E+00  0.45593999997E+02  0.45594000000E+02  0.51100000000E-03 0.  1.
         11   -1    0    0    0    0 -0.00000000000E+00 -0.00000000000E+00 -0.45593999997E+02  0.45594000000E+02  0.51100000000E-03 0. -1.
    9900012    2    1    2    0    0 -0.10036130312E+02  0.72206329110E+01 -0.38733758336E+02  0.50528862207E+02  0.30000007164E+02 0.  0.
        -12    1    1    2    0    0  0.10036130312E+02 -0.72206329110E+01  0.38733758336E+02  0.40659137793E+02  0.00000000000E+00 0.  1.
         11    1    3    3    0    0 -0.22811881265E+00  0.33264545914E+01 -0.92963492005E+01  0.98762061066E+01  0.51100000000E-03 0. -1.
        -11    1    3    3    0    0 -0.13958915897E+02  0.63164634039E+01 -0.31799090593E+02  0.35297750718E+02  0.51100000000E-03 0.  1.
        -12    1    3    3    0    0  0.41509043979E+01 -0.24222850843E+01  0.23616814575E+01  0.53549053826E+01  0.00000000000E+00 0.  1.
</event>
<event>
 7    1  0.2903212E-011  0.5052886E+02  0.7816164E-02  0.1300439E+00
        -11   -1    0    0    0    0  0.00000000000E+00  0.00000000000E+00  0.45593999997E+02  0.45594000000E+02  0.51100000000E-03 0.  1.
         11   -1    0    0    0    0 -0.00000000000E+00 -0.00000000000E+00 -0.45593999997E+02  0.45594000000E+02  0.51100000000E-03 0. -1.
    9900012    2    1    2    0    0  0.10012646692E+02 -0.12640444490E+02 -0.37324681305E+02  0.50528858775E+02  0.29999996731E+02 0.  0.
        -12    1    1    2    0    0 -0.10012646692E+02  0.12640444490E+02  0.37324681305E+02  0.40659141225E+02  0.00000000000E+00 0.  1.
         11    1    3    3    0    0 -0.38432407962E+01 -0.15041651793E+02 -0.17725214313E+02  0.23562788697E+02  0.51100000000E-03 0. -1.
        -11    1    3    3    0    0  0.11569446111E+02 -0.65646611545E+00 -0.20012918164E+02  0.23125741604E+02  0.51100000000E-03 0.  1.
        -12    1    3    3    0    0  0.22864413775E+01  0.30576734187E+01  0.41345117225E+00  0.38403284729E+01  0.00000000000E+00 0.  1.
</event>
<event>
 7    1  0.2903212E-011  0.5052886E+02  0.7816164E-02  0.1300439E+00
        -11   -1    0    0    0    0  0.00000000000E+00  0.00000000000E+00  0.45593999997E+02  0.45594000000E+02  0.51100000000E-03 0.  1.
         11   -1    0    0    0    0 -0.00000000000E+00 -0.00000000000E+00 -0.45593999997E+02  0.45594000000E+02  0.51100000000E-03 0. -1.
    9900012    2    1    2    0    0  0.16415655376E+02 -0.31038000347E+02 -0.20502060692E+02  0.50528859582E+02  0.29999999184E+02 0.  0.
        -12    1    1    2    0    0 -0.16415655376E+02  0.31038000347E+02  0.20502060692E+02  0.40659140418E+02  0.00000000000E+00 0.  1.
         11    1    3    3    0    0  0.95716301405E-01 -0.16428727008E+02 -0.17042488587E+02  0.23671895788E+02  0.51100000000E-03 0. -1.
        -11    1    3    3    0    0  0.14654888659E+02 -0.17543868464E+02 -0.45564299216E+01  0.23309099858E+02  0.51100000000E-03 0.  1.
        -12    1    3    3    0    0  0.16650504149E+01  0.29345951255E+01  0.10968578163E+01  0.35478639354E+01  0.00000000000E+00 0.  1.
</event>
<event>
 7    1  0.2903212E-011  0.5052881E+02  0.7816164E-02  0.1300439E+00
        -11   -1    0    0    0    0  0.00000000000E+00  0.00000000000E+00  0.45593999997E+02  0.45594000000E+02  0.51100000000E-03 0.  1.
         11   -1    0    0    0    0 -0.00000000000E+00 -0.00000000000E+00 -0.45593999997E+02  0.45594000000E+02  0.51100000000E-03 0. -1.
    9900012    2    1    2    0    0  0.39048390031E+00  0.40632225940E+02 -0.14280767514E+01  0.50528810808E+02  0.29999850932E+02 0.  0.
        -12    1    1    2    0    0 -0.39048390031E+00 -0.40632225940E+02  0.14280767514E+01  0.40659189192E+02  0.00000000000E+00 0.  1.
         11    1    3    3    0    0 -0.15186634861E+00  0.24970995995E+02 -0.24444609332E+01  0.25090816924E+02  0.51100000000E-03 0. -1.
        -11    1    3    3    0    0 -0.81585086763E+01  0.13584674455E+02  0.33431737501E+01  0.16195105892E+02  0.51100000000E-03 0.  1.
        -12    1    3    3    0    0  0.87008589253E+01  0.20765554898E+01 -0.23267895683E+01  0.92428879921E+01  0.00000000000E+00 0.  1.
</event>
<event>
 7    1  0.2903212E-011  0.5052886E+02  0.7816164E-02  0.1300439E+00
        -11   -1    0    0    0    0  0.00000000000E+00  0.00000000000E+00  0.45593999997E+02  0.45594000000E+02  0.51100000000E-03 0.  1.
         11   -1    0    0    0    0 -0.00000000000E+00 -0.00000000000E+00 -0.45593999997E+02  0.45594000000E+02  0.51100000000E-03 0. -1.
    9900012    2    1    2    0    0 -0.17045472672E+02  0.29805853999E+02 -0.21776794811E+02  0.50528857566E+02  0.29999993057E+02 0.  0.
        -12    1    1    2    0    0  0.17045472672E+02 -0.29805853999E+02  0.21776794811E+02  0.40659142434E+02  0.00000000000E+00 0.  1.
         11    1    3    3    0    0 -0.23926344081E+00  0.15515132123E+02 -0.13749318229E+02  0.20732108523E+02  0.51100000000E-03 0. -1.
        -11    1    3    3    0    0 -0.23785453259E+00  0.11337329806E+02 -0.47365214115E+00  0.11349712266E+02  0.51100000000E-03 0.  1.
         12    1    3    3    0    0 -0.16568354699E+02  0.29533920695E+01 -0.75538244413E+01  0.18447036776E+02  0.00000000000E+00 0. -1.
</event>
<event>
 7    1  0.2903212E-011  0.5052886E+02  0.7816164E-02  0.1300439E+00
        -11   -1    0    0    0    0  0.00000000000E+00  0.00000000000E+00  0.45593999997E+02  0.45594000000E+02  0.51100000000E-03 0. -1.
         11   -1    0    0    0    0 -0.00000000000E+00 -0.00000000000E+00 -0.45593999997E+02  0.45594000000E+02  0.51100000000E-03 0.  1.
    9900012    2    1    2    0    0 -0.31971798430E+02  0.17728069159E+02  0.17795654730E+02  0.50528860090E+02  0.30000000729E+02 0.  0.
        -12    1    1    2    0    0  0.31971798430E+02 -0.17728069159E+02 -0.17795654730E+02  0.40659139910E+02  0.00000000000E+00 0.  1.
         11    1    3    3    0    0 -0.14850801207E+02  0.71315664219E+01 -0.32016421924E+01  0.16782611511E+02  0.51100000000E-03 0. -1.
        -11    1    3    3    0    0 -0.60682120988E+01 -0.39741602161E+01  0.10173957737E+02  0.12495061576E+02  0.51100000000E-03 0.  1.
         12    1    3    3    0    0 -0.11052785124E+02  0.14570662954E+02  0.10823339186E+02  0.21251187003E+02  0.00000000000E+00 0. -1.
</event>
<event>
 7    1  0.2903212E-011  0.5052884E+02  0.7816164E-02  0.1300439E+00
        -11   -1    0    0    0    0  0.00000000000E+00  0.00000000000E+00  0.45593999997E+02  0.45594000000E+02  0.51100000000E-03 0.  1.
         11   -1    0    0    0    0 -0.00000000000E+00 -0.00000000000E+00 -0.45593999997E+02  0.45594000000E+02  0.51100000000E-03 0. -1.
    9900012    2    1    2    0    0  0.28540145940E+02  0.41102602819E+00 -0.28956142722E+02  0.50528842679E+02  0.29999947807E+02 0.  0.
        -12    1    1    2    0    0 -0.28540145940E+02 -0.41102602819E+00  0.28956142722E+02  0.40659157321E+02  0.00000000000E+00 0.  1.
         11    1    3    3    0    0  0.40593197756E+01  0.32405365525E+01 -0.11557756740E+02  0.12671262578E+02  0.51100000000E-03 0. -1.
        -11    1    3    3    0    0  0.73234459514E+00  0.47917145869E+00 -0.13543592556E+02  0.13571839724E+02  0.51100000000E-03 0.  1.
        -12    1    3    3    0    0  0.23748481570E+02 -0.33086819830E+01 -0.38547934261E+01  0.24285740378E+02  0.00000000000E+00 0.  1.
</event>
<event>
 7    1  0.2903212E-011  0.5052885E+02  0.7816164E-02  0.1300439E+00
        -11   -1    0    0    0    0  0.00000000000E+00  0.00000000000E+00  0.45593999997E+02  0.45594000000E+02  0.51100000000E-03 0. -1.
         11   -1    0    0    0    0 -0.00000000000E+00 -0.00000000000E+00 -0.45593999997E+02  0.45594000000E+02  0.51100000000E-03 0.  1.
    9900012    2    1    2    0    0 -0.23473427917E+02 -0.17448821805E+01  0.33152978228E+02  0.50528851000E+02  0.29999973100E+02 0.  0.
        -12    1    1    2    0    0  0.23473427917E+02  0.17448821805E+01 -0.33152978228E+02  0.40659149000E+02  0.00000000000E+00 0.  1.
         11    1    3    3    0    0 -0.98815155272E+01 -0.10761660935E+02  0.13727206341E+02  0.20047291323E+02  0.51100000000E-03 0. -1.
        -11    1    3    3    0    0 -0.45854486205E+01 -0.10326402043E+01 -0.20419745266E+01  0.51246799969E+01  0.51100000000E-03 0.  1.
         12    1    3    3    0    0 -0.90064637697E+01  0.10049418959E+02  0.21467746413E+02  0.25356879680E+02  0.00000000000E+00 0. -1.
</event>
<event>
 7    1  0.3190848E-011  0.5052886E+02  0.7816164E-02  0.1300439E+00
        -11   -1    0    0    0    0  0.00000000000E+00  0.00000000000E+00  0.45593999997E+02  0.45594000000E+02  0.51100000000E-03 0. -1.
         11   -1    0    0    0    0 -0.00000000000E+00 -0.00000000000E+00 -0.45593999997E+02  0.45594000000E+02  0.51100000000E-03 0.  1.
    9900012    2    1    2    0    0 -0.16764401011E+02  0.36914376052E+02  0.30740226103E+01  0.50528856925E+02  0.29999991110E+02 0.  0.
        -12    1    1    2    0    0  0.16764401011E+02 -0.36914376052E+02 -0.30740226103E+01  0.40659143075E+02  0.00000000000E+00 0.  1.
         11    1    3    3    0    0 -0.46895628069E+00  0.87748906193E+00  0.40784518639E+01  0.41980563258E+01  0.51100000000E-03 0. -1.
        -11    1    3    3    0    0 -0.24794055207E+01 -0.12761214441E+01 -0.56214534158E+01  0.62750837797E+01  0.51100000000E-03 0.  1.
         12    1    3    3    0    0 -0.13816039209E+02  0.37313008434E+02  0.46170241622E+01  0.40055716820E+02  0.00000000000E+00 0. -1.
</event>
<event>
 7    1  0.2903212E-011  0.5052885E+02  0.7816164E-02  0.1300439E+00
        -11   -1    0    0    0    0  0.00000000000E+00  0.00000000000E+00  0.45593999997E+02  0.45594000000E+02  0.51100000000E-03 0. -1.
         11   -1    0    0    0    0 -0.00000000000E+00 -0.00000000000E+00 -0.45593999997E+02  0.45594000000E+02  0.51100000000E-03 0.  1.
    9900012    2    1    2    0    0  0.26743529121E+02 -0.19313075029E+02 -0.23768784331E+02  0.50528851884E+02  0.29999975786E+02 0.  0.
        -12    1    1    2    0    0 -0.26743529121E+02  0.19313075029E+02  0.23768784331E+02  0.40659148116E+02  0.00000000000E+00 0.  1.
         11    1    3    3    0    0  0.24963409070E+01  0.34206758873E+01 -0.13924389785E+01  0.44577604264E+01  0.51100000000E-03 0.  1.
        -11    1    3    3    0    0  0.35802304307E+01  0.39246315337E+01 -0.75346872984E+01  0.92191266158E+01  0.51100000000E-03 0. -1.
         12    1    3    3    0    0  0.20666957784E+02 -0.26658382450E+02 -0.14841658054E+02  0.36851964842E+02  0.00000000000E+00 0. -1.
</event>
<event>
 7    1  0.2903212E-011  0.5052886E+02  0.7816164E-02  0.1300439E+00
        -11   -1    0    0    0    0  0.00000000000E+00  0.00000000000E+00  0.45593999997E+02  0.45594000000E+02  0.51100000000E-03 0.  1.
         11   -1    0    0    0    0 -0.00000000000E+00 -0.00000000000E+00 -0.45593999997E+02  0.45594000000E+02  0.51100000000E-03 0. -1.
    9900012    2    1    2    0    0  0.34102436236E+02 -0.21999426277E+02 -0.24929604328E+01  0.50528858771E+02  0.29999996720E+02 0.  0.
        -12    1    1    2    0    0 -0.34102436236E+02  0.21999426277E+02  0.24929604328E+01  0.40659141229E+02  0.00000000000E+00 0.  1.
         11    1    3    3    0    0 -0.50852691562E+00 -0.45412407333E+01 -0.28517207788E+01  0.53864439738E+01  0.51100000000E-03 0. -1.
        -11    1    3    3    0    0  0.73283243475E+01 -0.70952152335E+00  0.93400148779E+01  0.11893007892E+02  0.51100000000E-03 0.  1.
        -12    1    3    3    0    0  0.27282638804E+02 -0.16748664021E+02 -0.89812545320E+01  0.33249406905E+02  0.00000000000E+00 0.  1.
</event>
<event>
 7    1  0.2903212E-011  0.5052881E+02  0.7816164E-02  0.1300439E+00
        -11   -1    0    0    0    0  0.00000000000E+00  0.00000000000E+00  0.45593999997E+02  0.45594000000E+02  0.51100000000E-03 0. -1.
         11   -1    0    0    0    0 -0.00000000000E+00 -0.00000000000E+00 -0.45593999997E+02  0.45594000000E+02  0.51100000000E-03 0.  1.
    9900012    2    1    2    0    0 -0.32755366070E+02  0.18659636122E+01 -0.24016118125E+02  0.50528809694E+02  0.29999847545E+02 0.  0.
        -12    1    1    2    0    0  0.32755366070E+02 -0.18659636122E+01  0.24016118125E+02  0.40659190306E+02  0.00000000000E+00 0.  1.
         11    1    3    3    0    0 -0.29691536184E+02  0.33368955764E+01 -0.72790476227E+01  0.30752345075E+02  0.51100000000E-03 0. -1.
        -11    1    3    3    0    0 -0.65373450589E+01 -0.14940228003E+01 -0.13272808173E+02  0.14870656394E+02  0.51100000000E-03 0.  1.
        -12    1    3    3    0    0  0.34735151733E+01  0.23090836097E-01 -0.34642623298E+01  0.49058082245E+01  0.00000000000E+00 0.  1.
</event>
<event>
 7    1  0.2903212E-011  0.5052886E+02  0.7816164E-02  0.1300439E+00
        -11   -1    0    0    0    0  0.00000000000E+00  0.00000000000E+00  0.45593999997E+02  0.45594000000E+02  0.51100000000E-03 0.  1.
         11   -1    0    0    0    0 -0.00000000000E+00 -0.00000000000E+00 -0.45593999997E+02  0.45594000000E+02  0.51100000000E-03 0. -1.
    9900012    2    1    2    0    0  0.38274586900E+02 -0.12664407927E+02  0.52758254778E+01  0.50528861237E+02  0.30000004216E+02 0.  0.
        -12    1    1    2    0    0 -0.38274586900E+02  0.12664407927E+02 -0.52758254778E+01  0.40659138763E+02  0.00000000000E+00 0.  1.
         11    1    3    3    0    0  0.41397507390E+01 -0.21734692855E+01  0.56395779628E+00  0.47095173397E+01  0.51100000000E-03 0. -1.
        -11    1    3    3    0    0  0.13534155012E+02  0.21349252959E+01  0.14318238942E+02  0.19817750240E+02  0.51100000000E-03 0.  1.
        -12    1    3    3    0    0  0.20600681148E+02 -0.12625863937E+02 -0.96063712603E+01  0.26001593657E+02  0.00000000000E+00 0.  1.
</event>
<event>
 7    1  0.2903212E-011  0.5052886E+02  0.7816164E-02  0.1300439E+00
        -11   -1    0    0    0    0  0.00000000000E+00  0.00000000000E+00  0.45593999997E+02  0.45594000000E+02  0.51100000000E-03 0.  1.
         11   -1    0    0    0    0 -0.00000000000E+00 -0.00000000000E+00 -0.45593999997E+02  0.45594000000E+02  0.51100000000E-03 0. -1.
    9900012    2    1    2    0    0 -0.11378752776E+02  0.28062524610E+02 -0.27132718446E+02  0.50528859422E+02  0.29999998700E+02 0.  0.
        -12    1    1    2    0    0  0.11378752776E+02 -0.28062524610E+02  0.27132718446E+02  0.40659140578E+02  0.00000000000E+00 0.  1.
         11    1    3    3    0    0 -0.19191561452E+02  0.26353464063E+02 -0.19116017953E+02  0.37792105548E+02  0.51100000000E-03 0. -1.
        -11    1    3    3    0    0  0.40381654928E-01  0.65464642208E+00  0.73462170930E+00  0.98481568473E+00  0.51100000000E-03 0.  1.
         12    1    3    3    0    0  0.77724270209E+01  0.10544141258E+01 -0.87513222016E+01  0.11751938190E+02  0.00000000000E+00 0. -1.
</event>
<event>
 7    1  0.2903212E-011  0.5052883E+02  0.7816164E-02  0.1300439E+00
        -11   -1    0    0    0    0  0.00000000000E+00  0.00000000000E+00  0.45593999997E+02  0.45594000000E+02  0.51100000000E-03 0.  1.
         11   -1    0    0    0    0 -0.00000000000E+00 -0.00000000000E+00 -0.45593999997E+02  0.45594000000E+02  0.51100000000E-03 0. -1.
    9900012    2    1    2    0    0  0.11823832631E+02 -0.29318201896E+02 -0.25569668940E+02  0.50528831905E+02  0.29999915058E+02 0.  0.
        -12    1    1    2    0    0 -0.11823832631E+02  0.29318201896E+02  0.25569668940E+02  0.40659168095E+02  0.00000000000E+00 0.  1.
         11    1    3    3    0    0  0.89739082332E+01 -0.15469481865E+02 -0.51871260884E+01  0.18621014351E+02  0.51100000000E-03 0. -1.
        -11    1    3    3    0    0  0.92758747057E+01 -0.49141254500E+01 -0.17702433973E+02  0.20580734907E+02  0.51100000000E-03 0.  1.
         12    1    3    3    0    0 -0.64259503080E+01 -0.89345945809E+01 -0.26801088784E+01  0.11327082647E+02  0.00000000000E+00 0. -1.
</event>
<event>
 7    1  0.2903212E-011  0.5052890E+02  0.7816164E-02  0.1300439E+00
        -11   -1    0    0    0    0  0.00000000000E+00  0.00000000000E+00  0.45593999997E+02  0.45594000000E+02  0.51100000000E-03 0. -1.
         11   -1    0    0    0    0 -0.00000000000E+00 -0.00000000000E+00 -0.45593999997E+02  0.45594000000E+02  0.51100000000E-03 0.  1.
    9900012    2    1    2    0    0 -0.16621402469E+02  0.31530217520E+02  0.19563659004E+02  0.50528900274E+02  0.30000122872E+02 0.  0.
        -12    1    1    2    0    0  0.16621402469E+02 -0.31530217520E+02 -0.19563659004E+02  0.40659099726E+02  0.00000000000E+00 0.  1.
         11    1    3    3    0    0 -0.78335987862E+01  0.80520978354E+01  0.12610200507E+02  0.16888419304E+02  0.51100000000E-03 0.  1.
        -11    1    3    3    0    0  0.90421168861E+00  0.13238380435E+02  0.12744587338E+02  0.18398283126E+02  0.51100000000E-03 0. -1.
        -12    1    3    3    0    0 -0.96920153712E+01  0.10239739250E+02 -0.57911288406E+01  0.15242197844E+02  0.00000000000E+00 0.  1.
</event>
<event>
 7    1  0.2903212E-011  0.5052885E+02  0.7816164E-02  0.1300439E+00
        -11   -1    0    0    0    0  0.00000000000E+00  0.00000000000E+00  0.45593999997E+02  0.45594000000E+02  0.51100000000E-03 0.  1.
         11   -1    0    0    0    0 -0.00000000000E+00 -0.00000000000E+00 -0.45593999997E+02  0.45594000000E+02  0.51100000000E-03 0. -1.
    9900012    2    1    2    0    0  0.33561965004E+02  0.10782830441E+02 -0.20260585100E+02  0.50528852987E+02  0.29999979138E+02 0.  0.
        -12    1    1    2    0    0 -0.33561965004E+02 -0.10782830441E+02  0.20260585100E+02  0.40659147013E+02  0.00000000000E+00 0.  1.
         11    1    3    3    0    0  0.33465458176E+02  0.61326493129E+01 -0.16413768434E+02  0.37775098583E+02  0.51100000000E-03 0. -1.
        -11    1    3    3    0    0  0.26217866483E+01  0.13063174897E+01  0.33350905112E+01  0.44388128584E+01  0.51100000000E-03 0.  1.
        -12    1    3    3    0    0 -0.25252798198E+01  0.33438636383E+01 -0.71819071769E+01  0.83149415451E+01  0.00000000000E+00 0.  1.
</event>
<event>
 7    1  0.2903212E-011  0.5052885E+02  0.7816164E-02  0.1300439E+00
        -11   -1    0    0    0    0  0.00000000000E+00  0.00000000000E+00  0.45593999997E+02  0.45594000000E+02  0.51100000000E-03 0.  1.
         11   -1    0    0    0    0 -0.00000000000E+00 -0.00000000000E+00 -0.45593999997E+02  0.45594000000E+02  0.51100000000E-03 0. -1.
    9900012    2    1    2    0    0  0.37947335500E+02  0.14339508426E+02 -0.27467132394E+01  0.50528853340E+02  0.29999980214E+02 0.  0.
        -12    1    1    2    0    0 -0.37947335500E+02 -0.14339508426E+02  0.27467132394E+01  0.40659146660E+02  0.00000000000E+00 0.  1.
         11    1    3    3    0    0  0.16699631814E+02 -0.27703145975E-01 -0.54729366357E+00  0.16708620554E+02  0.51100000000E-03 0. -1.
        -11    1    3    3    0    0  0.18735732664E+02  0.15372856673E+00 -0.43297114940E+01  0.19230125138E+02  0.51100000000E-03 0.  1.
        -12    1    3    3    0    0  0.25119710220E+01  0.14213483005E+02  0.21302919181E+01  0.14590107649E+02  0.00000000000E+00 0.  1.
</event>
<event>
 7    1  0.2903212E-011  0.5052886E+02  0.7816164E-02  0.1300439E+00
        -11   -1    0    0    0    0  0.00000000000E+00  0.00000000000E+00  0.45593999997E+02  0.45594000000E+02  0.51100000000E-03 0.  1.
         11   -1    0    0    0    0 -0.00000000000E+00 -0.00000000000E+00 -0.45593999997E+02  0.45594000000E+02  0.51100000000E-03 0. -1.
    9900012    2    1    2    0    0 -0.30834540420E+02 -0.26164510090E+02 -0.42208267510E+01  0.50528857736E+02  0.29999993574E+02 0.  0.
        -12    1    1    2    0    0  0.30834540420E+02  0.26164510090E+02  0.42208267510E+01  0.40659142264E+02  0.00000000000E+00 0.  1.
         11    1    3    3    0    0 -0.34815158810E+01 -0.85909938028E+01 -0.67022790222E+01  0.11438823003E+02  0.51100000000E-03 0. -1.
        -11    1    3    3    0    0 -0.15049829175E+02 -0.20544842104E+02 -0.22752151160E+01  0.25568818888E+02  0.51100000000E-03 0.  1.
        -12    1    3    3    0    0 -0.12303195364E+02  0.29713258160E+01  0.47566673873E+01  0.13521215844E+02  0.00000000000E+00 0.  1.
</event>
<event>
 7    1  0.2903212E-011  0.5052886E+02  0.7816164E-02  0.1300439E+00
        -11   -1    0    0    0    0  0.00000000000E+00  0.00000000000E+00  0.45593999997E+02  0.45594000000E+02  0.51100000000E-03 0.  1.
         11   -1    0    0    0    0 -0.00000000000E+00 -0.00000000000E+00 -0.45593999997E+02  0.45594000000E+02  0.51100000000E-03 0. -1.
    9900012    2    1    2    0    0 -0.14333590597E+01 -0.13445929667E+01 -0.40611618504E+02  0.50528855814E+02  0.29999987731E+02 0.  0.
        -12    1    1    2    0    0  0.14333590597E+01  0.13445929667E+01  0.40611618504E+02  0.40659144186E+02  0.00000000000E+00 0.  1.
         11    1    3    3    0    0  0.73788013669E+00  0.22696583209E+01 -0.18316070288E+01  0.30084216059E+01  0.51100000000E-03 0. -1.
        -11    1    3    3    0    0  0.40925807040E+01 -0.62273736475E+01  0.67835768102E+00  0.74826177751E+01  0.51100000000E-03 0.  1.
         12    1    3    3    0    0 -0.62638199003E+01  0.26131223599E+01 -0.39458369156E+02  0.40037816433E+02  0.00000000000E+00 0. -1.
</event>
<event>
 7    1  0.2903212E-011  0.5052885E+02  0.7816164E-02  0.1300439E+00
        -11   -1    0    0    0    0  0.00000000000E+00  0.00000000000E+00  0.45593999997E+02  0.45594000000E+02  0.51100000000E-03 0.  1.
         11   -1    0    0    0    0 -0.00000000000E+00 -0.00000000000E+00 -0.45593999997E+02  0.45594000000E+02  0.51100000000E-03 0. -1.
    9900012    2    1    2    0    0  0.86602545339E+01  0.30275549526E+01 -0.39610611619E+02  0.50528847889E+02  0.29999963642E+02 0.  0.
        -12    1    1    2    0    0 -0.86602545339E+01 -0.30275549526E+01  0.39610611619E+02  0.40659152111E+02  0.00000000000E+00 0.  1.
         11    1    3    3    0    0  0.78706271016E+01 -0.31727603732E+01 -0.29651570948E+02  0.30841997979E+02  0.51100000000E-03 0. -1.
        -11    1    3    3    0    0 -0.59266201877E-01  0.11581711115E+01 -0.13447290528E+02  0.13497203252E+02  0.51100000000E-03 0.  1.
        -12    1    3    3    0    0  0.84889363410E+00  0.50421442143E+01  0.34882498576E+01  0.61896466579E+01  0.00000000000E+00 0.  1.
</event>
<event>
 7    1  0.2903212E-011  0.5052886E+02  0.7816164E-02  0.1300439E+00
        -11   -1    0    0    0    0  0.00000000000E+00  0.00000000000E+00  0.45593999997E+02  0.45594000000E+02  0.51100000000E-03 0.  1.
         11   -1    0    0    0    0 -0.00000000000E+00 -0.00000000000E+00 -0.45593999997E+02  0.45594000000E+02  0.51100000000E-03 0. -1.
    9900012    2    1    2    0    0  0.11429472072E+02  0.75843396960E+00 -0.39012276135E+02  0.50528859046E+02  0.29999997555E+02 0.  0.
        -12    1    1    2    0    0 -0.11429472072E+02 -0.75843396960E+00  0.39012276135E+02  0.40659140954E+02  0.00000000000E+00 0.  1.
         11    1    3    3    0    0  0.97207914679E+01  0.40910299576E+01 -0.26355939442E+01  0.10870909280E+02  0.51100000000E-03 0. -1.
        -11    1    3    3    0    0  0.26954571871E+01 -0.86197202963E+00  0.33527970957E+00  0.28497189286E+01  0.51100000000E-03 0.  1.
         12    1    3    3    0    0 -0.98677658303E+00 -0.24706239584E+01 -0.36711961900E+02  0.36808230837E+02  0.00000000000E+00 0. -1.
</event>
<event>
 7    1  0.2903212E-011  0.5052886E+02  0.7816164E-02  0.1300439E+00
        -11   -1    0    0    0    0  0.00000000000E+00  0.00000000000E+00  0.45593999997E+02  0.45594000000E+02  0.51100000000E-03 0.  1.
         11   -1    0    0    0    0 -0.00000000000E+00 -0.00000000000E+00 -0.45593999997E+02  0.45594000000E+02  0.51100000000E-03 0. -1.
    9900012    2    1    2    0    0  0.22661266105E+01  0.36679218133E+02 -0.17397275847E+02  0.50528861057E+02  0.30000003670E+02 0.  0.
        -12    1    1    2    0    0 -0.22661266105E+01 -0.36679218133E+02  0.17397275847E+02  0.40659138943E+02  0.00000000000E+00 0.  1.
         11    1    3    3    0    0 -0.43485148920E+01  0.90000512513E+01 -0.15403665452E+02  0.18362554667E+02  0.51100000000E-03 0. -1.
        -11    1    3    3    0    0  0.83490560227E+01  0.11883963653E+02 -0.61023757769E+01  0.15753549408E+02  0.51100000000E-03 0.  1.
        -12    1    3    3    0    0 -0.17344145202E+01  0.15795203229E+02  0.41087653822E+01  0.16412756981E+02  0.00000000000E+00 0.  1.
</event>
<event>
 7    1  0.2903212E-011  0.5052886E+02  0.7816164E-02  0.1300439E+00
        -11   -1    0    0    0    0  0.00000000000E+00  0.00000000000E+00  0.45593999997E+02  0.45594000000E+02  0.51100000000E-03 0.  1.
         11   -1    0    0    0    0 -0.00000000000E+00 -0.00000000000E+00 -0.45593999997E+02  0.45594000000E+02  0.51100000000E-03 0. -1.
    9900012    2    1    2    0    0  0.36977299233E+01 -0.15115093419E+02 -0.37563626552E+02  0.50528864552E+02  0.30000014291E+02 0.  0.
        -12    1    1    2    0    0 -0.36977299233E+01  0.15115093419E+02  0.37563626552E+02  0.40659135448E+02  0.00000000000E+00 0.  1.
         11    1    3    3    0    0 -0.75413243921E+01 -0.17197911520E+01 -0.74703626310E+01  0.10753398221E+02  0.51100000000E-03 0. -1.
        -11    1    3    3    0    0  0.59526104050E+01 -0.12689026154E+02 -0.31310943351E+02  0.34304812041E+02  0.51100000000E-03 0.  1.
        -12    1    3    3    0    0  0.52864439104E+01 -0.70627611340E+00  0.12176794300E+01  0.54706542899E+01  0.00000000000E+00 0.  1.
</event>
<event>
 7    1  0.2903212E-011  0.5052886E+02  0.7816164E-02  0.1300439E+00
        -11   -1    0    0    0    0  0.00000000000E+00  0.00000000000E+00  0.45593999997E+02  0.45594000000E+02  0.51100000000E-03 0.  1.
         11   -1    0    0    0    0 -0.00000000000E+00 -0.00000000000E+00 -0.45593999997E+02  0.45594000000E+02  0.51100000000E-03 0. -1.
    9900012    2    1    2    0    0  0.17281081501E+02 -0.31456989241E+02 -0.19104653522E+02  0.50528859131E+02  0.29999997815E+02 0.  0.
        -12    1    1    2    0    0 -0.17281081501E+02  0.31456989241E+02  0.19104653522E+02  0.40659140869E+02  0.00000000000E+00 0.  1.
         11    1    3    3    0    0  0.27107350950E+00  0.16528152477E+01  0.26181665382E+01  0.31080661791E+01  0.51100000000E-03 0. -1.
        -11    1    3    3    0    0  0.45838195326E+01  0.11450393629E+01 -0.62448295323E+01  0.78307351378E+01  0.51100000000E-03 0.  1.
         12    1    3    3    0    0  0.12426188459E+02 -0.34254843852E+02 -0.15477990528E+02  0.39590057814E+02  0.00000000000E+00 0. -1.
</event>
<event>
 7    1  0.2903212E-011  0.5052886E+02  0.7816164E-02  0.1300439E+00
        -11   -1    0    0    0    0  0.00000000000E+00  0.00000000000E+00  0.45593999997E+02  0.45594000000E+02  0.51100000000E-03 0.  1.
         11   -1    0    0    0    0 -0.00000000000E+00 -0.00000000000E+00 -0.45593999997E+02  0.45594000000E+02  0.51100000000E-03 0. -1.
    9900012    2    1    2    0    0  0.24974480396E+02  0.28620252340E+02  0.14502479710E+02  0.50528862862E+02  0.30000009154E+02 0.  0.
        -12    1    1    2    0    0 -0.24974480396E+02 -0.28620252340E+02 -0.14502479710E+02  0.40659137138E+02  0.00000000000E+00 0.  1.
         11    1    3    3    0    0  0.40037867452E+01  0.20503010170E+02  0.10205488294E+02  0.23249854320E+02  0.51100000000E-03 0. -1.
        -11    1    3    3    0    0 -0.23390775580E+01  0.63373629720E+00  0.13457797588E-02  0.24234082589E+01  0.51100000000E-03 0.  1.
        -12    1    3    3    0    0  0.23309771209E+02  0.74835058729E+01  0.42956456367E+01  0.24855600283E+02  0.00000000000E+00 0.  1.
</event>
<event>
 7    1  0.2903212E-011  0.5052882E+02  0.7816164E-02  0.1300439E+00
        -11   -1    0    0    0    0  0.00000000000E+00  0.00000000000E+00  0.45593999997E+02  0.45594000000E+02  0.51100000000E-03 0.  1.
         11   -1    0    0    0    0 -0.00000000000E+00 -0.00000000000E+00 -0.45593999997E+02  0.45594000000E+02  0.51100000000E-03 0. -1.
    9900012    2    1    2    0    0  0.27662975760E+02 -0.26132440650E+02 -0.14318670815E+02  0.50528818797E+02  0.29999875214E+02 0.  0.
        -12    1    1    2    0    0 -0.27662975760E+02  0.26132440650E+02  0.14318670815E+02  0.40659181203E+02  0.00000000000E+00 0.  1.
         11    1    3    3    0    0  0.78207987695E+00 -0.39341016873E+01  0.17204836050E+01  0.43645010157E+01  0.51100000000E-03 0. -1.
        -11    1    3    3    0    0 -0.29828151705E+01 -0.10293064348E+02 -0.12923059322E+01  0.10794184309E+02  0.51100000000E-03 0.  1.
         12    1    3    3    0    0  0.29863711053E+02 -0.11905274615E+02 -0.14746848488E+02  0.35370133472E+02  0.00000000000E+00 0. -1.
</event>
<event>
 7    1  0.2903212E-011  0.5052886E+02  0.7816164E-02  0.1300439E+00
        -11   -1    0    0    0    0  0.00000000000E+00  0.00000000000E+00  0.45593999997E+02  0.45594000000E+02  0.51100000000E-03 0. -1.
         11   -1    0    0    0    0 -0.00000000000E+00 -0.00000000000E+00 -0.45593999997E+02  0.45594000000E+02  0.51100000000E-03 0.  1.
    9900012    2    1    2    0    0 -0.30958960687E+02 -0.26828748786E+01  0.26220426712E+02  0.50528857837E+02  0.29999993882E+02 0.  0.
        -12    1    1    2    0    0  0.30958960687E+02  0.26828748786E+01 -0.26220426712E+02  0.40659142163E+02  0.00000000000E+00 0.  1.
         11    1    3    3    0    0  0.31371399938E+00  0.16727452889E+00 -0.22436510394E+01  0.22716442259E+01  0.51100000000E-03 0. -1.
        -11    1    3    3    0    0 -0.11353594083E+02  0.92458315801E+01  0.57979381847E+01  0.15748193156E+02  0.51100000000E-03 0.  1.
         12    1    3    3    0    0 -0.19919080604E+02 -0.12095980988E+02  0.22666139566E+02  0.32509020456E+02  0.00000000000E+00 0. -1.
</event>
<event>
 7    1  0.2903212E-011  0.5052886E+02  0.7816164E-02  0.1300439E+00
        -11   -1    0    0    0    0  0.00000000000E+00  0.00000000000E+00  0.45593999997E+02  0.45594000000E+02  0.51100000000E-03 0. -1.
         11   -1    0    0    0    0 -0.00000000000E+00 -0.00000000000E+00 -0.45593999997E+02  0.45594000000E+02  0.51100000000E-03 0.  1.
    9900012    2    1    2    0    0 -0.39466049560E+02  0.96084158920E+01  0.18095704376E+01  0.50528864877E+02  0.30000015279E+02 0.  0.
        -12    1    1    2    0    0  0.39466049560E+02 -0.96084158920E+01 -0.18095704376E+01  0.40659135123E+02  0.00000000000E+00 0.  1.
         11    1    3    3    0    0 -0.34443721098E+01  0.41314804450E+01 -0.14522577428E+01  0.55715242718E+01  0.51100000000E-03 0. -1.
        -11    1    3    3    0    0 -0.89210550057E+01  0.94726217000E+01 -0.80710924230E+01  0.15312031787E+02  0.51100000000E-03 0.  1.
         12    1    3    3    0    0 -0.27100622444E+02 -0.39956862529E+01  0.11332920603E+02  0.29645308818E+02  0.00000000000E+00 0. -1.
</event>
<event>
 7    1  0.2903212E-011  0.5052886E+02  0.7816164E-02  0.1300439E+00
        -11   -1    0    0    0    0  0.00000000000E+00  0.00000000000E+00  0.45593999997E+02  0.45594000000E+02  0.51100000000E-03 0. -1.
         11   -1    0    0    0    0 -0.00000000000E+00 -0.00000000000E+00 -0.45593999997E+02  0.45594000000E+02  0.51100000000E-03 0.  1.
    9900012    2    1    2    0    0 -0.30937910313E+02  0.17697564671E+02  0.19565470626E+02  0.50528859199E+02  0.29999998022E+02 0.  0.
        -12    1    1    2    0    0  0.30937910313E+02 -0.17697564671E+02 -0.19565470626E+02  0.40659140801E+02  0.00000000000E+00 0.  1.
         11    1    3    3    0    0 -0.88247962014E+01  0.67698597493E+01 -0.24834817611E+01  0.11396302512E+02  0.51100000000E-03 0. -1.
        -11    1    3    3    0    0  0.66666376653E+00  0.89438080867E+01  0.94373859633E+01  0.13019231842E+02  0.51100000000E-03 0.  1.
         12    1    3    3    0    0 -0.22779777878E+02  0.19838968348E+01  0.12611566424E+02  0.26113324846E+02  0.00000000000E+00 0. -1.
</event>
<event>
 7    1  0.2903212E-011  0.5052886E+02  0.7816164E-02  0.1300439E+00
        -11   -1    0    0    0    0  0.00000000000E+00  0.00000000000E+00  0.45593999997E+02  0.45594000000E+02  0.51100000000E-03 0.  1.
         11   -1    0    0    0    0 -0.00000000000E+00 -0.00000000000E+00 -0.45593999997E+02  0.45594000000E+02  0.51100000000E-03 0. -1.
    9900012    2    1    2    0    0 -0.68470261428E+01 -0.30711811036E+02 -0.25750123541E+02  0.50528856299E+02  0.29999989207E+02 0.  0.
        -12    1    1    2    0    0  0.68470261428E+01  0.30711811036E+02  0.25750123541E+02  0.40659143701E+02  0.00000000000E+00 0.  1.
         11    1    3    3    0    0  0.38699737217E+01 -0.16991557613E+02 -0.12965528344E+02  0.21720834519E+02  0.51100000000E-03 0. -1.
        -11    1    3    3    0    0  0.18490351502E+01 -0.59347762134E+01  0.32371916456E+01  0.70085597451E+01  0.51100000000E-03 0.  1.
         12    1    3    3    0    0 -0.12566035015E+02 -0.77854772102E+01 -0.16021786843E+02  0.21799462035E+02  0.00000000000E+00 0. -1.
</event>
<event>
 7    1  0.2903212E-011  0.5052883E+02  0.7816164E-02  0.1300439E+00
        -11   -1    0    0    0    0  0.00000000000E+00  0.00000000000E+00  0.45593999997E+02  0.45594000000E+02  0.51100000000E-03 0.  1.
         11   -1    0    0    0    0 -0.00000000000E+00 -0.00000000000E+00 -0.45593999997E+02  0.45594000000E+02  0.51100000000E-03 0. -1.
    9900012    2    1    2    0    0 -0.17935757992E+02 -0.28139653763E+02 -0.23230086123E+02  0.50528826005E+02  0.29999897125E+02 0.  0.
        -12    1    1    2    0    0  0.17935757992E+02  0.28139653763E+02  0.23230086123E+02  0.40659173995E+02  0.00000000000E+00 0.  1.
         11    1    3    3    0    0 -0.63099430649E+01  0.43761245694E+01 -0.25781241887E+01  0.81001587838E+01  0.51100000000E-03 0. -1.
        -11    1    3    3    0    0 -0.51390521108E+01 -0.33747228107E+01 -0.77842349405E+01  0.99193207689E+01  0.51100000000E-03 0.  1.
        -12    1    3    3    0    0 -0.64867628167E+01 -0.29141055522E+02 -0.12867726993E+02  0.32509346452E+02  0.00000000000E+00 0.  1.
</event>
<event>
 7    1  0.2903212E-011  0.5052887E+02  0.7816164E-02  0.1300439E+00
        -11   -1    0    0    0    0  0.00000000000E+00  0.00000000000E+00  0.45593999997E+02  0.45594000000E+02  0.51100000000E-03 0.  1.
         11   -1    0    0    0    0 -0.00000000000E+00 -0.00000000000E+00 -0.45593999997E+02  0.45594000000E+02  0.51100000000E-03 0. -1.
    9900012    2    1    2    0    0  0.38327024846E+02 -0.30197466965E+01 -0.13231984557E+02  0.50528866721E+02  0.30000020885E+02 0.  0.
        -12    1    1    2    0    0 -0.38327024846E+02  0.30197466965E+01  0.13231984557E+02  0.40659133279E+02  0.00000000000E+00 0.  1.
         11    1    3    3    0    0  0.26519760383E+02  0.24666705949E+01 -0.19503481943E+02  0.33011633749E+02  0.51100000000E-03 0. -1.
        -11    1    3    3    0    0  0.51780682368E+01  0.23137189529E+01  0.32953068176E+00  0.56810453958E+01  0.51100000000E-03 0.  1.
        -12    1    3    3    0    0  0.66291962264E+01 -0.78001362443E+01  0.59419667036E+01  0.11836187576E+02  0.00000000000E+00 0.  1.
</event>
<event>
 7    1  0.2903212E-011  0.5052886E+02  0.7816164E-02  0.1300439E+00
        -11   -1    0    0    0    0  0.00000000000E+00  0.00000000000E+00  0.45593999997E+02  0.45594000000E+02  0.51100000000E-03 0. -1.
         11   -1    0    0    0    0 -0.00000000000E+00 -0.00000000000E+00 -0.45593999997E+02  0.45594000000E+02  0.51100000000E-03 0.  1.
    9900012    2    1    2    0    0 -0.22306450851E+02  0.95952888868E+00  0.33980396476E+02  0.50528858470E+02  0.29999995805E+02 0.  0.
        -12    1    1    2    0    0  0.22306450851E+02 -0.95952888868E+00 -0.33980396476E+02  0.40659141530E+02  0.00000000000E+00 0.  1.
         11    1    3    3    0    0 -0.98180804926E+01 -0.67984099486E+01  0.89608080034E+01  0.14930142756E+02  0.51100000000E-03 0. -1.
        -11    1    3    3    0    0 -0.93611629521E+01 -0.45089240877E+01  0.18831906606E+02  0.21508195529E+02  0.51100000000E-03 0.  1.
        -12    1    3    3    0    0 -0.31272074065E+01  0.12266862925E+02  0.61876818674E+01  0.14090520185E+02  0.00000000000E+00 0.  1.
</event>
<event>
 7    1  0.2903212E-011  0.5052887E+02  0.7816164E-02  0.1300439E+00
        -11   -1    0    0    0    0  0.00000000000E+00  0.00000000000E+00  0.45593999997E+02  0.45594000000E+02  0.51100000000E-03 0.  1.
         11   -1    0    0    0    0 -0.00000000000E+00 -0.00000000000E+00 -0.45593999997E+02  0.45594000000E+02  0.51100000000E-03 0. -1.
    9900012    2    1    2    0    0  0.23202705496E+02  0.31048391275E+02 -0.12279941837E+02  0.50528866774E+02  0.30000021048E+02 0.  0.
        -12    1    1    2    0    0 -0.23202705496E+02 -0.31048391275E+02  0.12279941837E+02  0.40659133226E+02  0.00000000000E+00 0.  1.
         11    1    3    3    0    0  0.21236278018E+02  0.10924085112E+02 -0.36911881618E+01  0.24164850712E+02  0.51100000000E-03 0. -1.
        -11    1    3    3    0    0  0.17573755397E+01  0.47590449432E+00 -0.63281926597E+01  0.65848976055E+01  0.51100000000E-03 0.  1.
        -12    1    3    3    0    0  0.20905193833E+00  0.19648401669E+02 -0.22605610156E+01  0.19779118457E+02  0.00000000000E+00 0.  1.
</event>
<event>
 7    1  0.2903212E-011  0.5052886E+02  0.7816164E-02  0.1300439E+00
        -11   -1    0    0    0    0  0.00000000000E+00  0.00000000000E+00  0.45593999997E+02  0.45594000000E+02  0.51100000000E-03 0. -1.
         11   -1    0    0    0    0 -0.00000000000E+00 -0.00000000000E+00 -0.45593999997E+02  0.45594000000E+02  0.51100000000E-03 0.  1.
    9900012    2    1    2    0    0 -0.10499518124E+01 -0.39660161080E+02  0.88957698005E+01  0.50528862085E+02  0.30000006792E+02 0.  0.
        -12    1    1    2    0    0  0.10499518124E+01  0.39660161080E+02 -0.88957698005E+01  0.40659137915E+02  0.00000000000E+00 0.  1.
         11    1    3    3    0    0  0.89137089706E-01 -0.14196395531E+02  0.71407743606E+01  0.15891389185E+02  0.51100000000E-03 0. -1.
        -11    1    3    3    0    0 -0.58569710770E+01 -0.87112382151E+01  0.10768041185E+02  0.15037968368E+02  0.51100000000E-03 0.  1.
        -12    1    3    3    0    0  0.47178821749E+01 -0.16752527334E+02 -0.90130457446E+01  0.19599504531E+02  0.00000000000E+00 0.  1.
</event>
<event>
 7    1  0.2903212E-011  0.5052887E+02  0.7816164E-02  0.1300439E+00
        -11   -1    0    0    0    0  0.00000000000E+00  0.00000000000E+00  0.45593999997E+02  0.45594000000E+02  0.51100000000E-03 0. -1.
         11   -1    0    0    0    0 -0.00000000000E+00 -0.00000000000E+00 -0.45593999997E+02  0.45594000000E+02  0.51100000000E-03 0.  1.
    9900012    2    1    2    0    0 -0.11838403119E+02  0.32054841120E+02 -0.22034161155E+02  0.50528869593E+02  0.30000029614E+02 0.  0.
        -12    1    1    2    0    0  0.11838403119E+02 -0.32054841120E+02  0.22034161155E+02  0.40659130407E+02  0.00000000000E+00 0.  1.
         11    1    3    3    0    0  0.14478863885E+01  0.10813057616E+02  0.22763328642E+00  0.10911938745E+02  0.51100000000E-03 0. -1.
        -11    1    3    3    0    0 -0.13660332128E+02  0.66349826742E+01 -0.30661803048E+01  0.15492873551E+02  0.51100000000E-03 0.  1.
        -12    1    3    3    0    0  0.37404262055E+00  0.14606800830E+02 -0.19195614137E+02  0.24124057297E+02  0.00000000000E+00 0.  1.
</event>
<event>
 7    1  0.2903212E-011  0.5052886E+02  0.7816164E-02  0.1300439E+00
        -11   -1    0    0    0    0  0.00000000000E+00  0.00000000000E+00  0.45593999997E+02  0.45594000000E+02  0.51100000000E-03 0.  1.
         11   -1    0    0    0    0 -0.00000000000E+00 -0.00000000000E+00 -0.45593999997E+02  0.45594000000E+02  0.51100000000E-03 0. -1.
    9900012    2    1    2    0    0  0.20765371905E+02  0.50664176646E+01 -0.34587521971E+02  0.50528856693E+02  0.29999990405E+02 0.  0.
        -12    1    1    2    0    0 -0.20765371905E+02 -0.50664176646E+01  0.34587521971E+02  0.40659143307E+02  0.00000000000E+00 0.  1.
         11    1    3    3    0    0  0.46403487598E+01 -0.19710068667E+01  0.49750527678E+00  0.50660849226E+01  0.51100000000E-03 0.  1.
        -11    1    3    3    0    0  0.14080184655E+02  0.74621246634E+01 -0.71774332527E+01  0.17477140864E+02  0.51100000000E-03 0. -1.
        -12    1    3    3    0    0  0.20448384906E+01 -0.42470013209E+00 -0.27907593995E+02  0.27985630907E+02  0.00000000000E+00 0.  1.
</event>
<event>
 7    1  0.2903212E-011  0.5052886E+02  0.7816164E-02  0.1300439E+00
        -11   -1    0    0    0    0  0.00000000000E+00  0.00000000000E+00  0.45593999997E+02  0.45594000000E+02  0.51100000000E-03 0.  1.
         11   -1    0    0    0    0 -0.00000000000E+00 -0.00000000000E+00 -0.45593999997E+02  0.45594000000E+02  0.51100000000E-03 0. -1.
    9900012    2    1    2    0    0  0.16698926142E+01  0.35850499209E+02 -0.19108081386E+02  0.50528860694E+02  0.30000002566E+02 0.  0.
        -12    1    1    2    0    0 -0.16698926142E+01 -0.35850499209E+02  0.19108081386E+02  0.40659139306E+02  0.00000000000E+00 0.  1.
         11    1    3    3    0    0 -0.24627363169E+01  0.96112577171E+01 -0.33927054841E+01  0.10485790186E+02  0.51100000000E-03 0. -1.
        -11    1    3    3    0    0 -0.42849726965E+01  0.95366654955E+01  0.54560337680E+01  0.11793103261E+02  0.51100000000E-03 0.  1.
        -12    1    3    3    0    0  0.84176016277E+01  0.16702575996E+02 -0.21171409669E+02  0.28249967247E+02  0.00000000000E+00 0.  1.
</event>
<event>
 7    1  0.2903212E-011  0.5052887E+02  0.7816164E-02  0.1300439E+00
        -11   -1    0    0    0    0  0.00000000000E+00  0.00000000000E+00  0.45593999997E+02  0.45594000000E+02  0.51100000000E-03 0. -1.
         11   -1    0    0    0    0 -0.00000000000E+00 -0.00000000000E+00 -0.45593999997E+02  0.45594000000E+02  0.51100000000E-03 0.  1.
    9900012    2    1    2    0    0 -0.73349254689E+00  0.39918041544E+02  0.76926260982E+01  0.50528873739E+02  0.30000042217E+02 0.  0.
        -12    1    1    2    0    0  0.73349254689E+00 -0.39918041544E+02 -0.76926260982E+01  0.40659126261E+02  0.00000000000E+00 0.  1.
         11    1    3    3    0    0  0.45666344652E+01  0.16597909878E+02  0.60187454443E+01  0.18236503493E+02  0.51100000000E-03 0. -1.
        -11    1    3    3    0    0  0.75235255290E+01  0.15477718390E+02  0.53580800977E+00  0.17217731948E+02  0.51100000000E-03 0.  1.
        -12    1    3    3    0    0 -0.12823652541E+02  0.78424132755E+01  0.11380726442E+01  0.15074638298E+02  0.00000000000E+00 0.  1.
</event>
<event>
 7    1  0.2903212E-011  0.5052886E+02  0.7816164E-02  0.1300439E+00
        -11   -1    0    0    0    0  0.00000000000E+00  0.00000000000E+00  0.45593999997E+02  0.45594000000E+02  0.51100000000E-03 0.  1.
         11   -1    0    0    0    0 -0.00000000000E+00 -0.00000000000E+00 -0.45593999997E+02  0.45594000000E+02  0.51100000000E-03 0. -1.
    9900012    2    1    2    0    0 -0.15292585125E+02  0.31877917562E+02  0.20077364019E+02  0.50528864079E+02  0.30000012855E+02 0.  0.
        -12    1    1    2    0    0  0.15292585125E+02 -0.31877917562E+02 -0.20077364019E+02  0.40659135921E+02  0.00000000000E+00 0.  1.
         11    1    3    3    0    0  0.36910734096E+01 -0.90517981367E+00 -0.97496939190E-01  0.38016942702E+01  0.51100000000E-03 0. -1.
        -11    1    3    3    0    0 -0.10552791338E+01 -0.24009428944E+01  0.17412446196E+01  0.31480269882E+01  0.51100000000E-03 0.  1.
         12    1    3    3    0    0 -0.17928379401E+02  0.35184040270E+02  0.18433616339E+02  0.43579142821E+02  0.00000000000E+00 0. -1.
</event>
<event>
 7    1  0.2903212E-011  0.5052886E+02  0.7816164E-02  0.1300439E+00
        -11   -1    0    0    0    0  0.00000000000E+00  0.00000000000E+00  0.45593999997E+02  0.45594000000E+02  0.51100000000E-03 0. -1.
         11   -1    0    0    0    0 -0.00000000000E+00 -0.00000000000E+00 -0.45593999997E+02  0.45594000000E+02  0.51100000000E-03 0.  1.
    9900012    2    1    2    0    0  0.54598212905E-01 -0.40124269701E+02 -0.65731132852E+01  0.50528858122E+02  0.29999994748E+02 0.  0.
        -12    1    1    2    0    0 -0.54598212905E-01  0.40124269701E+02  0.65731132852E+01  0.40659141878E+02  0.00000000000E+00 0.  1.
         11    1    3    3    0    0 -0.26330628680E+01 -0.25885459874E+01 -0.57913375048E+00  0.37375107435E+01  0.51100000000E-03 0. -1.
        -11    1    3    3    0    0 -0.13722557951E+01 -0.15986478887E+02  0.10653242069E+02  0.19259858774E+02  0.51100000000E-03 0.  1.
        -12    1    3    3    0    0  0.40599168760E+01 -0.21549244827E+02 -0.16647221604E+02  0.27531488604E+02  0.00000000000E+00 0.  1.
</event>
<event>
 7    1  0.2903212E-011  0.5052885E+02  0.7816164E-02  0.1300439E+00
        -11   -1    0    0    0    0  0.00000000000E+00  0.00000000000E+00  0.45593999997E+02  0.45594000000E+02  0.51100000000E-03 0.  1.
         11   -1    0    0    0    0 -0.00000000000E+00 -0.00000000000E+00 -0.45593999997E+02  0.45594000000E+02  0.51100000000E-03 0. -1.
    9900012    2    1    2    0    0  0.39207433703E+02 -0.23137721892E+01  0.10516168936E+02  0.50528853324E+02  0.29999980164E+02 0.  0.
        -12    1    1    2    0    0 -0.39207433703E+02  0.23137721892E+01 -0.10516168936E+02  0.40659146676E+02  0.00000000000E+00 0.  1.
         11    1    3    3    0    0  0.17235105004E+02 -0.94772039207E+01  0.10497889737E+02  0.22295109953E+02  0.51100000000E-03 0. -1.
        -11    1    3    3    0    0  0.12725283910E+02  0.75352756711E+01  0.72673557093E+01  0.16478097260E+02  0.51100000000E-03 0.  1.
         12    1    3    3    0    0  0.92470447892E+01 -0.37184393957E+00 -0.72490765094E+01  0.11755646111E+02  0.00000000000E+00 0. -1.
</event>
<event>
 7    1  0.2903212E-011  0.5052886E+02  0.7816164E-02  0.1300439E+00
        -11   -1    0    0    0    0  0.00000000000E+00  0.00000000000E+00  0.45593999997E+02  0.45594000000E+02  0.51100000000E-03 0. -1.
         11   -1    0    0    0    0 -0.00000000000E+00 -0.00000000000E+00 -0.45593999997E+02  0.45594000000E+02  0.51100000000E-03 0.  1.
    9900012    2    1    2    0    0  0.37060415139E+02  0.16673531639E+02 -0.12979481739E+01  0.50528859612E+02  0.29999999278E+02 0.  0.
        -12    1    1    2    0    0 -0.37060415139E+02 -0.16673531639E+02  0.12979481739E+01  0.40659140388E+02  0.00000000000E+00 0.  1.
         11    1    3    3    0    0  0.21813269291E+02 -0.41956824228E+00 -0.97633167684E+00  0.21839138684E+02  0.51100000000E-03 0. -1.
        -11    1    3    3    0    0 -0.22185433940E+01 -0.56221510914E+00 -0.29306008444E+01  0.37183924202E+01  0.51100000000E-03 0.  1.
         12    1    3    3    0    0  0.17465689242E+02  0.17655314991E+02  0.26089843474E+01  0.24971328508E+02  0.00000000000E+00 0. -1.
</event>
<event>
 7    1  0.2903212E-011  0.5052888E+02  0.7816164E-02  0.1300439E+00
        -11   -1    0    0    0    0  0.00000000000E+00  0.00000000000E+00  0.45593999997E+02  0.45594000000E+02  0.51100000000E-03 0.  1.
         11   -1    0    0    0    0 -0.00000000000E+00 -0.00000000000E+00 -0.45593999997E+02  0.45594000000E+02  0.51100000000E-03 0. -1.
    9900012    2    1    2    0    0 -0.17347938786E+02  0.19909645999E+02 -0.30916328848E+02  0.50528875891E+02  0.30000048757E+02 0.  0.
        -12    1    1    2    0    0  0.17347938786E+02 -0.19909645999E+02  0.30916328848E+02  0.40659124109E+02  0.00000000000E+00 0.  1.
         11    1    3    3    0    0 -0.65694599788E+01  0.54933269540E+01  0.29581827739E+01  0.90600933229E+01  0.51100000000E-03 0. -1.
        -11    1    3    3    0    0  0.24141591096E+00  0.21280603843E+01  0.13757586907E+01  0.25455126944E+01  0.51100000000E-03 0.  1.
        -12    1    3    3    0    0 -0.11019894718E+02  0.12288258660E+02 -0.35250270313E+02  0.38923269873E+02  0.00000000000E+00 0.  1.
</event>
<event>
 7    1  0.2903212E-011  0.5052886E+02  0.7816164E-02  0.1300439E+00
        -11   -1    0    0    0    0  0.00000000000E+00  0.00000000000E+00  0.45593999997E+02  0.45594000000E+02  0.51100000000E-03 0.  1.
         11   -1    0    0    0    0 -0.00000000000E+00 -0.00000000000E+00 -0.45593999997E+02  0.45594000000E+02  0.51100000000E-03 0. -1.
    9900012    2    1    2    0    0  0.29028035758E+02  0.26517730751E+02 -0.10360939156E+02  0.50528856326E+02  0.29999989287E+02 0.  0.
        -12    1    1    2    0    0 -0.29028035758E+02 -0.26517730751E+02  0.10360939156E+02  0.40659143674E+02  0.00000000000E+00 0.  1.
         11    1    3    3    0    0  0.53929952679E+01 -0.12907281322E+00 -0.52395894629E+01  0.75202630108E+01  0.51100000000E-03 0. -1.
        -11    1    3    3    0    0 -0.31011666502E+01 -0.16319849512E+01 -0.18286173116E+01  0.39527776318E+01  0.51100000000E-03 0.  1.
        -12    1    3    3    0    0  0.26736207140E+02  0.28278788515E+02 -0.32927323815E+01  0.39055815683E+02  0.00000000000E+00 0.  1.
</event>
<event>
 7    1  0.2903212E-011  0.5052886E+02  0.7816164E-02  0.1300439E+00
        -11   -1    0    0    0    0  0.00000000000E+00  0.00000000000E+00  0.45593999997E+02  0.45594000000E+02  0.51100000000E-03 0. -1.
         11   -1    0    0    0    0 -0.00000000000E+00 -0.00000000000E+00 -0.45593999997E+02  0.45594000000E+02  0.51100000000E-03 0.  1.
    9900012    2    1    2    0    0  0.30089849228E+02  0.16864829915E+02  0.21525427965E+02  0.50528861252E+02  0.30000004263E+02 0.  0.
        -12    1    1    2    0    0 -0.30089849228E+02 -0.16864829915E+02 -0.21525427965E+02  0.40659138748E+02  0.00000000000E+00 0.  1.
         11    1    3    3    0    0  0.16707810894E+02  0.47222519040E+01  0.78539278934E+01  0.19056095915E+02  0.51100000000E-03 0. -1.
        -11    1    3    3    0    0  0.95867098912E+01  0.15367617966E+02  0.13267638012E+01  0.18161194645E+02  0.51100000000E-03 0.  1.
        -12    1    3    3    0    0  0.37953284428E+01 -0.32250399553E+01  0.12344736271E+02  0.13311570692E+02  0.00000000000E+00 0.  1.
</event>
<event>
 7    1  0.2903212E-011  0.5052883E+02  0.7816164E-02  0.1300439E+00
        -11   -1    0    0    0    0  0.00000000000E+00  0.00000000000E+00  0.45593999997E+02  0.45594000000E+02  0.51100000000E-03 0.  1.
         11   -1    0    0    0    0 -0.00000000000E+00 -0.00000000000E+00 -0.45593999997E+02  0.45594000000E+02  0.51100000000E-03 0. -1.
    9900012    2    1    2    0    0 -0.36579564337E+02  0.58979656461E+01 -0.16742680407E+02  0.50528832853E+02  0.29999917941E+02 0.  0.
        -12    1    1    2    0    0  0.36579564337E+02 -0.58979656461E+01  0.16742680407E+02  0.40659167147E+02  0.00000000000E+00 0.  1.
         11    1    3    3    0    0  0.21915722723E+01  0.44625357703E+01  0.23925267615E+00  0.49773945624E+01  0.51100000000E-03 0. -1.
        -11    1    3    3    0    0  0.65242397406E+00  0.14784362830E+01  0.13201513076E+01  0.20866793287E+01  0.51100000000E-03 0.  1.
        -12    1    3    3    0    0 -0.39423560583E+02 -0.43006407194E-01 -0.18302084390E+02  0.43464758962E+02  0.00000000000E+00 0.  1.
</event>
<event>
 7    1  0.3152407E-011  0.5052886E+02  0.7816164E-02  0.1300439E+00
        -11   -1    0    0    0    0  0.00000000000E+00  0.00000000000E+00  0.45593999997E+02  0.45594000000E+02  0.51100000000E-03 0.  1.
         11   -1    0    0    0    0 -0.00000000000E+00 -0.00000000000E+00 -0.45593999997E+02  0.45594000000E+02  0.51100000000E-03 0. -1.
    9900012    2    1    2    0    0  0.91050377374E+01  0.37737075325E+02  0.12090381338E+02  0.50528857275E+02  0.29999992172E+02 0.  0.
        -12    1    1    2    0    0 -0.91050377374E+01 -0.37737075325E+02 -0.12090381338E+02  0.40659142725E+02  0.00000000000E+00 0.  1.
         11    1    3    3    0    0  0.80474469879E+01  0.20357966255E+01  0.68822303580E+00  0.83294370838E+01  0.51100000000E-03 0. -1.
        -11    1    3    3    0    0  0.87257316822E-01  0.66715964040E+00  0.68205626579E+01  0.68536698970E+01  0.51100000000E-03 0.  1.
         12    1    3    3    0    0  0.97033343262E+00  0.35034119059E+02  0.45815956445E+01  0.35345750294E+02  0.00000000000E+00 0. -1.
</event>
<event>
 7    1  0.2903212E-011  0.5052885E+02  0.7816164E-02  0.1300439E+00
        -11   -1    0    0    0    0  0.00000000000E+00  0.00000000000E+00  0.45593999997E+02  0.45594000000E+02  0.51100000000E-03 0.  1.
         11   -1    0    0    0    0 -0.00000000000E+00 -0.00000000000E+00 -0.45593999997E+02  0.45594000000E+02  0.51100000000E-03 0. -1.
    9900012    2    1    2    0    0 -0.17333973179E+02 -0.34172685266E+02 -0.13598817412E+02  0.50528845072E+02  0.29999955080E+02 0.  0.
        -12    1    1    2    0    0  0.17333973179E+02  0.34172685266E+02  0.13598817412E+02  0.40659154928E+02  0.00000000000E+00 0.  1.
         11    1    3    3    0    0 -0.49193468937E+01 -0.12501796227E+01 -0.31338855938E+00  0.50853845086E+01  0.51100000000E-03 0. -1.
        -11    1    3    3    0    0 -0.44861253658E+01  0.37917854632E+01 -0.12901117570E+01  0.60139293647E+01  0.51100000000E-03 0.  1.
         12    1    3    3    0    0 -0.79285009191E+01 -0.36714291107E+02 -0.11995317096E+02  0.39429531198E+02  0.00000000000E+00 0. -1.
</event>
<event>
 7    1  0.2903212E-011  0.5052886E+02  0.7816164E-02  0.1300439E+00
        -11   -1    0    0    0    0  0.00000000000E+00  0.00000000000E+00  0.45593999997E+02  0.45594000000E+02  0.51100000000E-03 0.  1.
         11   -1    0    0    0    0 -0.00000000000E+00 -0.00000000000E+00 -0.45593999997E+02  0.45594000000E+02  0.51100000000E-03 0. -1.
    9900012    2    1    2    0    0  0.22222931348E+02  0.11873847683E+02 -0.31911108258E+02  0.50528858756E+02  0.29999996674E+02 0.  0.
        -12    1    1    2    0    0 -0.22222931348E+02 -0.11873847683E+02  0.31911108258E+02  0.40659141244E+02  0.00000000000E+00 0.  1.
         11    1    3    3    0    0  0.35424197771E+01 -0.13163234437E+01  0.30497977342E+01  0.48562034313E+01  0.51100000000E-03 0. -1.
        -11    1    3    3    0    0 -0.10509831337E+01 -0.27701006638E+01 -0.71434504819E+00  0.30476732672E+01  0.51100000000E-03 0.  1.
         12    1    3    3    0    0  0.19731494705E+02  0.15960271790E+02 -0.34246560944E+02  0.42624982057E+02  0.00000000000E+00 0. -1.
</event>
<event>
 7    1  0.2903212E-011  0.5052886E+02  0.7816164E-02  0.1300439E+00
        -11   -1    0    0    0    0  0.00000000000E+00  0.00000000000E+00  0.45593999997E+02  0.45594000000E+02  0.51100000000E-03 0.  1.
         11   -1    0    0    0    0 -0.00000000000E+00 -0.00000000000E+00 -0.45593999997E+02  0.45594000000E+02  0.51100000000E-03 0. -1.
    9900012    2    1    2    0    0 -0.18491265855E+02 -0.19318074296E+02 -0.30627612465E+02  0.50528861387E+02  0.30000004673E+02 0.  0.
        -12    1    1    2    0    0  0.18491265855E+02  0.19318074296E+02  0.30627612465E+02  0.40659138613E+02  0.00000000000E+00 0.  1.
         11    1    3    3    0    0 -0.93006072346E+01 -0.10649917230E+02 -0.12790115113E+02  0.19065914004E+02  0.51100000000E-03 0. -1.
        -11    1    3    3    0    0 -0.11849719857E+02  0.64112270721E+00 -0.83397933381E+00  0.11896319633E+02  0.51100000000E-03 0.  1.
         12    1    3    3    0    0  0.26590612365E+01 -0.93092797727E+01 -0.17003518018E+02  0.19566627751E+02  0.00000000000E+00 0. -1.
</event>
<event>
 7    1  0.2903212E-011  0.5052886E+02  0.7816164E-02  0.1300439E+00
        -11   -1    0    0    0    0  0.00000000000E+00  0.00000000000E+00  0.45593999997E+02  0.45594000000E+02  0.51100000000E-03 0.  1.
         11   -1    0    0    0    0 -0.00000000000E+00 -0.00000000000E+00 -0.45593999997E+02  0.45594000000E+02  0.51100000000E-03 0. -1.
    9900012    2    1    2    0    0 -0.15682565268E+02  0.97454747437E+01 -0.36224974163E+02  0.50528857308E+02  0.29999992272E+02 0.  0.
        -12    1    1    2    0    0  0.15682565268E+02 -0.97454747437E+01  0.36224974163E+02  0.40659142692E+02  0.00000000000E+00 0.  1.
         11    1    3    3    0    0 -0.13094165734E+02  0.44129774840E+01 -0.24120911237E+02  0.27798379552E+02  0.51100000000E-03 0. -1.
        -11    1    3    3    0    0 -0.25440997865E+01  0.49609767530E+01 -0.16963732541E+02  0.17856426184E+02  0.51100000000E-03 0.  1.
         12    1    3    3    0    0 -0.44299747199E-01  0.37152050672E+00  0.48596696152E+01  0.48740515717E+01  0.00000000000E+00 0. -1.
</event>
<event>
 7    1  0.2903212E-011  0.5052886E+02  0.7816164E-02  0.1300439E+00
        -11   -1    0    0    0    0  0.00000000000E+00  0.00000000000E+00  0.45593999997E+02  0.45594000000E+02  0.51100000000E-03 0.  1.
         11   -1    0    0    0    0 -0.00000000000E+00 -0.00000000000E+00 -0.45593999997E+02  0.45594000000E+02  0.51100000000E-03 0. -1.
    9900012    2    1    2    0    0  0.94827865395E+01  0.10917348637E+02 -0.38000709702E+02  0.50528859827E+02  0.29999999929E+02 0.  0.
        -12    1    1    2    0    0 -0.94827865395E+01 -0.10917348637E+02  0.38000709702E+02  0.40659140173E+02  0.00000000000E+00 0.  1.
         11    1    3    3    0    0 -0.45065377948E+01 -0.72346095329E+01 -0.15880807058E+02  0.18023553785E+02  0.51100000000E-03 0. -1.
        -11    1    3    3    0    0  0.49535926093E+01  0.11210375374E+02 -0.13381957336E+02  0.18146277254E+02  0.51100000000E-03 0.  1.
        -12    1    3    3    0    0  0.90357317250E+01  0.69415827953E+01 -0.87379453075E+01  0.14359028787E+02  0.00000000000E+00 0.  1.
</event>
<event>
 7    1  0.2903212E-011  0.5052883E+02  0.7816164E-02  0.1300439E+00
        -11   -1    0    0    0    0  0.00000000000E+00  0.00000000000E+00  0.45593999997E+02  0.45594000000E+02  0.51100000000E-03 0.  1.
         11   -1    0    0    0    0 -0.00000000000E+00 -0.00000000000E+00 -0.45593999997E+02  0.45594000000E+02  0.51100000000E-03 0. -1.
    9900012    2    1    2    0    0 -0.84649912678E+01  0.39714860727E+02  0.20594997090E+01  0.50528834013E+02  0.29999921465E+02 0.  0.
        -12    1    1    2    0    0  0.84649912678E+01 -0.39714860727E+02 -0.20594997090E+01  0.40659165987E+02  0.00000000000E+00 0.  1.
         11    1    3    3    0    0 -0.32894118306E+01  0.30567592949E+01 -0.25946507056E+01  0.51861565849E+01  0.51100000000E-03 0. -1.
        -11    1    3    3    0    0 -0.80863630623E+01  0.65461190360E+01 -0.74106017287E+01  0.12773330038E+02  0.51100000000E-03 0.  1.
         12    1    3    3    0    0  0.29107836251E+01  0.30111982396E+02  0.12064752143E+02  0.32569347390E+02  0.00000000000E+00 0. -1.
</event>
<event>
 7    1  0.2903212E-011  0.5052886E+02  0.7816164E-02  0.1300439E+00
        -11   -1    0    0    0    0  0.00000000000E+00  0.00000000000E+00  0.45593999997E+02  0.45594000000E+02  0.51100000000E-03 0.  1.
         11   -1    0    0    0    0 -0.00000000000E+00 -0.00000000000E+00 -0.45593999997E+02  0.45594000000E+02  0.51100000000E-03 0. -1.
    9900012    2    1    2    0    0  0.32070769152E+02  0.24210932111E+02 -0.62017856642E+01  0.50528860644E+02  0.30000002414E+02 0.  0.
        -12    1    1    2    0    0 -0.32070769152E+02 -0.24210932111E+02  0.62017856642E+01  0.40659139356E+02  0.00000000000E+00 0.  1.
         11    1    3    3    0    0  0.23719928686E+02  0.17871307482E+02 -0.12445676161E+01  0.29724864958E+02  0.51100000000E-03 0. -1.
        -11    1    3    3    0    0  0.66038834002E+01 -0.52331015290E+01 -0.11946026208E+01  0.85102117047E+01  0.51100000000E-03 0.  1.
         12    1    3    3    0    0  0.17469570664E+01  0.11572726158E+02 -0.37626154274E+01  0.12293783981E+02  0.00000000000E+00 0. -1.
</event>
<event>
 7    1  0.2903212E-011  0.5052885E+02  0.7816164E-02  0.1300439E+00
        -11   -1    0    0    0    0  0.00000000000E+00  0.00000000000E+00  0.45593999997E+02  0.45594000000E+02  0.51100000000E-03 0. -1.
         11   -1    0    0    0    0 -0.00000000000E+00 -0.00000000000E+00 -0.45593999997E+02  0.45594000000E+02  0.51100000000E-03 0.  1.
    9900012    2    1    2    0    0 -0.64573214877E+01 -0.39563015477E+02  0.67997869599E+01  0.50528852233E+02  0.29999976847E+02 0.  0.
        -12    1    1    2    0    0  0.64573214877E+01  0.39563015477E+02 -0.67997869599E+01  0.40659147767E+02  0.00000000000E+00 0.  1.
         11    1    3    3    0    0  0.34129722225E+01 -0.20875108591E+02  0.77194828672E+00  0.21166351657E+02  0.51100000000E-03 0. -1.
        -11    1    3    3    0    0  0.28413305035E+00 -0.10747521480E+02 -0.54936933193E+01  0.12073550269E+02  0.51100000000E-03 0.  1.
         12    1    3    3    0    0 -0.10154426761E+02 -0.79403854066E+01  0.11521531992E+02  0.17288950306E+02  0.00000000000E+00 0. -1.
</event>
<event>
 7    1  0.2903212E-011  0.5052887E+02  0.7816164E-02  0.1300439E+00
        -11   -1    0    0    0    0  0.00000000000E+00  0.00000000000E+00  0.45593999997E+02  0.45594000000E+02  0.51100000000E-03 0.  1.
         11   -1    0    0    0    0 -0.00000000000E+00 -0.00000000000E+00 -0.45593999997E+02  0.45594000000E+02  0.51100000000E-03 0. -1.
    9900012    2    1    2    0    0  0.17672977742E+02 -0.15214709099E+02 -0.33306805617E+02  0.50528870452E+02  0.30000032225E+02 0.  0.
        -12    1    1    2    0    0 -0.17672977742E+02  0.15214709099E+02  0.33306805617E+02  0.40659129548E+02  0.00000000000E+00 0.  1.
         11    1    3    3    0    0  0.11461813720E+02 -0.14881677472E+01 -0.11438929472E+02  0.16261516679E+02  0.51100000000E-03 0. -1.
        -11    1    3    3    0    0 -0.68545740537E+01 -0.74081333911E+01 -0.15318940857E+02  0.18344905969E+02  0.51100000000E-03 0.  1.
         12    1    3    3    0    0  0.13065738076E+02 -0.63184079603E+01 -0.65489352885E+01  0.15922447803E+02  0.00000000000E+00 0. -1.
</event>
<event>
 7    1  0.2903212E-011  0.5052885E+02  0.7816164E-02  0.1300439E+00
        -11   -1    0    0    0    0  0.00000000000E+00  0.00000000000E+00  0.45593999997E+02  0.45594000000E+02  0.51100000000E-03 0. -1.
         11   -1    0    0    0    0 -0.00000000000E+00 -0.00000000000E+00 -0.45593999997E+02  0.45594000000E+02  0.51100000000E-03 0.  1.
    9900012    2    1    2    0    0  0.18852363728E+02 -0.27542443009E+02  0.23220000796E+02  0.50528853157E+02  0.29999979657E+02 0.  0.
        -12    1    1    2    0    0 -0.18852363728E+02  0.27542443009E+02 -0.23220000796E+02  0.40659146843E+02  0.00000000000E+00 0.  1.
         11    1    3    3    0    0  0.49516263524E+01 -0.50191294978E+01  0.59188802160E+01  0.92056182695E+01  0.51100000000E-03 0. -1.
        -11    1    3    3    0    0  0.14934619751E+02 -0.15298096811E+02 -0.12217722714E+01  0.21414185973E+02  0.51100000000E-03 0.  1.
         12    1    3    3    0    0 -0.10338823751E+01 -0.72252166994E+01  0.18522892851E+02  0.19909048915E+02  0.00000000000E+00 0. -1.
</event>
<event>
 7    1  0.2903212E-011  0.5052886E+02  0.7816164E-02  0.1300439E+00
        -11   -1    0    0    0    0  0.00000000000E+00  0.00000000000E+00  0.45593999997E+02  0.45594000000E+02  0.51100000000E-03 0.  1.
         11   -1    0    0    0    0 -0.00000000000E+00 -0.00000000000E+00 -0.45593999997E+02  0.45594000000E+02  0.51100000000E-03 0. -1.
    9900012    2    1    2    0    0  0.21378924677E+02 -0.22271517936E+02 -0.26459157311E+02  0.50528856661E+02  0.29999990306E+02 0.  0.
        -12    1    1    2    0    0 -0.21378924677E+02  0.22271517936E+02  0.26459157311E+02  0.40659143339E+02  0.00000000000E+00 0.  1.
         11    1    3    3    0    0  0.84909739830E+01 -0.23829061835E+00  0.29440983551E+01  0.89900576742E+01  0.51100000000E-03 0. -1.
        -11    1    3    3    0    0  0.35637132399E+01  0.85981071600E+00 -0.83325735494E+00  0.37594739797E+01  0.51100000000E-03 0.  1.
         12    1    3    3    0    0  0.93242374539E+01 -0.22893038033E+02 -0.28569998311E+02  0.37779325007E+02  0.00000000000E+00 0. -1.
</event>
<event>
 7    1  0.2903212E-011  0.5052885E+02  0.7816164E-02  0.1300439E+00
        -11   -1    0    0    0    0  0.00000000000E+00  0.00000000000E+00  0.45593999997E+02  0.45594000000E+02  0.51100000000E-03 0. -1.
         11   -1    0    0    0    0 -0.00000000000E+00 -0.00000000000E+00 -0.45593999997E+02  0.45594000000E+02  0.51100000000E-03 0.  1.
    9900012    2    1    2    0    0  0.15191525378E+02  0.91264139293E+01  0.36593611776E+02  0.50528852231E+02  0.29999976841E+02 0.  0.
        -12    1    1    2    0    0 -0.15191525378E+02 -0.91264139293E+01 -0.36593611776E+02  0.40659147769E+02  0.00000000000E+00 0.  1.
         11    1    3    3    0    0  0.20932073261E+01  0.52063660242E+01  0.11243521307E+02  0.12566007152E+02  0.51100000000E-03 0. -1.
        -11    1    3    3    0    0 -0.43745199860E+01  0.22294576087E+01  0.18464752500E+02  0.19106386144E+02  0.51100000000E-03 0.  1.
         12    1    3    3    0    0  0.17472838037E+02  0.16905902963E+01  0.68853379689E+01  0.18856458935E+02  0.00000000000E+00 0. -1.
</event>
<event>
 7    1  0.2903212E-011  0.5052884E+02  0.7816164E-02  0.1300439E+00
        -11   -1    0    0    0    0  0.00000000000E+00  0.00000000000E+00  0.45593999997E+02  0.45594000000E+02  0.51100000000E-03 0.  1.
         11   -1    0    0    0    0 -0.00000000000E+00 -0.00000000000E+00 -0.45593999997E+02  0.45594000000E+02  0.51100000000E-03 0. -1.
    9900012    2    1    2    0    0  0.35145856407E+02 -0.20428613414E+02  0.77980585295E+00  0.50528836632E+02  0.29999929427E+02 0.  0.
        -12    1    1    2    0    0 -0.35145856407E+02  0.20428613414E+02 -0.77980585295E+00  0.40659163368E+02  0.00000000000E+00 0.  1.
         11    1    3    3    0    0  0.18402230540E+01 -0.10249056595E+02  0.55313323404E+01  0.11790895627E+02  0.51100000000E-03 0. -1.
        -11    1    3    3    0    0  0.28533847051E+01  0.39515693664E+01 -0.63244731977E+00  0.49149460430E+01  0.51100000000E-03 0.  1.
         12    1    3    3    0    0  0.30452248648E+02 -0.14131126186E+02 -0.41190791677E+01  0.33822994962E+02  0.00000000000E+00 0. -1.
</event>
<event>
 7    1  0.2903212E-011  0.5052886E+02  0.7816164E-02  0.1300439E+00
        -11   -1    0    0    0    0  0.00000000000E+00  0.00000000000E+00  0.45593999997E+02  0.45594000000E+02  0.51100000000E-03 0. -1.
         11   -1    0    0    0    0 -0.00000000000E+00 -0.00000000000E+00 -0.45593999997E+02  0.45594000000E+02  0.51100000000E-03 0.  1.
    9900012    2    1    2    0    0 -0.28200691029E+02 -0.29068047406E+02 -0.35965680769E+01  0.50528860111E+02  0.30000000795E+02 0.  0.
        -12    1    1    2    0    0  0.28200691029E+02  0.29068047406E+02  0.35965680769E+01  0.40659139889E+02  0.00000000000E+00 0.  1.
         11    1    3    3    0    0 -0.14257124255E+02 -0.26737186490E+02 -0.64145819186E+00  0.30307659136E+02  0.51100000000E-03 0. -1.
        -11    1    3    3    0    0 -0.19805989958E+01 -0.66897365058E+01 -0.27155081261E+01  0.74866101503E+01  0.51100000000E-03 0.  1.
         12    1    3    3    0    0 -0.11962967779E+02  0.43588755895E+01 -0.23960175890E+00  0.12734590825E+02  0.00000000000E+00 0. -1.
</event>
<event>
 7    1  0.2903212E-011  0.5052889E+02  0.7816164E-02  0.1300439E+00
        -11   -1    0    0    0    0  0.00000000000E+00  0.00000000000E+00  0.45593999997E+02  0.45594000000E+02  0.51100000000E-03 0. -1.
         11   -1    0    0    0    0 -0.00000000000E+00 -0.00000000000E+00 -0.45593999997E+02  0.45594000000E+02  0.51100000000E-03 0.  1.
    9900012    2    1    2    0    0 -0.26711669906E+02 -0.27953472332E+02  0.12579876344E+02  0.50528890155E+02  0.30000092114E+02 0.  0.
        -12    1    1    2    0    0  0.26711669906E+02  0.27953472332E+02 -0.12579876344E+02  0.40659109845E+02  0.00000000000E+00 0.  1.
         11    1    3    3    0    0 -0.21525934977E+01 -0.40840948247E+00 -0.45078863718E+01  0.50121349616E+01  0.51100000000E-03 0. -1.
        -11    1    3    3    0    0 -0.13660332883E+01 -0.12181490519E+01 -0.41277057089E+01  0.45152949780E+01  0.51100000000E-03 0.  1.
         12    1    3    3    0    0 -0.23193043120E+02 -0.26326913798E+02  0.21215468425E+02  0.41001460215E+02  0.00000000000E+00 0. -1.
</event>
<event>
 7    1  0.2903212E-011  0.5052885E+02  0.7816164E-02  0.1300439E+00
        -11   -1    0    0    0    0  0.00000000000E+00  0.00000000000E+00  0.45593999997E+02  0.45594000000E+02  0.51100000000E-03 0. -1.
         11   -1    0    0    0    0 -0.00000000000E+00 -0.00000000000E+00 -0.45593999997E+02  0.45594000000E+02  0.51100000000E-03 0.  1.
    9900012    2    1    2    0    0  0.25734117451E+02  0.21034524328E+02  0.23419438048E+02  0.50528854741E+02  0.29999984472E+02 0.  0.
        -12    1    1    2    0    0 -0.25734117451E+02 -0.21034524328E+02 -0.23419438048E+02  0.40659145259E+02  0.00000000000E+00 0.  1.
         11    1    3    3    0    0  0.52080484827E+01 -0.20753678911E+01  0.15927334233E+02  0.16885227180E+02  0.51100000000E-03 0. -1.
        -11    1    3    3    0    0  0.52024539373E+01  0.43930005462E+01  0.65310635661E+01  0.94349760113E+01  0.51100000000E-03 0.  1.
        -12    1    3    3    0    0  0.15323615031E+02  0.18716891673E+02  0.96104024843E+00  0.24208651550E+02  0.00000000000E+00 0.  1.
</event>
<event>
 7    1  0.2903212E-011  0.5052886E+02  0.7816164E-02  0.1300439E+00
        -11   -1    0    0    0    0  0.00000000000E+00  0.00000000000E+00  0.45593999997E+02  0.45594000000E+02  0.51100000000E-03 0.  1.
         11   -1    0    0    0    0 -0.00000000000E+00 -0.00000000000E+00 -0.45593999997E+02  0.45594000000E+02  0.51100000000E-03 0. -1.
    9900012    2    1    2    0    0  0.24068982373E+02 -0.26494421280E+02 -0.19284593825E+02  0.50528857972E+02  0.29999994291E+02 0.  0.
        -12    1    1    2    0    0 -0.24068982373E+02  0.26494421280E+02  0.19284593825E+02  0.40659142028E+02  0.00000000000E+00 0.  1.
         11    1    3    3    0    0  0.56785125196E+01 -0.43434058922E+01 -0.11389537249E+02  0.13447387783E+02  0.51100000000E-03 0. -1.
        -11    1    3    3    0    0  0.28898048293E+01 -0.12652667151E+02  0.59039013254E+01  0.14258226016E+02  0.51100000000E-03 0.  1.
         12    1    3    3    0    0  0.15500665025E+02 -0.94983482366E+01 -0.13798957902E+02  0.22823244174E+02  0.00000000000E+00 0. -1.
</event>
<event>
 7    1  0.2903212E-011  0.5052888E+02  0.7816164E-02  0.1300439E+00
        -11   -1    0    0    0    0  0.00000000000E+00  0.00000000000E+00  0.45593999997E+02  0.45594000000E+02  0.51100000000E-03 0.  1.
         11   -1    0    0    0    0 -0.00000000000E+00 -0.00000000000E+00 -0.45593999997E+02  0.45594000000E+02  0.51100000000E-03 0. -1.
    9900012    2    1    2    0    0 -0.66955280888E+01  0.22664231880E+01 -0.40039943696E+02  0.50528882183E+02  0.30000067885E+02 0.  0.
        -12    1    1    2    0    0  0.66955280888E+01 -0.22664231880E+01  0.40039943696E+02  0.40659117817E+02  0.00000000000E+00 0.  1.
         11    1    3    3    0    0  0.39448400283E+01 -0.15281161525E+01 -0.18904464581E+01  0.46336475801E+01  0.51100000000E-03 0. -1.
        -11    1    3    3    0    0  0.36378007814E+01  0.47903618078E+01 -0.10179014080E+01  0.61005970456E+01  0.51100000000E-03 0.  1.
        -12    1    3    3    0    0 -0.14278168899E+02 -0.99582246723E+00 -0.37131595830E+02  0.39794637558E+02  0.00000000000E+00 0.  1.
</event>
<event>
 7    1  0.2903212E-011  0.5052887E+02  0.7816164E-02  0.1300439E+00
        -11   -1    0    0    0    0  0.00000000000E+00  0.00000000000E+00  0.45593999997E+02  0.45594000000E+02  0.51100000000E-03 0.  1.
         11   -1    0    0    0    0 -0.00000000000E+00 -0.00000000000E+00 -0.45593999997E+02  0.45594000000E+02  0.51100000000E-03 0. -1.
    9900012    2    1    2    0    0  0.21830931489E+02 -0.15274740925E+02 -0.30712497715E+02  0.50528870694E+02  0.30000032963E+02 0.  0.
        -12    1    1    2    0    0 -0.21830931489E+02  0.15274740925E+02  0.30712497715E+02  0.40659129306E+02  0.00000000000E+00 0.  1.
         11    1    3    3    0    0  0.12072984976E+02 -0.20285522818E+02 -0.15744307400E+02  0.28375035119E+02  0.51100000000E-03 0. -1.
        -11    1    3    3    0    0  0.21272541238E+01 -0.38653565249E+01 -0.25830707736E+01  0.51125772419E+01  0.51100000000E-03 0.  1.
        -12    1    3    3    0    0  0.76306923889E+01  0.88761384177E+01 -0.12385119542E+02  0.17041258334E+02  0.00000000000E+00 0.  1.
</event>
<event>
 7    1  0.2903212E-011  0.5052886E+02  0.7816164E-02  0.1300439E+00
        -11   -1    0    0    0    0  0.00000000000E+00  0.00000000000E+00  0.45593999997E+02  0.45594000000E+02  0.51100000000E-03 0.  1.
         11   -1    0    0    0    0 -0.00000000000E+00 -0.00000000000E+00 -0.45593999997E+02  0.45594000000E+02  0.51100000000E-03 0. -1.
    9900012    2    1    2    0    0 -0.20398339285E+02 -0.16195428680E+02 -0.31221490853E+02  0.50528860230E+02  0.30000001155E+02 0.  0.
        -12    1    1    2    0    0  0.20398339285E+02  0.16195428680E+02  0.31221490853E+02  0.40659139770E+02  0.00000000000E+00 0.  1.
         11    1    3    3    0    0 -0.74145496825E+01 -0.25894354790E+01  0.30551421034E+00  0.78596477204E+01  0.51100000000E-03 0. -1.
        -11    1    3    3    0    0  0.35089606299E+01  0.14130775918E+01 -0.13406947140E+02  0.13930392129E+02  0.51100000000E-03 0.  1.
         12    1    3    3    0    0 -0.16492750233E+02 -0.15019070793E+02 -0.18120057924E+02  0.28738820381E+02  0.00000000000E+00 0. -1.
</event>
<event>
 7    1  0.2903212E-011  0.5052873E+02  0.7816164E-02  0.1300439E+00
        -11   -1    0    0    0    0  0.00000000000E+00  0.00000000000E+00  0.45593999997E+02  0.45594000000E+02  0.51100000000E-03 0.  1.
         11   -1    0    0    0    0 -0.00000000000E+00 -0.00000000000E+00 -0.45593999997E+02  0.45594000000E+02  0.51100000000E-03 0. -1.
    9900012    2    1    2    0    0  0.31313126780E+02  0.25581713239E+02  0.42708853059E+01  0.50528727720E+02  0.29999598376E+02 0.  0.
        -12    1    1    2    0    0 -0.31313126780E+02 -0.25581713239E+02 -0.42708853059E+01  0.40659272280E+02  0.00000000000E+00 0.  1.
         11    1    3    3    0    0  0.20765873709E+01 -0.20045471208E+00 -0.12390724475E+00  0.20899163780E+01  0.51100000000E-03 0. -1.
        -11    1    3    3    0    0 -0.20894470097E+01  0.14051916120E+02 -0.21092809813E+01  0.14362144756E+02  0.51100000000E-03 0.  1.
        -12    1    3    3    0    0  0.31325986419E+02  0.11730251831E+02  0.65040735320E+01  0.34076666587E+02  0.00000000000E+00 0.  1.
</event>
<event>
 7    1  0.2903212E-011  0.5052886E+02  0.7816164E-02  0.1300439E+00
        -11   -1    0    0    0    0  0.00000000000E+00  0.00000000000E+00  0.45593999997E+02  0.45594000000E+02  0.51100000000E-03 0.  1.
         11   -1    0    0    0    0 -0.00000000000E+00 -0.00000000000E+00 -0.45593999997E+02  0.45594000000E+02  0.51100000000E-03 0. -1.
    9900012    2    1    2    0    0  0.14572274310E+02  0.35029931224E+02 -0.14619109537E+02  0.50528860513E+02  0.30000002016E+02 0.  0.
        -12    1    1    2    0    0 -0.14572274310E+02 -0.35029931224E+02  0.14619109537E+02  0.40659139487E+02  0.00000000000E+00 0.  1.
         11    1    3    3    0    0  0.75688326437E+01  0.13206889865E+02 -0.14339403040E+02  0.20912380240E+02  0.51100000000E-03 0. -1.
        -11    1    3    3    0    0  0.37986416407E+00  0.13670128247E+02 -0.86531038015E+01  0.16183105658E+02  0.51100000000E-03 0.  1.
        -12    1    3    3    0    0  0.66235775021E+01  0.81529131121E+01  0.83733973044E+01  0.13433374615E+02  0.00000000000E+00 0.  1.
</event>
<event>
 7    1  0.2903212E-011  0.5052886E+02  0.7816164E-02  0.1300439E+00
        -11   -1    0    0    0    0  0.00000000000E+00  0.00000000000E+00  0.45593999997E+02  0.45594000000E+02  0.51100000000E-03 0.  1.
         11   -1    0    0    0    0 -0.00000000000E+00 -0.00000000000E+00 -0.45593999997E+02  0.45594000000E+02  0.51100000000E-03 0. -1.
    9900012    2    1    2    0    0 -0.21335053072E+02  0.93785008142E+01 -0.33317031055E+02  0.50528864182E+02  0.30000013169E+02 0.  0.
        -12    1    1    2    0    0  0.21335053072E+02 -0.93785008142E+01  0.33317031055E+02  0.40659135818E+02  0.00000000000E+00 0.  1.
         11    1    3    3    0    0 -0.76266014621E+01  0.26919042061E+01 -0.81738150796E+01  0.11498810866E+02  0.51100000000E-03 0. -1.
        -11    1    3    3    0    0 -0.15025173328E+02  0.60116263999E+01 -0.25433744434E+01  0.16381826495E+02  0.51100000000E-03 0.  1.
         12    1    3    3    0    0  0.13167217177E+01  0.67497020827E+00 -0.22599841532E+02  0.22648226821E+02  0.00000000000E+00 0. -1.
</event>
<event>
 7    1  0.2903212E-011  0.5052885E+02  0.7816164E-02  0.1300439E+00
        -11   -1    0    0    0    0  0.00000000000E+00  0.00000000000E+00  0.45593999997E+02  0.45594000000E+02  0.51100000000E-03 0. -1.
         11   -1    0    0    0    0 -0.00000000000E+00 -0.00000000000E+00 -0.45593999997E+02  0.45594000000E+02  0.51100000000E-03 0.  1.
    9900012    2    1    2    0    0  0.26004631072E+02  0.21109909253E+02  0.23049881800E+02  0.50528853959E+02  0.29999982093E+02 0.  0.
        -12    1    1    2    0    0 -0.26004631072E+02 -0.21109909253E+02 -0.23049881800E+02  0.40659146041E+02  0.00000000000E+00 0.  1.
         11    1    3    3    0    0  0.11278987527E+02  0.76159503932E+01  0.17217354606E+02  0.21946652591E+02  0.51100000000E-03 0. -1.
        -11    1    3    3    0    0  0.40872285692E-01  0.12013395351E+02  0.67763514031E+01  0.13792834263E+02  0.51100000000E-03 0.  1.
        -12    1    3    3    0    0  0.14684771259E+02  0.14805635084E+01 -0.94382420987E+00  0.14789367105E+02  0.00000000000E+00 0.  1.
</event>
<event>
 7    1  0.2903212E-011  0.5052887E+02  0.7816164E-02  0.1300439E+00
        -11   -1    0    0    0    0  0.00000000000E+00  0.00000000000E+00  0.45593999997E+02  0.45594000000E+02  0.51100000000E-03 0.  1.
         11   -1    0    0    0    0 -0.00000000000E+00 -0.00000000000E+00 -0.45593999997E+02  0.45594000000E+02  0.51100000000E-03 0. -1.
    9900012    2    1    2    0    0 -0.40346615188E+02 -0.13501975244E+01 -0.48468840991E+01  0.50528872169E+02  0.30000037446E+02 0.  0.
        -12    1    1    2    0    0  0.40346615188E+02  0.13501975244E+01  0.48468840991E+01  0.40659127831E+02  0.00000000000E+00 0.  1.
         11    1    3    3    0    0 -0.11416295974E+02  0.34987415218E+01 -0.20348554001E+01  0.12112540723E+02  0.51100000000E-03 0.  1.
        -11    1    3    3    0    0 -0.76445321672E+01  0.96626893523E+01 -0.28856894428E+01  0.12654392178E+02  0.51100000000E-03 0. -1.
        -12    1    3    3    0    0 -0.21285787047E+02 -0.14511628399E+02  0.73660743789E-01  0.25761939269E+02  0.00000000000E+00 0.  1.
</event>
<event>
 7    1  0.2903212E-011  0.5052886E+02  0.7816164E-02  0.1300439E+00
        -11   -1    0    0    0    0  0.00000000000E+00  0.00000000000E+00  0.45593999997E+02  0.45594000000E+02  0.51100000000E-03 0. -1.
         11   -1    0    0    0    0 -0.00000000000E+00 -0.00000000000E+00 -0.45593999997E+02  0.45594000000E+02  0.51100000000E-03 0.  1.
    9900012    2    1    2    0    0  0.15145733074E+01 -0.36905312470E+02  0.16996158912E+02  0.50528862792E+02  0.30000008941E+02 0.  0.
        -12    1    1    2    0    0 -0.15145733074E+01  0.36905312470E+02 -0.16996158912E+02  0.40659137208E+02  0.00000000000E+00 0.  1.
         11    1    3    3    0    0 -0.59860155250E+00 -0.50447190845E+01 -0.13116440367E+00  0.50818027138E+01  0.51100000000E-03 0. -1.
        -11    1    3    3    0    0 -0.41747048367E+00 -0.12801142466E+02 -0.69999059427E+01  0.14595965659E+02  0.51100000000E-03 0.  1.
        -12    1    3    3    0    0  0.25306453435E+01 -0.19059450919E+02  0.24127229258E+02  0.30851094419E+02  0.00000000000E+00 0.  1.
</event>
<event>
 7    1  0.2903212E-011  0.5052885E+02  0.7816164E-02  0.1300439E+00
        -11   -1    0    0    0    0  0.00000000000E+00  0.00000000000E+00  0.45593999997E+02  0.45594000000E+02  0.51100000000E-03 0.  1.
         11   -1    0    0    0    0 -0.00000000000E+00 -0.00000000000E+00 -0.45593999997E+02  0.45594000000E+02  0.51100000000E-03 0. -1.
    9900012    2    1    2    0    0 -0.14915058463E+02 -0.13449887787E+02 -0.35352622355E+02  0.50528851486E+02  0.29999974578E+02 0.  0.
        -12    1    1    2    0    0  0.14915058463E+02  0.13449887787E+02  0.35352622355E+02  0.40659148514E+02  0.00000000000E+00 0.  1.
         11    1    3    3    0    0  0.15286101499E+01 -0.30117195931E+01 -0.26279586131E+01  0.42794007327E+01  0.51100000000E-03 0.  1.
        -11    1    3    3    0    0 -0.20817684500E+02 -0.11476833259E+02 -0.34082064028E+02  0.41553348580E+02  0.51100000000E-03 0. -1.
         12    1    3    3    0    0  0.43740158864E+01  0.10386650649E+01  0.13574002853E+01  0.46961021737E+01  0.00000000000E+00 0. -1.
</event>
<event>
 7    1  0.2903212E-011  0.5052887E+02  0.7816164E-02  0.1300439E+00
        -11   -1    0    0    0    0  0.00000000000E+00  0.00000000000E+00  0.45593999997E+02  0.45594000000E+02  0.51100000000E-03 0.  1.
         11   -1    0    0    0    0 -0.00000000000E+00 -0.00000000000E+00 -0.45593999997E+02  0.45594000000E+02  0.51100000000E-03 0. -1.
    9900012    2    1    2    0    0 -0.31630494424E+02 -0.25459023052E+02  0.21248117481E+01  0.50528869940E+02  0.30000030670E+02 0.  0.
        -12    1    1    2    0    0  0.31630494424E+02  0.25459023052E+02 -0.21248117481E+01  0.40659130060E+02  0.00000000000E+00 0.  1.
         11    1    3    3    0    0 -0.25939521618E+01 -0.64576281303E+01 -0.62344497174E+01  0.93433351875E+01  0.51100000000E-03 0. -1.
        -11    1    3    3    0    0 -0.98324439280E+01  0.28269358110E+01  0.63530094783E+01  0.12042809031E+02  0.51100000000E-03 0.  1.
        -12    1    3    3    0    0 -0.19204098334E+02 -0.21828330733E+02  0.20062519872E+01  0.29142725721E+02  0.00000000000E+00 0.  1.
</event>
<event>
 7    1  0.2903212E-011  0.5052887E+02  0.7816164E-02  0.1300439E+00
        -11   -1    0    0    0    0  0.00000000000E+00  0.00000000000E+00  0.45593999997E+02  0.45594000000E+02  0.51100000000E-03 0. -1.
         11   -1    0    0    0    0 -0.00000000000E+00 -0.00000000000E+00 -0.45593999997E+02  0.45594000000E+02  0.51100000000E-03 0.  1.
    9900012    2    1    2    0    0 -0.36639878286E+00 -0.22360649007E+02  0.33956321900E+02  0.50528872254E+02  0.30000037705E+02 0.  0.
        -12    1    1    2    0    0  0.36639878286E+00  0.22360649007E+02 -0.33956321900E+02  0.40659127746E+02  0.00000000000E+00 0.  1.
         11    1    3    3    0    0  0.99619039856E+01 -0.47873176230E+01  0.22767161451E+02  0.25308132721E+02  0.51100000000E-03 0. -1.
        -11    1    3    3    0    0 -0.14316441117E+01  0.11646766116E+01  0.11679002922E+01  0.21840484944E+01  0.51100000000E-03 0.  1.
         12    1    3    3    0    0 -0.88966586568E+01 -0.18738007996E+02  0.10021260157E+02  0.23036691039E+02  0.00000000000E+00 0. -1.
</event>
<event>
 7    1  0.2903212E-011  0.5052886E+02  0.7816164E-02  0.1300439E+00
        -11   -1    0    0    0    0  0.00000000000E+00  0.00000000000E+00  0.45593999997E+02  0.45594000000E+02  0.51100000000E-03 0. -1.
         11   -1    0    0    0    0 -0.00000000000E+00 -0.00000000000E+00 -0.45593999997E+02  0.45594000000E+02  0.51100000000E-03 0.  1.
    9900012    2    1    2    0    0  0.80593957960E+01 -0.32362046560E+02  0.23257470698E+02  0.50528857591E+02  0.29999993133E+02 0.  0.
        -12    1    1    2    0    0 -0.80593957960E+01  0.32362046560E+02 -0.23257470698E+02  0.40659142409E+02  0.00000000000E+00 0.  1.
         11    1    3    3    0    0  0.68162520934E+01 -0.31018066342E+01  0.61109840860E+01  0.96657448631E+01  0.51100000000E-03 0. -1.
        -11    1    3    3    0    0  0.70738341188E+01 -0.25367320256E+01 -0.16256966059E+01  0.76887598627E+01  0.51100000000E-03 0.  1.
         12    1    3    3    0    0 -0.58306904163E+01 -0.26723507901E+02  0.18772183218E+02  0.33174352865E+02  0.00000000000E+00 0. -1.
</event>
<event>
 7    1  0.2903212E-011  0.5052886E+02  0.7816164E-02  0.1300439E+00
        -11   -1    0    0    0    0  0.00000000000E+00  0.00000000000E+00  0.45593999997E+02  0.45594000000E+02  0.51100000000E-03 0.  1.
         11   -1    0    0    0    0 -0.00000000000E+00 -0.00000000000E+00 -0.45593999997E+02  0.45594000000E+02  0.51100000000E-03 0. -1.
    9900012    2    1    2    0    0  0.28409047734E+01 -0.37256459541E+02 -0.16032808468E+02  0.50528862468E+02  0.30000007958E+02 0.  0.
        -12    1    1    2    0    0 -0.28409047734E+01  0.37256459541E+02  0.16032808468E+02  0.40659137532E+02  0.00000000000E+00 0.  1.
         11    1    3    3    0    0  0.28706730594E+01 -0.70615509545E+01  0.71073011741E+01  0.10422091726E+02  0.51100000000E-03 0. -1.
        -11    1    3    3    0    0  0.47524959508E+00 -0.81855036783E+01 -0.44421892203E-01  0.81994088940E+01  0.51100000000E-03 0.  1.
         12    1    3    3    0    0 -0.50501788106E+00 -0.22009404908E+02 -0.23095687750E+02  0.31907361848E+02  0.00000000000E+00 0. -1.
</event>
<event>
 7    1  0.2903212E-011  0.5052888E+02  0.7816164E-02  0.1300439E+00
        -11   -1    0    0    0    0  0.00000000000E+00  0.00000000000E+00  0.45593999997E+02  0.45594000000E+02  0.51100000000E-03 0.  1.
         11   -1    0    0    0    0 -0.00000000000E+00 -0.00000000000E+00 -0.45593999997E+02  0.45594000000E+02  0.51100000000E-03 0. -1.
    9900012    2    1    2    0    0  0.38629297354E+01 -0.26511673101E+02 -0.30583872640E+02  0.50528876763E+02  0.30000051408E+02 0.  0.
        -12    1    1    2    0    0 -0.38629297354E+01  0.26511673101E+02  0.30583872640E+02  0.40659123237E+02  0.00000000000E+00 0.  1.
         11    1    3    3    0    0  0.10405821215E+02 -0.40678629013E+01 -0.98988586383E+01  0.14927023359E+02  0.51100000000E-03 0. -1.
        -11    1    3    3    0    0  0.42579305963E+01 -0.39576011610E+01 -0.10250887541E+02  0.11784450583E+02  0.51100000000E-03 0.  1.
        -12    1    3    3    0    0 -0.10800822076E+02 -0.18486209039E+02 -0.10434126461E+02  0.23817402821E+02  0.00000000000E+00 0.  1.
</event>
<event>
 7    1  0.2903212E-011  0.5052886E+02  0.7816164E-02  0.1300439E+00
        -11   -1    0    0    0    0  0.00000000000E+00  0.00000000000E+00  0.45593999997E+02  0.45594000000E+02  0.51100000000E-03 0. -1.
         11   -1    0    0    0    0 -0.00000000000E+00 -0.00000000000E+00 -0.45593999997E+02  0.45594000000E+02  0.51100000000E-03 0.  1.
    9900012    2    1    2    0    0 -0.13563386162E+02  0.38099128009E+02  0.42019622531E+01  0.50528862208E+02  0.30000007167E+02 0.  0.
        -12    1    1    2    0    0  0.13563386162E+02 -0.38099128009E+02 -0.42019622531E+01  0.40659137792E+02  0.00000000000E+00 0.  1.
         11    1    3    3    0    0 -0.10581861816E+02  0.29985875245E+02 -0.46103684246E+01  0.32130733122E+02  0.51100000000E-03 0. -1.
        -11    1    3    3    0    0 -0.28822269000E+01  0.39763868264E+01 -0.30863792904E+01  0.58003983899E+01  0.51100000000E-03 0.  1.
         12    1    3    3    0    0 -0.99297446215E-01  0.41368659375E+01  0.11898709968E+02  0.12597730695E+02  0.00000000000E+00 0. -1.
</event>
<event>
 7    1  0.2903212E-011  0.5052884E+02  0.7816164E-02  0.1300439E+00
        -11   -1    0    0    0    0  0.00000000000E+00  0.00000000000E+00  0.45593999997E+02  0.45594000000E+02  0.51100000000E-03 0. -1.
         11   -1    0    0    0    0 -0.00000000000E+00 -0.00000000000E+00 -0.45593999997E+02  0.45594000000E+02  0.51100000000E-03 0.  1.
    9900012    2    1    2    0    0 -0.32892547920E+02 -0.23219115317E+02 -0.56674656959E+01  0.50528841226E+02  0.29999943391E+02 0.  0.
        -12    1    1    2    0    0  0.32892547920E+02  0.23219115317E+02  0.56674656959E+01  0.40659158774E+02  0.00000000000E+00 0.  1.
         11    1    3    3    0    0 -0.58787524488E+01 -0.53185030944E+01 -0.74172802909E+01  0.10856438306E+02  0.51100000000E-03 0.  1.
        -11    1    3    3    0    0  0.34889476828E+01  0.41273488627E+00 -0.17456814445E+01  0.39230740481E+01  0.51100000000E-03 0. -1.
        -12    1    3    3    0    0 -0.30502743154E+02 -0.18313347109E+02  0.34954960396E+01  0.35749328872E+02  0.00000000000E+00 0.  1.
</event>
<event>
 7    1  0.2903212E-011  0.5052886E+02  0.7816164E-02  0.1300439E+00
        -11   -1    0    0    0    0  0.00000000000E+00  0.00000000000E+00  0.45593999997E+02  0.45594000000E+02  0.51100000000E-03 0. -1.
         11   -1    0    0    0    0 -0.00000000000E+00 -0.00000000000E+00 -0.45593999997E+02  0.45594000000E+02  0.51100000000E-03 0.  1.
    9900012    2    1    2    0    0  0.15423182206E+02  0.37465312806E+02 -0.34119690379E+01  0.50528859014E+02  0.29999997458E+02 0.  0.
        -12    1    1    2    0    0 -0.15423182206E+02 -0.37465312806E+02  0.34119690379E+01  0.40659140986E+02  0.00000000000E+00 0.  1.
         11    1    3    3    0    0  0.14753394613E+02  0.15773291489E+02  0.60690942444E+01  0.22434198943E+02  0.51100000000E-03 0. -1.
        -11    1    3    3    0    0  0.31358444936E+01  0.31452409008E+01 -0.82188294141E+01  0.93421206485E+01  0.51100000000E-03 0.  1.
        -12    1    3    3    0    0 -0.24660569006E+01  0.18546780416E+02 -0.12622338682E+01  0.18752539422E+02  0.00000000000E+00 0.  1.
</event>
<event>
 7    1  0.2903212E-011  0.5052886E+02  0.7816164E-02  0.1300439E+00
        -11   -1    0    0    0    0  0.00000000000E+00  0.00000000000E+00  0.45593999997E+02  0.45594000000E+02  0.51100000000E-03 0.  1.
         11   -1    0    0    0    0 -0.00000000000E+00 -0.00000000000E+00 -0.45593999997E+02  0.45594000000E+02  0.51100000000E-03 0. -1.
    9900012    2    1    2    0    0  0.24536977949E+02  0.13810848530E+01 -0.32391279457E+02  0.50528859981E+02  0.30000000397E+02 0.  0.
        -12    1    1    2    0    0 -0.24536977949E+02 -0.13810848530E+01  0.32391279457E+02  0.40659140019E+02  0.00000000000E+00 0.  1.
         11    1    3    3    0    0  0.83162808908E+01 -0.50386623610E+01 -0.12685461049E+02  0.15983415422E+02  0.51100000000E-03 0. -1.
        -11    1    3    3    0    0  0.90383502812E+01 -0.63338380324E+01 -0.16016164235E+02  0.19450624594E+02  0.51100000000E-03 0.  1.
        -12    1    3    3    0    0  0.71823467768E+01  0.12753585246E+02 -0.36896541726E+01  0.15094819965E+02  0.00000000000E+00 0.  1.
</event>
<event>
 7    1  0.2903212E-011  0.5052886E+02  0.7816164E-02  0.1300439E+00
        -11   -1    0    0    0    0  0.00000000000E+00  0.00000000000E+00  0.45593999997E+02  0.45594000000E+02  0.51100000000E-03 0.  1.
         11   -1    0    0    0    0 -0.00000000000E+00 -0.00000000000E+00 -0.45593999997E+02  0.45594000000E+02  0.51100000000E-03 0. -1.
    9900012    2    1    2    0    0  0.33374077086E+02  0.22766712107E+02 -0.45840123531E+01  0.50528863625E+02  0.30000011474E+02 0.  0.
        -12    1    1    2    0    0 -0.33374077086E+02 -0.22766712107E+02  0.45840123531E+01  0.40659136375E+02  0.00000000000E+00 0.  1.
         11    1    3    3    0    0  0.21367424246E+02  0.89909623667E+01 -0.56860043659E+01  0.23869119571E+02  0.51100000000E-03 0. -1.
        -11    1    3    3    0    0  0.15164370495E+02  0.36925090941E+01  0.30842619292E+01  0.15909287471E+02  0.51100000000E-03 0.  1.
        -12    1    3    3    0    0 -0.31577176552E+01  0.10083240646E+02 -0.19822699164E+01  0.10750456583E+02  0.00000000000E+00 0.  1.
</event>
<event>
 7    1  0.2903212E-011  0.5052886E+02  0.7816164E-02  0.1300439E+00
        -11   -1    0    0    0    0  0.00000000000E+00  0.00000000000E+00  0.45593999997E+02  0.45594000000E+02  0.51100000000E-03 0.  1.
         11   -1    0    0    0    0 -0.00000000000E+00 -0.00000000000E+00 -0.45593999997E+02  0.45594000000E+02  0.51100000000E-03 0. -1.
    9900012    2    1    2    0    0 -0.30344494090E+02  0.60587877048E+01 -0.26375521042E+02  0.50528864000E+02  0.30000012614E+02 0.  0.
        -12    1    1    2    0    0  0.30344494090E+02 -0.60587877048E+01  0.26375521042E+02  0.40659136000E+02  0.00000000000E+00 0.  1.
         11    1    3    3    0    0 -0.12552347375E+02 -0.65517229327E+01 -0.17195097275E+02  0.22274601423E+02  0.51100000000E-03 0. -1.
        -11    1    3    3    0    0 -0.26742231661E+01  0.63067419201E+01 -0.96899247890E+01  0.11866806894E+02  0.51100000000E-03 0.  1.
         12    1    3    3    0    0 -0.15117923548E+02  0.63037687174E+01  0.50950102132E+00  0.16387455682E+02  0.00000000000E+00 0. -1.
</event>
<event>
 7    1  0.2903212E-011  0.5052885E+02  0.7816164E-02  0.1300439E+00
        -11   -1    0    0    0    0  0.00000000000E+00  0.00000000000E+00  0.45593999997E+02  0.45594000000E+02  0.51100000000E-03 0.  1.
         11   -1    0    0    0    0 -0.00000000000E+00 -0.00000000000E+00 -0.45593999997E+02  0.45594000000E+02  0.51100000000E-03 0. -1.
    9900012    2    1    2    0    0  0.40200508527E+02  0.60862116563E+01  0.20791665902E+00  0.50528854811E+02  0.29999984682E+02 0.  0.
        -12    1    1    2    0    0 -0.40200508527E+02 -0.60862116563E+01 -0.20791665902E+00  0.40659145189E+02  0.00000000000E+00 0.  1.
         11    1    3    3    0    0  0.17906468009E+01  0.25003467327E+01 -0.20221319958E+01  0.36806477444E+01  0.51100000000E-03 0. -1.
        -11    1    3    3    0    0  0.45596584417E+00  0.21849719730E+01 -0.73478500424E+01  0.76793819986E+01  0.51100000000E-03 0.  1.
        -12    1    3    3    0    0  0.37953895882E+02  0.14008929507E+01  0.95778986973E+01  0.39168825068E+02  0.00000000000E+00 0.  1.
</event>
<event>
 7    1  0.2903212E-011  0.5052887E+02  0.7816164E-02  0.1300439E+00
        -11   -1    0    0    0    0  0.00000000000E+00  0.00000000000E+00  0.45593999997E+02  0.45594000000E+02  0.51100000000E-03 0.  1.
         11   -1    0    0    0    0 -0.00000000000E+00 -0.00000000000E+00 -0.45593999997E+02  0.45594000000E+02  0.51100000000E-03 0. -1.
    9900012    2    1    2    0    0 -0.10039134662E+01  0.17492698007E+02 -0.36690090265E+02  0.50528867576E+02  0.30000023484E+02 0.  0.
        -12    1    1    2    0    0  0.10039134662E+01 -0.17492698007E+02  0.36690090265E+02  0.40659132424E+02  0.00000000000E+00 0.  1.
         11    1    3    3    0    0  0.68385650219E+01  0.35900733477E+01 -0.19826362366E+02  0.21277670059E+02  0.51100000000E-03 0. -1.
        -11    1    3    3    0    0  0.19658527578E+01  0.10505762127E+01  0.29379817214E+01  0.36878210777E+01  0.51100000000E-03 0.  1.
        -12    1    3    3    0    0 -0.98083312459E+01  0.12852048446E+02 -0.19801709620E+02  0.25563376439E+02  0.00000000000E+00 0.  1.
</event>
<event>
 7    1  0.2903212E-011  0.5052886E+02  0.7816164E-02  0.1300439E+00
        -11   -1    0    0    0    0  0.00000000000E+00  0.00000000000E+00  0.45593999997E+02  0.45594000000E+02  0.51100000000E-03 0. -1.
         11   -1    0    0    0    0 -0.00000000000E+00 -0.00000000000E+00 -0.45593999997E+02  0.45594000000E+02  0.51100000000E-03 0.  1.
    9900012    2    1    2    0    0  0.12275367292E+02  0.35760303584E+02  0.14955997032E+02  0.50528858324E+02  0.29999995363E+02 0.  0.
        -12    1    1    2    0    0 -0.12275367292E+02 -0.35760303584E+02 -0.14955997032E+02  0.40659141676E+02  0.00000000000E+00 0.  1.
         11    1    3    3    0    0  0.17258632693E+02  0.14616945070E+02  0.11473716985E+02  0.25360632235E+02  0.51100000000E-03 0. -1.
        -11    1    3    3    0    0  0.36061406505E+01  0.27111876230E+01 -0.13548162373E+00  0.45136619556E+01  0.51100000000E-03 0.  1.
         12    1    3    3    0    0 -0.85894060515E+01  0.18432170891E+02  0.36177616704E+01  0.20654564134E+02  0.00000000000E+00 0. -1.
</event>
<event>
 7    1  0.2903212E-011  0.5052886E+02  0.7816164E-02  0.1300439E+00
        -11   -1    0    0    0    0  0.00000000000E+00  0.00000000000E+00  0.45593999997E+02  0.45594000000E+02  0.51100000000E-03 0.  1.
         11   -1    0    0    0    0 -0.00000000000E+00 -0.00000000000E+00 -0.45593999997E+02  0.45594000000E+02  0.51100000000E-03 0. -1.
    9900012    2    1    2    0    0  0.23540424414E+02  0.83549359300E+01 -0.32081287491E+02  0.50528861506E+02  0.30000005033E+02 0.  0.
        -12    1    1    2    0    0 -0.23540424414E+02 -0.83549359300E+01  0.32081287491E+02  0.40659138494E+02  0.00000000000E+00 0.  1.
         11    1    3    3    0    0  0.43095074389E+01  0.36722487855E+01  0.52104340077E+00  0.56858378446E+01  0.51100000000E-03 0. -1.
        -11    1    3    3    0    0  0.13166243058E+02  0.12219707046E+02 -0.29758353006E+02  0.34759614073E+02  0.51100000000E-03 0.  1.
        -12    1    3    3    0    0  0.60646739167E+01 -0.75370199020E+01 -0.28439778860E+01  0.10083409589E+02  0.00000000000E+00 0.  1.
</event>
<event>
 7    1  0.2903212E-011  0.5052886E+02  0.7816164E-02  0.1300439E+00
        -11   -1    0    0    0    0  0.00000000000E+00  0.00000000000E+00  0.45593999997E+02  0.45594000000E+02  0.51100000000E-03 0.  1.
         11   -1    0    0    0    0 -0.00000000000E+00 -0.00000000000E+00 -0.45593999997E+02  0.45594000000E+02  0.51100000000E-03 0. -1.
    9900012    2    1    2    0    0  0.22533104817E+02  0.14114679343E+02 -0.30760381313E+02  0.50528855343E+02  0.29999986302E+02 0.  0.
        -12    1    1    2    0    0 -0.22533104817E+02 -0.14114679343E+02  0.30760381313E+02  0.40659144657E+02  0.00000000000E+00 0.  1.
         11    1    3    3    0    0  0.29003541370E+01  0.34285777365E+00 -0.13414994504E+02  0.13729227341E+02  0.51100000000E-03 0. -1.
        -11    1    3    3    0    0  0.44963786066E+00  0.20779415010E+01 -0.13910673905E+02  0.14072201812E+02  0.51100000000E-03 0.  1.
        -12    1    3    3    0    0  0.19183112819E+02  0.11693880069E+02 -0.34347129044E+01  0.22727426190E+02  0.00000000000E+00 0.  1.
</event>
<event>
 7    1  0.2903212E-011  0.5052891E+02  0.7816164E-02  0.1300439E+00
        -11   -1    0    0    0    0  0.00000000000E+00  0.00000000000E+00  0.45593999997E+02  0.45594000000E+02  0.51100000000E-03 0.  1.
         11   -1    0    0    0    0 -0.00000000000E+00 -0.00000000000E+00 -0.45593999997E+02  0.45594000000E+02  0.51100000000E-03 0. -1.
    9900012    2    1    2    0    0 -0.24339113820E+02 -0.32553107668E+02 -0.10315078887E+01  0.50528913821E+02  0.30000164051E+02 0.  0.
        -12    1    1    2    0    0  0.24339113820E+02  0.32553107668E+02  0.10315078887E+01  0.40659086179E+02  0.00000000000E+00 0.  1.
         11    1    3    3    0    0 -0.19324364172E+00 -0.74370728012E+01  0.93691180201E+01  0.11963601786E+02  0.51100000000E-03 0. -1.
        -11    1    3    3    0    0 -0.69769661301E+01 -0.25884800290E+01 -0.66757686427E+01  0.99972082340E+01  0.51100000000E-03 0.  1.
        -12    1    3    3    0    0 -0.17168904048E+02 -0.22527554837E+02 -0.37248572661E+01  0.28568103802E+02  0.00000000000E+00 0.  1.
</event>
<event>
 7    1  0.2903212E-011  0.5052886E+02  0.7816164E-02  0.1300439E+00
        -11   -1    0    0    0    0  0.00000000000E+00  0.00000000000E+00  0.45593999997E+02  0.45594000000E+02  0.51100000000E-03 0.  1.
         11   -1    0    0    0    0 -0.00000000000E+00 -0.00000000000E+00 -0.45593999997E+02  0.45594000000E+02  0.51100000000E-03 0. -1.
    9900012    2    1    2    0    0  0.18860451051E+02  0.15790063539E+02 -0.32374728097E+02  0.50528859087E+02  0.29999997680E+02 0.  0.
        -12    1    1    2    0    0 -0.18860451051E+02 -0.15790063539E+02  0.32374728097E+02  0.40659140913E+02  0.00000000000E+00 0.  1.
         11    1    3    3    0    0  0.13562707153E+02  0.31580194404E+01 -0.12115934090E+02  0.18458493200E+02  0.51100000000E-03 0. -1.
        -11    1    3    3    0    0  0.13003428238E+02  0.88733085153E+01 -0.97877003577E+01  0.18537093313E+02  0.51100000000E-03 0.  1.
        -12    1    3    3    0    0 -0.77056843395E+01  0.37587355837E+01 -0.10471093650E+02  0.13533272573E+02  0.00000000000E+00 0.  1.
</event>
<event>
 7    1  0.2903212E-011  0.5052885E+02  0.7816164E-02  0.1300439E+00
        -11   -1    0    0    0    0  0.00000000000E+00  0.00000000000E+00  0.45593999997E+02  0.45594000000E+02  0.51100000000E-03 0. -1.
         11   -1    0    0    0    0 -0.00000000000E+00 -0.00000000000E+00 -0.45593999997E+02  0.45594000000E+02  0.51100000000E-03 0.  1.
    9900012    2    1    2    0    0 -0.18056512800E+02  0.36330379328E+02 -0.26892420036E+01  0.50528854175E+02  0.29999982752E+02 0.  0.
        -12    1    1    2    0    0  0.18056512800E+02 -0.36330379328E+02  0.26892420036E+01  0.40659145825E+02  0.00000000000E+00 0.  1.
         11    1    3    3    0    0 -0.10887388370E+02  0.11284631707E+02  0.56946152386E+01  0.16682529222E+02  0.51100000000E-03 0. -1.
        -11    1    3    3    0    0 -0.30785992469E+01 -0.21486761260E+01  0.22325159638E+01  0.43679182922E+01  0.51100000000E-03 0.  1.
         12    1    3    3    0    0 -0.40905251837E+01  0.27194423747E+02 -0.10616373206E+02  0.29478406661E+02  0.00000000000E+00 0. -1.
</event>
<event>
 7    1  0.2903212E-011  0.5052886E+02  0.7816164E-02  0.1300439E+00
        -11   -1    0    0    0    0  0.00000000000E+00  0.00000000000E+00  0.45593999997E+02  0.45594000000E+02  0.51100000000E-03 0. -1.
         11   -1    0    0    0    0 -0.00000000000E+00 -0.00000000000E+00 -0.45593999997E+02  0.45594000000E+02  0.51100000000E-03 0.  1.
    9900012    2    1    2    0    0  0.19005241525E+02 -0.19115905145E+02  0.30439261498E+02  0.50528859878E+02  0.30000000085E+02 0.  0.
        -12    1    1    2    0    0 -0.19005241525E+02  0.19115905145E+02 -0.30439261498E+02  0.40659140122E+02  0.00000000000E+00 0.  1.
         11    1    3    3    0    0  0.10127878516E+02 -0.68354973798E+01  0.67712309658E+01  0.13969520991E+02  0.51100000000E-03 0. -1.
        -11    1    3    3    0    0  0.14343182850E+02 -0.14037112653E+02  0.23378209389E+02  0.30810843876E+02  0.51100000000E-03 0.  1.
        -12    1    3    3    0    0 -0.54658198407E+01  0.17567048872E+01  0.28982114313E+00  0.57484950106E+01  0.00000000000E+00 0.  1.
</event>
<event>
 7    1  0.2903212E-011  0.5052886E+02  0.7816164E-02  0.1300439E+00
        -11   -1    0    0    0    0  0.00000000000E+00  0.00000000000E+00  0.45593999997E+02  0.45594000000E+02  0.51100000000E-03 0.  1.
         11   -1    0    0    0    0 -0.00000000000E+00 -0.00000000000E+00 -0.45593999997E+02  0.45594000000E+02  0.51100000000E-03 0. -1.
    9900012    2    1    2    0    0 -0.35642999293E+00  0.12359074415E+02 -0.38733603908E+02  0.50528857923E+02  0.29999994142E+02 0.  0.
        -12    1    1    2    0    0  0.35642999293E+00 -0.12359074415E+02  0.38733603908E+02  0.40659142077E+02  0.00000000000E+00 0.  1.
         11    1    3    3    0    0  0.60746483467E+01  0.59466070387E+01 -0.31772191708E+02  0.32889749984E+02  0.51100000000E-03 0. -1.
        -11    1    3    3    0    0 -0.82893643466E+01  0.86725619091E+01 -0.81259405337E+01  0.14489920675E+02  0.51100000000E-03 0.  1.
        -12    1    3    3    0    0  0.18582860070E+01 -0.22600945329E+01  0.11645283337E+01  0.31491872636E+01  0.00000000000E+00 0.  1.
</event>
<event>
 7    1  0.2903212E-011  0.5052886E+02  0.7816164E-02  0.1300439E+00
        -11   -1    0    0    0    0  0.00000000000E+00  0.00000000000E+00  0.45593999997E+02  0.45594000000E+02  0.51100000000E-03 0.  1.
         11   -1    0    0    0    0 -0.00000000000E+00 -0.00000000000E+00 -0.45593999997E+02  0.45594000000E+02  0.51100000000E-03 0. -1.
    9900012    2    1    2    0    0 -0.28816333421E+02 -0.13311018450E+02 -0.25408690034E+02  0.50528858184E+02  0.29999994935E+02 0.  0.
        -12    1    1    2    0    0  0.28816333421E+02  0.13311018450E+02  0.25408690034E+02  0.40659141816E+02  0.00000000000E+00 0.  1.
         11    1    3    3    0    0 -0.10141089183E+02  0.35004297003E+01 -0.13070939572E+02  0.16909883484E+02  0.51100000000E-03 0. -1.
        -11    1    3    3    0    0 -0.14522362488E+01  0.38922800068E+01 -0.29638314129E+01  0.51032470720E+01  0.51100000000E-03 0.  1.
        -12    1    3    3    0    0 -0.17223007988E+02 -0.20703728157E+02 -0.93739190499E+01  0.28515727627E+02  0.00000000000E+00 0.  1.
</event>
<event>
 7    1  0.2903212E-011  0.5052885E+02  0.7816164E-02  0.1300439E+00
        -11   -1    0    0    0    0  0.00000000000E+00  0.00000000000E+00  0.45593999997E+02  0.45594000000E+02  0.51100000000E-03 0. -1.
         11   -1    0    0    0    0 -0.00000000000E+00 -0.00000000000E+00 -0.45593999997E+02  0.45594000000E+02  0.51100000000E-03 0.  1.
    9900012    2    1    2    0    0  0.16416031393E+02  0.22277512222E+02  0.29789134873E+02  0.50528853501E+02  0.29999980703E+02 0.  0.
        -12    1    1    2    0    0 -0.16416031393E+02 -0.22277512222E+02 -0.29789134873E+02  0.40659146499E+02  0.00000000000E+00 0.  1.
         11    1    3    3    0    0  0.36641326826E+01  0.76640768570E+01  0.10684486319E+02  0.13649988665E+02  0.51100000000E-03 0. -1.
        -11    1    3    3    0    0 -0.20146298674E+01  0.16522773971E+02  0.96198078186E+01  0.19225022651E+02  0.51100000000E-03 0.  1.
        -12    1    3    3    0    0  0.14766528578E+02 -0.19093386057E+01  0.94848407356E+01  0.17653842186E+02  0.00000000000E+00 0.  1.
</event>
<event>
 7    1  0.2903212E-011  0.5052886E+02  0.7816164E-02  0.1300439E+00
        -11   -1    0    0    0    0  0.00000000000E+00  0.00000000000E+00  0.45593999997E+02  0.45594000000E+02  0.51100000000E-03 0.  1.
         11   -1    0    0    0    0 -0.00000000000E+00 -0.00000000000E+00 -0.45593999997E+02  0.45594000000E+02  0.51100000000E-03 0. -1.
    9900012    2    1    2    0    0  0.14676716396E+02  0.78101413786E+01 -0.37104732456E+02  0.50528862243E+02  0.30000007274E+02 0.  0.
        -12    1    1    2    0    0 -0.14676716396E+02 -0.78101413786E+01  0.37104732456E+02  0.40659137757E+02  0.00000000000E+00 0.  1.
         11    1    3    3    0    0  0.38455048616E+01  0.25044442549E+01 -0.37321992795E+01  0.59151889563E+01  0.51100000000E-03 0. -1.
        -11    1    3    3    0    0  0.86352638605E+00  0.13757127001E+02 -0.76571962668E+01  0.15768223618E+02  0.51100000000E-03 0.  1.
        -12    1    3    3    0    0  0.99676851482E+01 -0.84514298775E+01 -0.25715336910E+02  0.28845449668E+02  0.00000000000E+00 0.  1.
</event>
<event>
 7    1  0.2903212E-011  0.5052885E+02  0.7816164E-02  0.1300439E+00
        -11   -1    0    0    0    0  0.00000000000E+00  0.00000000000E+00  0.45593999997E+02  0.45594000000E+02  0.51100000000E-03 0. -1.
         11   -1    0    0    0    0 -0.00000000000E+00 -0.00000000000E+00 -0.45593999997E+02  0.45594000000E+02  0.51100000000E-03 0.  1.
    9900012    2    1    2    0    0 -0.37524583482E+02 -0.70430128259E+01  0.13980998169E+02  0.50528847217E+02  0.29999961602E+02 0.  0.
        -12    1    1    2    0    0  0.37524583482E+02  0.70430128259E+01 -0.13980998169E+02  0.40659152783E+02  0.00000000000E+00 0.  1.
         11    1    3    3    0    0 -0.15961873532E+02 -0.14574621424E+02  0.61077710567E+01  0.22461207978E+02  0.51100000000E-03 0. -1.
        -11    1    3    3    0    0 -0.76326877571E+01 -0.31147204948E+01 -0.11931212440E+01  0.83296425327E+01  0.51100000000E-03 0.  1.
         12    1    3    3    0    0 -0.13930022193E+02  0.10646329093E+02  0.90663483564E+01  0.19737996706E+02  0.00000000000E+00 0. -1.
</event>
<event>
 7    1  0.2903212E-011  0.5052886E+02  0.7816164E-02  0.1300439E+00
        -11   -1    0    0    0    0  0.00000000000E+00  0.00000000000E+00  0.45593999997E+02  0.45594000000E+02  0.51100000000E-03 0. -1.
         11   -1    0    0    0    0 -0.00000000000E+00 -0.00000000000E+00 -0.45593999997E+02  0.45594000000E+02  0.51100000000E-03 0.  1.
    9900012    2    1    2    0    0  0.28180303123E+02 -0.27656332163E+01  0.29178544686E+02  0.50528859808E+02  0.29999999871E+02 0.  0.
        -12    1    1    2    0    0 -0.28180303123E+02  0.27656332163E+01 -0.29178544686E+02  0.40659140192E+02  0.00000000000E+00 0.  1.
         11    1    3    3    0    0  0.32459277652E+01  0.71137022619E+01  0.35657957300E+01  0.85939342782E+01  0.51100000000E-03 0. -1.
        -11    1    3    3    0    0  0.59940095668E+00  0.30648854571E+01 -0.13266610747E+01  0.33930567693E+01  0.51100000000E-03 0.  1.
         12    1    3    3    0    0  0.24334974401E+02 -0.12944220935E+02  0.26939410031E+02  0.38541868760E+02  0.00000000000E+00 0. -1.
</event>
<event>
 7    1  0.2903212E-011  0.5052886E+02  0.7816164E-02  0.1300439E+00
        -11   -1    0    0    0    0  0.00000000000E+00  0.00000000000E+00  0.45593999997E+02  0.45594000000E+02  0.51100000000E-03 0.  1.
         11   -1    0    0    0    0 -0.00000000000E+00 -0.00000000000E+00 -0.45593999997E+02  0.45594000000E+02  0.51100000000E-03 0. -1.
    9900012    2    1    2    0    0  0.34754824474E+02 -0.14507737098E+02 -0.15322977115E+02  0.50528857269E+02  0.29999992156E+02 0.  0.
        -12    1    1    2    0    0 -0.34754824474E+02  0.14507737098E+02  0.15322977115E+02  0.40659142731E+02  0.00000000000E+00 0.  1.
         11    1    3    3    0    0  0.15492300818E+02 -0.34825839612E+01 -0.29502741883E+01  0.16150662331E+02  0.51100000000E-03 0. -1.
        -11    1    3    3    0    0  0.19609659038E+02  0.10521736594E+01 -0.51511618286E+01  0.20302223165E+02  0.51100000000E-03 0.  1.
        -12    1    3    3    0    0 -0.34713538271E+00 -0.12077326796E+02 -0.72215410979E+01  0.14075971773E+02  0.00000000000E+00 0.  1.
</event>
<event>
 7    1  0.2903212E-011  0.5052886E+02  0.7816164E-02  0.1300439E+00
        -11   -1    0    0    0    0  0.00000000000E+00  0.00000000000E+00  0.45593999997E+02  0.45594000000E+02  0.51100000000E-03 0.  1.
         11   -1    0    0    0    0 -0.00000000000E+00 -0.00000000000E+00 -0.45593999997E+02  0.45594000000E+02  0.51100000000E-03 0. -1.
    9900012    2    1    2    0    0  0.24830172746E+02  0.15472901819E+01 -0.32159509704E+02  0.50528860192E+02  0.30000001039E+02 0.  0.
        -12    1    1    2    0    0 -0.24830172746E+02 -0.15472901819E+01  0.32159509704E+02  0.40659139808E+02  0.00000000000E+00 0.  1.
         11    1    3    3    0    0  0.91979748665E+01  0.25909226229E+01 -0.10171517131E+02  0.13956195136E+02  0.51100000000E-03 0. -1.
        -11    1    3    3    0    0 -0.10975232161E+00  0.78045244029E+01  0.39268586649E+00  0.78151678919E+01  0.51100000000E-03 0.  1.
         12    1    3    3    0    0  0.15741950201E+02 -0.88481568439E+01 -0.22380678440E+02  0.28757497163E+02  0.00000000000E+00 0. -1.
</event>
<event>
 7    1  0.2903212E-011  0.5052885E+02  0.7816164E-02  0.1300439E+00
        -11   -1    0    0    0    0  0.00000000000E+00  0.00000000000E+00  0.45593999997E+02  0.45594000000E+02  0.51100000000E-03 0.  1.
         11   -1    0    0    0    0 -0.00000000000E+00 -0.00000000000E+00 -0.45593999997E+02  0.45594000000E+02  0.51100000000E-03 0. -1.
    9900012    2    1    2    0    0  0.24276221970E+02 -0.28900038530E+02 -0.15120150331E+02  0.50528854335E+02  0.29999983237E+02 0.  0.
        -12    1    1    2    0    0 -0.24276221970E+02  0.28900038530E+02  0.15120150331E+02  0.40659145665E+02  0.00000000000E+00 0.  1.
         11    1    3    3    0    0  0.29044278668E+01 -0.60485646101E+01  0.37551499264E+01  0.76890822799E+01  0.51100000000E-03 0. -1.
        -11    1    3    3    0    0 -0.38540800435E+01 -0.24004758173E+01 -0.68338803488E+01  0.82047631297E+01  0.51100000000E-03 0.  1.
         12    1    3    3    0    0  0.25225874146E+02 -0.20450998103E+02 -0.12041419908E+02  0.34635008925E+02  0.00000000000E+00 0. -1.
</event>
<event>
 7    1  0.2903212E-011  0.5052887E+02  0.7816164E-02  0.1300439E+00
        -11   -1    0    0    0    0  0.00000000000E+00  0.00000000000E+00  0.45593999997E+02  0.45594000000E+02  0.51100000000E-03 0.  1.
         11   -1    0    0    0    0 -0.00000000000E+00 -0.00000000000E+00 -0.45593999997E+02  0.45594000000E+02  0.51100000000E-03 0. -1.
    9900012    2    1    2    0    0  0.28615909731E+02 -0.21460397050E+02 -0.19332515744E+02  0.50528867001E+02  0.30000021736E+02 0.  0.
        -12    1    1    2    0    0 -0.28615909731E+02  0.21460397050E+02  0.19332515744E+02  0.40659132999E+02  0.00000000000E+00 0.  1.
         11    1    3    3    0    0  0.12530861519E+02 -0.80073872195E+01 -0.91756159454E+01  0.17473770879E+02  0.51100000000E-03 0. -1.
        -11    1    3    3    0    0  0.98823285927E+01 -0.32161439232E+01 -0.16506617616E+02  0.19505702385E+02  0.51100000000E-03 0.  1.
        -12    1    3    3    0    0  0.62027196188E+01 -0.10236865907E+02  0.63497178175E+01  0.13549393737E+02  0.00000000000E+00 0.  1.
</event>
<event>
 7    1  0.2903212E-011  0.5052887E+02  0.7816164E-02  0.1300439E+00
        -11   -1    0    0    0    0  0.00000000000E+00  0.00000000000E+00  0.45593999997E+02  0.45594000000E+02  0.51100000000E-03 0.  1.
         11   -1    0    0    0    0 -0.00000000000E+00 -0.00000000000E+00 -0.45593999997E+02  0.45594000000E+02  0.51100000000E-03 0. -1.
    9900012    2    1    2    0    0  0.67797144018E+01  0.29084586773E+02 -0.27591426047E+02  0.50528874254E+02  0.30000043782E+02 0.  0.
        -12    1    1    2    0    0 -0.67797144018E+01 -0.29084586773E+02  0.27591426047E+02  0.40659125746E+02  0.00000000000E+00 0.  1.
         11    1    3    3    0    0 -0.31649447905E+01 -0.78355078963E+00 -0.16101469726E+01  0.36363994419E+01  0.51100000000E-03 0.  1.
        -11    1    3    3    0    0 -0.53614793798E+01  0.12267155392E+02 -0.17586759996E+02  0.22102549400E+02  0.51100000000E-03 0. -1.
        -12    1    3    3    0    0  0.15306138572E+02  0.17600982171E+02 -0.83945190779E+01  0.24789925412E+02  0.00000000000E+00 0.  1.
</event>
<event>
 7    1  0.2903212E-011  0.5052887E+02  0.7816164E-02  0.1300439E+00
        -11   -1    0    0    0    0  0.00000000000E+00  0.00000000000E+00  0.45593999997E+02  0.45594000000E+02  0.51100000000E-03 0. -1.
         11   -1    0    0    0    0 -0.00000000000E+00 -0.00000000000E+00 -0.45593999997E+02  0.45594000000E+02  0.51100000000E-03 0.  1.
    9900012    2    1    2    0    0 -0.36049369233E+02  0.11952172749E+01 -0.18766435647E+02  0.50528872202E+02  0.30000037545E+02 0.  0.
        -12    1    1    2    0    0  0.36049369233E+02 -0.11952172749E+01  0.18766435647E+02  0.40659127798E+02  0.00000000000E+00 0.  1.
         11    1    3    3    0    0 -0.11000181274E+02 -0.29932699405E+01  0.20275536393E+01  0.11579059850E+02  0.51100000000E-03 0. -1.
        -11    1    3    3    0    0 -0.86709325082E+01  0.45400297984E+01  0.28418309269E+01  0.10191807711E+02  0.51100000000E-03 0.  1.
        -12    1    3    3    0    0 -0.16378255451E+02 -0.35154258304E+00 -0.23635820213E+02  0.28758004641E+02  0.00000000000E+00 0.  1.
</event>
<event>
 7    1  0.2903212E-011  0.5052886E+02  0.7816164E-02  0.1300439E+00
        -11   -1    0    0    0    0  0.00000000000E+00  0.00000000000E+00  0.45593999997E+02  0.45594000000E+02  0.51100000000E-03 0.  1.
         11   -1    0    0    0    0 -0.00000000000E+00 -0.00000000000E+00 -0.45593999997E+02  0.45594000000E+02  0.51100000000E-03 0. -1.
    9900012    2    1    2    0    0 -0.35326985769E+02  0.15543825117E+02 -0.12789017141E+02  0.50528863484E+02  0.30000011046E+02 0.  0.
        -12    1    1    2    0    0  0.35326985769E+02 -0.15543825117E+02  0.12789017141E+02  0.40659136516E+02  0.00000000000E+00 0.  1.
         11    1    3    3    0    0 -0.80340230680E+01  0.10003975210E+02  0.85054811176E+00  0.12858789951E+02  0.51100000000E-03 0. -1.
        -11    1    3    3    0    0 -0.61242283215E+01  0.66428244245E+01  0.42011317342E+01  0.99640753198E+01  0.51100000000E-03 0.  1.
        -12    1    3    3    0    0 -0.21168734379E+02 -0.11029745169E+01 -0.17840696987E+02  0.27705998213E+02  0.00000000000E+00 0.  1.
</event>
<event>
 7    1  0.2903212E-011  0.5052890E+02  0.7816164E-02  0.1300439E+00
        -11   -1    0    0    0    0  0.00000000000E+00  0.00000000000E+00  0.45593999997E+02  0.45594000000E+02  0.51100000000E-03 0.  1.
         11   -1    0    0    0    0 -0.00000000000E+00 -0.00000000000E+00 -0.45593999997E+02  0.45594000000E+02  0.51100000000E-03 0. -1.
    9900012    2    1    2    0    0 -0.22984854772E+02  0.79541592189E+01 -0.32582053946E+02  0.50528899701E+02  0.30000121131E+02 0.  0.
        -12    1    1    2    0    0  0.22984854772E+02 -0.79541592189E+01  0.32582053946E+02  0.40659100299E+02  0.00000000000E+00 0.  1.
         11    1    3    3    0    0 -0.76742840281E+01 -0.23485348831E+01 -0.10713436873E+02  0.13386111509E+02  0.51100000000E-03 0. -1.
        -11    1    3    3    0    0 -0.31408221155E+01 -0.65125125908E+01 -0.34143416315E+00  0.72383811280E+01  0.51100000000E-03 0.  1.
        -12    1    3    3    0    0 -0.12169748629E+02  0.16815206693E+02 -0.21527182910E+02  0.29904407064E+02  0.00000000000E+00 0.  1.
</event>
<event>
 7    1  0.2903212E-011  0.5052886E+02  0.7816164E-02  0.1300439E+00
        -11   -1    0    0    0    0  0.00000000000E+00  0.00000000000E+00  0.45593999997E+02  0.45594000000E+02  0.51100000000E-03 0.  1.
         11   -1    0    0    0    0 -0.00000000000E+00 -0.00000000000E+00 -0.45593999997E+02  0.45594000000E+02  0.51100000000E-03 0. -1.
    9900012    2    1    2    0    0  0.15367987575E+02 -0.92411435264E+01 -0.36490981154E+02  0.50528862265E+02  0.30000007340E+02 0.  0.
        -12    1    1    2    0    0 -0.15367987575E+02  0.92411435264E+01  0.36490981154E+02  0.40659137735E+02  0.00000000000E+00 0.  1.
         11    1    3    3    0    0 -0.53884039079E+01 -0.23526059045E+01 -0.30833332759E+01  0.66390206784E+01  0.51100000000E-03 0. -1.
        -11    1    3    3    0    0  0.62740368402E+01 -0.49658769242E+01 -0.65694604416E+00  0.80283902661E+01  0.51100000000E-03 0.  1.
         12    1    3    3    0    0  0.14482354643E+02 -0.19226606977E+01 -0.32750701834E+02  0.35861451320E+02  0.00000000000E+00 0. -1.
</event>
<event>
 7    1  0.2903212E-011  0.5052888E+02  0.7816164E-02  0.1300439E+00
        -11   -1    0    0    0    0  0.00000000000E+00  0.00000000000E+00  0.45593999997E+02  0.45594000000E+02  0.51100000000E-03 0. -1.
         11   -1    0    0    0    0 -0.00000000000E+00 -0.00000000000E+00 -0.45593999997E+02  0.45594000000E+02  0.51100000000E-03 0.  1.
    9900012    2    1    2    0    0 -0.24819207603E+02  0.24574859647E+02 -0.20814600597E+02  0.50528875676E+02  0.30000048106E+02 0.  0.
        -12    1    1    2    0    0  0.24819207603E+02 -0.24574859647E+02  0.20814600597E+02  0.40659124324E+02  0.00000000000E+00 0.  1.
         11    1    3    3    0    0 -0.23531174886E+02  0.89267294645E+01 -0.13687976680E+02  0.28648968503E+02  0.51100000000E-03 0. -1.
        -11    1    3    3    0    0 -0.29506695141E+01  0.31945214537E+01  0.33751367582E+01  0.55048130120E+01  0.51100000000E-03 0.  1.
         12    1    3    3    0    0  0.16626367971E+01  0.12453608729E+02 -0.10501760676E+02  0.16375094161E+02  0.00000000000E+00 0. -1.
</event>
<event>
 7    1  0.2903212E-011  0.5052886E+02  0.7816164E-02  0.1300439E+00
        -11   -1    0    0    0    0  0.00000000000E+00  0.00000000000E+00  0.45593999997E+02  0.45594000000E+02  0.51100000000E-03 0. -1.
         11   -1    0    0    0    0 -0.00000000000E+00 -0.00000000000E+00 -0.45593999997E+02  0.45594000000E+02  0.51100000000E-03 0.  1.
    9900012    2    1    2    0    0  0.18439380264E+02  0.35864070080E+02 -0.51887740247E+01  0.50528860276E+02  0.30000001295E+02 0.  0.
        -12    1    1    2    0    0 -0.18439380264E+02 -0.35864070080E+02  0.51887740247E+01  0.40659139724E+02  0.00000000000E+00 0.  1.
         11    1    3    3    0    0  0.54376189343E+01  0.23035104930E+02 -0.12412936920E+02  0.26725732208E+02  0.51100000000E-03 0. -1.
        -11    1    3    3    0    0 -0.54616589367E+00  0.81701424424E+01  0.12603082613E+01  0.82847994476E+01  0.51100000000E-03 0.  1.
        -12    1    3    3    0    0  0.13547927224E+02  0.46588227071E+01  0.59638546341E+01  0.15518328620E+02  0.00000000000E+00 0.  1.
</event>
<event>
 7    1  0.2903212E-011  0.5052886E+02  0.7816164E-02  0.1300439E+00
        -11   -1    0    0    0    0  0.00000000000E+00  0.00000000000E+00  0.45593999997E+02  0.45594000000E+02  0.51100000000E-03 0. -1.
         11   -1    0    0    0    0 -0.00000000000E+00 -0.00000000000E+00 -0.45593999997E+02  0.45594000000E+02  0.51100000000E-03 0.  1.
    9900012    2    1    2    0    0  0.62026091371E+01 -0.88388333344E+01  0.39199086656E+02  0.50528859213E+02  0.29999998065E+02 0.  0.
        -12    1    1    2    0    0 -0.62026091371E+01  0.88388333344E+01 -0.39199086656E+02  0.40659140787E+02  0.00000000000E+00 0.  1.
         11    1    3    3    0    0  0.19659703563E+01 -0.97261937114E+01  0.20558092038E+02  0.22827593655E+02  0.51100000000E-03 0. -1.
        -11    1    3    3    0    0 -0.50004662221E-01 -0.93707939423E+01  0.83281704203E+01  0.12536853767E+02  0.51100000000E-03 0.  1.
        -12    1    3    3    0    0  0.42866434430E+01  0.10258154319E+02  0.10312824198E+02  0.15164411792E+02  0.00000000000E+00 0.  1.
</event>
<event>
 7    1  0.2903212E-011  0.5052886E+02  0.7816164E-02  0.1300439E+00
        -11   -1    0    0    0    0  0.00000000000E+00  0.00000000000E+00  0.45593999997E+02  0.45594000000E+02  0.51100000000E-03 0.  1.
         11   -1    0    0    0    0 -0.00000000000E+00 -0.00000000000E+00 -0.45593999997E+02  0.45594000000E+02  0.51100000000E-03 0. -1.
    9900012    2    1    2    0    0  0.39402076357E+02  0.73243922399E+01 -0.68553216993E+01  0.50528858610E+02  0.29999996231E+02 0.  0.
        -12    1    1    2    0    0 -0.39402076357E+02 -0.73243922399E+01  0.68553216993E+01  0.40659141390E+02  0.00000000000E+00 0.  1.
         11    1    3    3    0    0  0.92899727360E+01 -0.16162134944E+01 -0.74399109339E+01  0.12011162078E+02  0.51100000000E-03 0. -1.
        -11    1    3    3    0    0  0.24520856437E+02 -0.22112348778E+01 -0.45323364133E+01  0.25034057476E+02  0.51100000000E-03 0.  1.
        -12    1    3    3    0    0  0.55912471846E+01  0.11151840612E+02  0.51169256479E+01  0.13483639056E+02  0.00000000000E+00 0.  1.
</event>
<event>
 7    1  0.2903212E-011  0.5052886E+02  0.7816164E-02  0.1300439E+00
        -11   -1    0    0    0    0  0.00000000000E+00  0.00000000000E+00  0.45593999997E+02  0.45594000000E+02  0.51100000000E-03 0.  1.
         11   -1    0    0    0    0 -0.00000000000E+00 -0.00000000000E+00 -0.45593999997E+02  0.45594000000E+02  0.51100000000E-03 0. -1.
    9900012    2    1    2    0    0 -0.31663551387E+02  0.33577385669E+01 -0.25284594923E+02  0.50528860374E+02  0.30000001592E+02 0.  0.
        -12    1    1    2    0    0  0.31663551387E+02 -0.33577385669E+01  0.25284594923E+02  0.40659139626E+02  0.00000000000E+00 0.  1.
         11    1    3    3    0    0 -0.20776447954E+02  0.83648959441E+01 -0.48675466815E+01  0.22919975669E+02  0.51100000000E-03 0. -1.
        -11    1    3    3    0    0  0.18608697260E+01  0.28393836272E+01 -0.55857358461E+01  0.65364654610E+01  0.51100000000E-03 0.  1.
        -12    1    3    3    0    0 -0.12747973159E+02 -0.78465410043E+01 -0.14831312395E+02  0.21072419244E+02  0.00000000000E+00 0.  1.
</event>
<event>
 7    1  0.2903212E-011  0.5052893E+02  0.7816164E-02  0.1300439E+00
        -11   -1    0    0    0    0  0.00000000000E+00  0.00000000000E+00  0.45593999997E+02  0.45594000000E+02  0.51100000000E-03 0. -1.
         11   -1    0    0    0    0 -0.00000000000E+00 -0.00000000000E+00 -0.45593999997E+02  0.45594000000E+02  0.51100000000E-03 0.  1.
    9900012    2    1    2    0    0  0.29251069902E+02 -0.54958678758E+01  0.27700734776E+02  0.50528925229E+02  0.30000198724E+02 0.  0.
        -12    1    1    2    0    0 -0.29251069902E+02  0.54958678758E+01 -0.27700734776E+02  0.40659074771E+02  0.00000000000E+00 0.  1.
         11    1    3    3    0    0  0.10726992742E+02 -0.42447929702E+01  0.85969395903E+01  0.14387286444E+02  0.51100000000E-03 0. -1.
        -11    1    3    3    0    0  0.96795452354E+01 -0.11507123219E+02  0.34219987508E+01  0.15421334457E+02  0.51100000000E-03 0.  1.
         12    1    3    3    0    0  0.88445319248E+01  0.10256048313E+02  0.15681796435E+02  0.20720304327E+02  0.00000000000E+00 0. -1.
</event>
<event>
 7    1  0.2903212E-011  0.5052886E+02  0.7816164E-02  0.1300439E+00
        -11   -1    0    0    0    0  0.00000000000E+00  0.00000000000E+00  0.45593999997E+02  0.45594000000E+02  0.51100000000E-03 0.  1.
         11   -1    0    0    0    0 -0.00000000000E+00 -0.00000000000E+00 -0.45593999997E+02  0.45594000000E+02  0.51100000000E-03 0. -1.
    9900012    2    1    2    0    0 -0.17166666375E+02  0.24127853844E+02 -0.27862480858E+02  0.50528860743E+02  0.30000002716E+02 0.  0.
        -12    1    1    2    0    0  0.17166666375E+02 -0.24127853844E+02  0.27862480858E+02  0.40659139257E+02  0.00000000000E+00 0.  1.
         11    1    3    3    0    0  0.15408770465E+01  0.58857513136E+01 -0.12214211819E+02  0.13645634512E+02  0.51100000000E-03 0. -1.
        -11    1    3    3    0    0 -0.10490904339E+02 -0.27589343485E+01 -0.50041139619E+01  0.11946210671E+02  0.51100000000E-03 0.  1.
        -12    1    3    3    0    0 -0.82166390825E+01  0.21001036878E+02 -0.10644155077E+02  0.24937015561E+02  0.00000000000E+00 0.  1.
</event>
<event>
 7    1  0.2903212E-011  0.5052887E+02  0.7816164E-02  0.1300439E+00
        -11   -1    0    0    0    0  0.00000000000E+00  0.00000000000E+00  0.45593999997E+02  0.45594000000E+02  0.51100000000E-03 0. -1.
         11   -1    0    0    0    0 -0.00000000000E+00 -0.00000000000E+00 -0.45593999997E+02  0.45594000000E+02  0.51100000000E-03 0.  1.
    9900012    2    1    2    0    0  0.15496303276E+02 -0.74636038069E+01  0.36841879685E+02  0.50528869467E+02  0.30000029231E+02 0.  0.
        -12    1    1    2    0    0 -0.15496303276E+02  0.74636038069E+01 -0.36841879685E+02  0.40659130533E+02  0.00000000000E+00 0.  1.
         11    1    3    3    0    0  0.15673341562E+02 -0.11745484968E+02  0.18383644390E+02  0.26862025876E+02  0.51100000000E-03 0. -1.
        -11    1    3    3    0    0  0.35317510282E+01 -0.18640567058E+01  0.14400592378E+00  0.39960869228E+01  0.51100000000E-03 0.  1.
        -12    1    3    3    0    0 -0.37087893137E+01  0.61459378668E+01  0.18314229371E+02  0.19670756668E+02  0.00000000000E+00 0.  1.
</event>
<event>
 7    1  0.2903212E-011  0.5052887E+02  0.7816164E-02  0.1300439E+00
        -11   -1    0    0    0    0  0.00000000000E+00  0.00000000000E+00  0.45593999997E+02  0.45594000000E+02  0.51100000000E-03 0.  1.
         11   -1    0    0    0    0 -0.00000000000E+00 -0.00000000000E+00 -0.45593999997E+02  0.45594000000E+02  0.51100000000E-03 0. -1.
    9900012    2    1    2    0    0  0.20208451901E+02  0.34727352782E+02  0.62285234042E+01  0.50528867406E+02  0.30000022968E+02 0.  0.
        -12    1    1    2    0    0 -0.20208451901E+02 -0.34727352782E+02 -0.62285234042E+01  0.40659132594E+02  0.00000000000E+00 0.  1.
         11    1    3    3    0    0  0.13304015926E+02  0.14499749421E+02 -0.35682107619E+01  0.19999292521E+02  0.51100000000E-03 0. -1.
        -11    1    3    3    0    0  0.10703330403E+02  0.63194452331E+01  0.10240957880E+02  0.16105088895E+02  0.51100000000E-03 0.  1.
         12    1    3    3    0    0 -0.37988944275E+01  0.13908158128E+02 -0.44422371366E+00  0.14424485990E+02  0.00000000000E+00 0. -1.
</event>
<event>
 7    1  0.2903212E-011  0.5052886E+02  0.7816164E-02  0.1300439E+00
        -11   -1    0    0    0    0  0.00000000000E+00  0.00000000000E+00  0.45593999997E+02  0.45594000000E+02  0.51100000000E-03 0.  1.
         11   -1    0    0    0    0 -0.00000000000E+00 -0.00000000000E+00 -0.45593999997E+02  0.45594000000E+02  0.51100000000E-03 0. -1.
    9900012    2    1    2    0    0 -0.31780712523E+02  0.24508897802E+02  0.65165654184E+01  0.50528863452E+02  0.30000010950E+02 0.  0.
        -12    1    1    2    0    0  0.31780712523E+02 -0.24508897802E+02 -0.65165654184E+01  0.40659136548E+02  0.00000000000E+00 0.  1.
         11    1    3    3    0    0 -0.14257182055E+02  0.67714826026E+01 -0.23128822644E+01  0.15952104607E+02  0.51100000000E-03 0. -1.
        -11    1    3    3    0    0 -0.21454442750E+02  0.81873208814E+01  0.46162998390E+01  0.23422970807E+02  0.51100000000E-03 0.  1.
        -12    1    3    3    0    0  0.39309122820E+01  0.95500943178E+01  0.42131478437E+01  0.11153788038E+02  0.00000000000E+00 0.  1.
</event>
<event>
 7    1  0.2903212E-011  0.5052887E+02  0.7816164E-02  0.1300439E+00
        -11   -1    0    0    0    0  0.00000000000E+00  0.00000000000E+00  0.45593999997E+02  0.45594000000E+02  0.51100000000E-03 0.  1.
         11   -1    0    0    0    0 -0.00000000000E+00 -0.00000000000E+00 -0.45593999997E+02  0.45594000000E+02  0.51100000000E-03 0. -1.
    9900012    2    1    2    0    0 -0.30995045502E+01 -0.27118366160E+02 -0.30135561801E+02  0.50528870684E+02  0.30000032932E+02 0.  0.
        -12    1    1    2    0    0  0.30995045502E+01  0.27118366160E+02  0.30135561801E+02  0.40659129316E+02  0.00000000000E+00 0.  1.
         11    1    3    3    0    0  0.99881636822E+00 -0.99532284303E+01 -0.16283181611E+02  0.19110373988E+02  0.51100000000E-03 0. -1.
        -11    1    3    3    0    0 -0.79282153727E+01 -0.20695125271E+02 -0.79451413332E+01  0.23542941193E+02  0.51100000000E-03 0.  1.
         12    1    3    3    0    0  0.38298944543E+01  0.35299875410E+01 -0.59072388569E+01  0.78755555032E+01  0.00000000000E+00 0. -1.
</event>
<event>
 7    1  0.2903212E-011  0.5052885E+02  0.7816164E-02  0.1300439E+00
        -11   -1    0    0    0    0  0.00000000000E+00  0.00000000000E+00  0.45593999997E+02  0.45594000000E+02  0.51100000000E-03 0.  1.
         11   -1    0    0    0    0 -0.00000000000E+00 -0.00000000000E+00 -0.45593999997E+02  0.45594000000E+02  0.51100000000E-03 0. -1.
    9900012    2    1    2    0    0  0.21453579373E+02  0.14313287119E+01 -0.34508863266E+02  0.50528850800E+02  0.29999972490E+02 0.  0.
        -12    1    1    2    0    0 -0.21453579373E+02 -0.14313287119E+01  0.34508863266E+02  0.40659149200E+02  0.00000000000E+00 0.  1.
         11    1    3    3    0    0 -0.17121559515E+01  0.52597075238E+01 -0.43698588824E+01  0.70492317419E+01  0.51100000000E-03 0. -1.
        -11    1    3    3    0    0  0.14577032052E+01  0.34822681846E+01  0.17948819509E+01  0.41800349069E+01  0.51100000000E-03 0.  1.
         12    1    3    3    0    0  0.21708032119E+02 -0.73106469965E+01 -0.31933886335E+02  0.39299584151E+02  0.00000000000E+00 0. -1.
</event>
<event>
 7    1  0.2903212E-011  0.5052886E+02  0.7816164E-02  0.1300439E+00
        -11   -1    0    0    0    0  0.00000000000E+00  0.00000000000E+00  0.45593999997E+02  0.45594000000E+02  0.51100000000E-03 0.  1.
         11   -1    0    0    0    0 -0.00000000000E+00 -0.00000000000E+00 -0.45593999997E+02  0.45594000000E+02  0.51100000000E-03 0. -1.
    9900012    2    1    2    0    0 -0.57701108063E+01 -0.20675922544E+02 -0.34530825066E+02  0.50528857959E+02  0.29999994253E+02 0.  0.
        -12    1    1    2    0    0  0.57701108063E+01  0.20675922544E+02  0.34530825066E+02  0.40659142041E+02  0.00000000000E+00 0.  1.
         11    1    3    3    0    0  0.85364896344E+01 -0.57519557677E+01 -0.60137865729E+01  0.11921504923E+02  0.51100000000E-03 0. -1.
        -11    1    3    3    0    0  0.61625186266E+00  0.22449758677E+01 -0.66818440168E+01  0.70757842485E+01  0.51100000000E-03 0.  1.
        -12    1    3    3    0    0 -0.14922852303E+02 -0.17168942644E+02 -0.21835194477E+02  0.31531568787E+02  0.00000000000E+00 0.  1.
</event>
<event>
 7    1  0.2903212E-011  0.5052887E+02  0.7816164E-02  0.1300439E+00
        -11   -1    0    0    0    0  0.00000000000E+00  0.00000000000E+00  0.45593999997E+02  0.45594000000E+02  0.51100000000E-03 0.  1.
         11   -1    0    0    0    0 -0.00000000000E+00 -0.00000000000E+00 -0.45593999997E+02  0.45594000000E+02  0.51100000000E-03 0. -1.
    9900012    2    1    2    0    0  0.23330789765E+01 -0.36416662307E+02  0.17931769338E+02  0.50528869381E+02  0.30000028970E+02 0.  0.
        -12    1    1    2    0    0 -0.23330789765E+01  0.36416662307E+02 -0.17931769338E+02  0.40659130619E+02  0.00000000000E+00 0.  1.
         11    1    3    3    0    0  0.57206974126E+01 -0.20078624749E+02  0.15504790308E+02  0.26005308564E+02  0.51100000000E-03 0. -1.
        -11    1    3    3    0    0 -0.19878884957E+01 -0.99841794793E+01  0.10183725395E+02  0.14399437618E+02  0.51100000000E-03 0.  1.
         12    1    3    3    0    0 -0.13997299403E+01 -0.63538580785E+01 -0.77567463645E+01  0.10124123199E+02  0.00000000000E+00 0. -1.
</event>
<event>
 7    1  0.2903212E-011  0.5052886E+02  0.7816164E-02  0.1300439E+00
        -11   -1    0    0    0    0  0.00000000000E+00  0.00000000000E+00  0.45593999997E+02  0.45594000000E+02  0.51100000000E-03 0. -1.
         11   -1    0    0    0    0 -0.00000000000E+00 -0.00000000000E+00 -0.45593999997E+02  0.45594000000E+02  0.51100000000E-03 0.  1.
    9900012    2    1    2    0    0 -0.27792521393E+02  0.70353615113E+01  0.28831324629E+02  0.50528857893E+02  0.29999994053E+02 0.  0.
        -12    1    1    2    0    0  0.27792521393E+02 -0.70353615113E+01 -0.28831324629E+02  0.40659142107E+02  0.00000000000E+00 0.  1.
         11    1    3    3    0    0  0.16211107266E+00 -0.15623189729E+01  0.15040375440E+02  0.15122169627E+02  0.51100000000E-03 0. -1.
        -11    1    3    3    0    0 -0.14296606286E+02  0.69704068837E+01  0.14651562520E+02  0.21625166079E+02  0.51100000000E-03 0.  1.
        -12    1    3    3    0    0 -0.13658026180E+02  0.16272736004E+01 -0.86061333114E+00  0.13781522188E+02  0.00000000000E+00 0.  1.
</event>
<event>
 7    1  0.2903212E-011  0.5052884E+02  0.7816164E-02  0.1300439E+00
        -11   -1    0    0    0    0  0.00000000000E+00  0.00000000000E+00  0.45593999997E+02  0.45594000000E+02  0.51100000000E-03 0. -1.
         11   -1    0    0    0    0 -0.00000000000E+00 -0.00000000000E+00 -0.45593999997E+02  0.45594000000E+02  0.51100000000E-03 0.  1.
    9900012    2    1    2    0    0  0.21152094369E+02  0.21086977604E+02  0.27587956571E+02  0.50528842748E+02  0.29999948018E+02 0.  0.
        -12    1    1    2    0    0 -0.21152094369E+02 -0.21086977604E+02 -0.27587956571E+02  0.40659157252E+02  0.00000000000E+00 0.  1.
         11    1    3    3    0    0  0.43793792848E+01  0.19875820729E+01  0.13671593296E+02  0.14492822669E+02  0.51100000000E-03 0. -1.
        -11    1    3    3    0    0  0.11047727503E+02  0.23112500972E+02  0.13678902775E+02  0.29040529705E+02  0.51100000000E-03 0.  1.
         12    1    3    3    0    0  0.57249875809E+01 -0.40131054413E+01  0.23746049986E+00  0.69954903740E+01  0.00000000000E+00 0. -1.
</event>
<event>
 7    1  0.2903212E-011  0.5052887E+02  0.7816164E-02  0.1300439E+00
        -11   -1    0    0    0    0  0.00000000000E+00  0.00000000000E+00  0.45593999997E+02  0.45594000000E+02  0.51100000000E-03 0. -1.
         11   -1    0    0    0    0 -0.00000000000E+00 -0.00000000000E+00 -0.45593999997E+02  0.45594000000E+02  0.51100000000E-03 0.  1.
    9900012    2    1    2    0    0 -0.30794646033E+02 -0.11584886161E+02  0.23888184198E+02  0.50528866266E+02  0.30000019503E+02 0.  0.
        -12    1    1    2    0    0  0.30794646033E+02  0.11584886161E+02 -0.23888184198E+02  0.40659133734E+02  0.00000000000E+00 0.  1.
         11    1    3    3    0    0 -0.24753061963E+02 -0.14522996181E+02  0.48814992790E+01  0.29111175347E+02  0.51100000000E-03 0. -1.
        -11    1    3    3    0    0 -0.11207674597E+01  0.36975355764E+01  0.38104567182E+01  0.54265522848E+01  0.51100000000E-03 0.  1.
        -12    1    3    3    0    0 -0.49208166110E+01 -0.75942555652E+00  0.15196228201E+02  0.15991138635E+02  0.00000000000E+00 0.  1.
</event>
<event>
 7    1  0.2903212E-011  0.5052886E+02  0.7816164E-02  0.1300439E+00
        -11   -1    0    0    0    0  0.00000000000E+00  0.00000000000E+00  0.45593999997E+02  0.45594000000E+02  0.51100000000E-03 0. -1.
         11   -1    0    0    0    0 -0.00000000000E+00 -0.00000000000E+00 -0.45593999997E+02  0.45594000000E+02  0.51100000000E-03 0.  1.
    9900012    2    1    2    0    0 -0.34704627460E+02 -0.56041566837E+01  0.20429096107E+02  0.50528859490E+02  0.29999998906E+02 0.  0.
        -12    1    1    2    0    0  0.34704627460E+02  0.56041566837E+01 -0.20429096107E+02  0.40659140510E+02  0.00000000000E+00 0.  1.
         11    1    3    3    0    0 -0.64194487668E+00 -0.37783120347E+01  0.20120409428E+01  0.43285152273E+01  0.51100000000E-03 0. -1.
        -11    1    3    3    0    0 -0.16296993008E+02 -0.10177331776E+02 -0.10030005480E+00  0.19214060568E+02  0.51100000000E-03 0.  1.
        -12    1    3    3    0    0 -0.17765689576E+02  0.83514871271E+01  0.18517355218E+02  0.26986283694E+02  0.00000000000E+00 0.  1.
</event>
<event>
 7    1  0.2903212E-011  0.5052895E+02  0.7816164E-02  0.1300438E+00
        -11   -1    0    0    0    0  0.00000000000E+00  0.00000000000E+00  0.45593999997E+02  0.45594000000E+02  0.51100000000E-03 0.  1.
         11   -1    0    0    0    0 -0.00000000000E+00 -0.00000000000E+00 -0.45593999997E+02  0.45594000000E+02  0.51100000000E-03 0. -1.
    9900012    2    1    2    0    0  0.14390443804E+02  0.37239799879E+02  0.76987261142E+01  0.50528954861E+02  0.30000288793E+02 0.  0.
        -12    1    1    2    0    0 -0.14390443804E+02 -0.37239799879E+02 -0.76987261142E+01  0.40659045139E+02  0.00000000000E+00 0.  1.
         11    1    3    3    0    0  0.10650641556E+02  0.31394927337E+02  0.10166328724E+02  0.34676099377E+02  0.51100000000E-03 0. -1.
        -11    1    3    3    0    0  0.56020855767E+01  0.80822530678E+01 -0.58088217592E+01  0.11421409193E+02  0.51100000000E-03 0.  1.
        -12    1    3    3    0    0 -0.18622833288E+01 -0.22373805263E+01  0.33412191498E+01  0.44314462902E+01  0.00000000000E+00 0.  1.
</event>
<event>
 7    1  0.2903212E-011  0.5052884E+02  0.7816164E-02  0.1300439E+00
        -11   -1    0    0    0    0  0.00000000000E+00  0.00000000000E+00  0.45593999997E+02  0.45594000000E+02  0.51100000000E-03 0.  1.
         11   -1    0    0    0    0 -0.00000000000E+00 -0.00000000000E+00 -0.45593999997E+02  0.45594000000E+02  0.51100000000E-03 0. -1.
    9900012    2    1    2    0    0  0.20413406216E+02  0.38193465499E+01 -0.34955298982E+02  0.50528837584E+02  0.29999932322E+02 0.  0.
        -12    1    1    2    0    0 -0.20413406216E+02 -0.38193465499E+01  0.34955298982E+02  0.40659162416E+02  0.00000000000E+00 0.  1.
         11    1    3    3    0    0  0.65025261029E+01  0.72909460945E+01 -0.25477198401E+02  0.27286047338E+02  0.51100000000E-03 0. -1.
        -11    1    3    3    0    0 -0.26768732177E+01  0.82535317619E+00 -0.46700415050E+01  0.54457456798E+01  0.51100000000E-03 0.  1.
        -12    1    3    3    0    0  0.16587753331E+02 -0.42969527208E+01 -0.48080590759E+01  0.17797044567E+02  0.00000000000E+00 0.  1.
</event>
<event>
 7    1  0.2903212E-011  0.5052885E+02  0.7816164E-02  0.1300439E+00
        -11   -1    0    0    0    0  0.00000000000E+00  0.00000000000E+00  0.45593999997E+02  0.45594000000E+02  0.51100000000E-03 0.  1.
         11   -1    0    0    0    0 -0.00000000000E+00 -0.00000000000E+00 -0.45593999997E+02  0.45594000000E+02  0.51100000000E-03 0. -1.
    9900012    2    1    2    0    0  0.18901676448E+02 -0.15945760041E+02 -0.32274235044E+02  0.50528845023E+02  0.29999954930E+02 0.  0.
        -12    1    1    2    0    0 -0.18901676448E+02  0.15945760041E+02  0.32274235044E+02  0.40659154977E+02  0.00000000000E+00 0.  1.
         11    1    3    3    0    0  0.70013766086E+00  0.40191382847E+01 -0.86232850360E+00  0.41698052718E+01  0.51100000000E-03 0. -1.
        -11    1    3    3    0    0  0.53735580129E+01 -0.62709129159E+00  0.19235350022E+01  0.57418077617E+01  0.51100000000E-03 0.  1.
         12    1    3    3    0    0  0.12827980774E+02 -0.19337807035E+02 -0.33335441542E+02  0.40617231989E+02  0.00000000000E+00 0. -1.
</event>
<event>
 7    1  0.2903212E-011  0.5052885E+02  0.7816164E-02  0.1300439E+00
        -11   -1    0    0    0    0  0.00000000000E+00  0.00000000000E+00  0.45593999997E+02  0.45594000000E+02  0.51100000000E-03 0.  1.
         11   -1    0    0    0    0 -0.00000000000E+00 -0.00000000000E+00 -0.45593999997E+02  0.45594000000E+02  0.51100000000E-03 0. -1.
    9900012    2    1    2    0    0  0.21795136217E+02  0.30962386253E+02 -0.14814499559E+02  0.50528847003E+02  0.29999960951E+02 0.  0.
        -12    1    1    2    0    0 -0.21795136217E+02 -0.30962386253E+02  0.14814499559E+02  0.40659152997E+02  0.00000000000E+00 0.  1.
         11    1    3    3    0    0  0.55208905244E+01  0.14594308403E+02 -0.10233670743E+02  0.18660173822E+02  0.51100000000E-03 0. -1.
        -11    1    3    3    0    0  0.12106818325E+02  0.17920496795E+02  0.41953981153E+01  0.22029993666E+02  0.51100000000E-03 0.  1.
         12    1    3    3    0    0  0.41674273678E+01 -0.15524189445E+01 -0.87762269314E+01  0.98386795149E+01  0.00000000000E+00 0. -1.
</event>
<event>
 7    1  0.2903212E-011  0.5052888E+02  0.7816164E-02  0.1300439E+00
        -11   -1    0    0    0    0  0.00000000000E+00  0.00000000000E+00  0.45593999997E+02  0.45594000000E+02  0.51100000000E-03 0.  1.
         11   -1    0    0    0    0 -0.00000000000E+00 -0.00000000000E+00 -0.45593999997E+02  0.45594000000E+02  0.51100000000E-03 0. -1.
    9900012    2    1    2    0    0  0.11366516174E+01  0.32889347698E+01 -0.40509936240E+02  0.50528880445E+02  0.30000062601E+02 0.  0.
        -12    1    1    2    0    0 -0.11366516174E+01 -0.32889347698E+01  0.40509936240E+02  0.40659119555E+02  0.00000000000E+00 0.  1.
         11    1    3    3    0    0 -0.25562339460E+01  0.87610654037E+01 -0.32404670644E+02  0.33665312694E+02  0.51100000000E-03 0. -1.
        -11    1    3    3    0    0  0.15769550330E+01 -0.52664403733E+01 -0.11563713521E+02  0.12803970167E+02  0.51100000000E-03 0.  1.
        -12    1    3    3    0    0  0.21159305305E+01 -0.20569026059E+00  0.34584479251E+01  0.40595975840E+01  0.00000000000E+00 0.  1.
</event>
<event>
 7    1  0.2903212E-011  0.5052886E+02  0.7816164E-02  0.1300439E+00
        -11   -1    0    0    0    0  0.00000000000E+00  0.00000000000E+00  0.45593999997E+02  0.45594000000E+02  0.51100000000E-03 0. -1.
         11   -1    0    0    0    0 -0.00000000000E+00 -0.00000000000E+00 -0.45593999997E+02  0.45594000000E+02  0.51100000000E-03 0.  1.
    9900012    2    1    2    0    0 -0.33309830346E+02 -0.16536675848E+02 -0.16436516034E+02  0.50528861973E+02  0.30000006452E+02 0.  0.
        -12    1    1    2    0    0  0.33309830346E+02  0.16536675848E+02  0.16436516034E+02  0.40659138027E+02  0.00000000000E+00 0.  1.
         11    1    3    3    0    0 -0.18887038758E+02 -0.23925063623E+01 -0.15693974797E+01  0.19102547695E+02  0.51100000000E-03 0. -1.
        -11    1    3    3    0    0 -0.81366482199E+01  0.32956761399E+00  0.19412110056E+01  0.83714968492E+01  0.51100000000E-03 0.  1.
        -12    1    3    3    0    0 -0.62861433689E+01 -0.14473737099E+02 -0.16808329560E+02  0.23054817429E+02  0.00000000000E+00 0.  1.
</event>
<event>
 7    1  0.2903212E-011  0.5052887E+02  0.7816164E-02  0.1300439E+00
        -11   -1    0    0    0    0  0.00000000000E+00  0.00000000000E+00  0.45593999997E+02  0.45594000000E+02  0.51100000000E-03 0.  1.
         11   -1    0    0    0    0 -0.00000000000E+00 -0.00000000000E+00 -0.45593999997E+02  0.45594000000E+02  0.51100000000E-03 0. -1.
    9900012    2    1    2    0    0  0.11833021958E+02  0.38817579909E+02  0.25178739464E+01  0.50528873007E+02  0.30000039992E+02 0.  0.
        -12    1    1    2    0    0 -0.11833021958E+02 -0.38817579909E+02 -0.25178739464E+01  0.40659126993E+02  0.00000000000E+00 0.  1.
         11    1    3    3    0    0 -0.46346786788E+00  0.93114938658E+01 -0.86684525848E+01  0.12730309932E+02  0.51100000000E-03 0.  1.
        -11    1    3    3    0    0  0.12796141201E+02  0.11757169375E+02  0.11804114733E+01  0.17417394548E+02  0.51100000000E-03 0. -1.
        -12    1    3    3    0    0 -0.49965137513E+00  0.17748916668E+02  0.10005915058E+02  0.20381168527E+02  0.00000000000E+00 0.  1.
</event>
<event>
 7    1  0.2903212E-011  0.5052886E+02  0.7816164E-02  0.1300439E+00
        -11   -1    0    0    0    0  0.00000000000E+00  0.00000000000E+00  0.45593999997E+02  0.45594000000E+02  0.51100000000E-03 0.  1.
         11   -1    0    0    0    0 -0.00000000000E+00 -0.00000000000E+00 -0.45593999997E+02  0.45594000000E+02  0.51100000000E-03 0. -1.
    9900012    2    1    2    0    0 -0.25050115936E+02  0.25865348365E+02  0.18884946576E+02  0.50528858818E+02  0.29999996864E+02 0.  0.
        -12    1    1    2    0    0  0.25050115936E+02 -0.25865348365E+02 -0.18884946576E+02  0.40659141182E+02  0.00000000000E+00 0.  1.
         11    1    3    3    0    0 -0.13061394441E+02  0.14047788215E+02  0.11624635439E+01  0.19216963866E+02  0.51100000000E-03 0. -1.
        -11    1    3    3    0    0 -0.20059865815E+01  0.11700979970E+02  0.11009563637E+01  0.11922626372E+02  0.51100000000E-03 0.  1.
        -12    1    3    3    0    0 -0.99827349135E+01  0.11658017975E+00  0.16621526669E+02  0.19389268580E+02  0.00000000000E+00 0.  1.
</event>
<event>
 7    1  0.2903212E-011  0.5052885E+02  0.7816164E-02  0.1300439E+00
        -11   -1    0    0    0    0  0.00000000000E+00  0.00000000000E+00  0.45593999997E+02  0.45594000000E+02  0.51100000000E-03 0.  1.
         11   -1    0    0    0    0 -0.00000000000E+00 -0.00000000000E+00 -0.45593999997E+02  0.45594000000E+02  0.51100000000E-03 0. -1.
    9900012    2    1    2    0    0 -0.38745137455E+02 -0.67334619831E+01 -0.10326719510E+02  0.50528851921E+02  0.29999975900E+02 0.  0.
        -12    1    1    2    0    0  0.38745137455E+02  0.67334619831E+01  0.10326719510E+02  0.40659148079E+02  0.00000000000E+00 0.  1.
         11    1    3    3    0    0 -0.33615571635E+01  0.29524369118E+01 -0.51731341640E+01  0.68394639864E+01  0.51100000000E-03 0. -1.
        -11    1    3    3    0    0 -0.34044470349E+02 -0.11683129389E+01 -0.72240113395E+01  0.34822080015E+02  0.51100000000E-03 0.  1.
        -12    1    3    3    0    0 -0.13391099423E+01 -0.85175859559E+01  0.20704259939E+01  0.88673079202E+01  0.00000000000E+00 0.  1.
</event>
<event>
 7    1  0.2903212E-011  0.5052890E+02  0.7816164E-02  0.1300439E+00
        -11   -1    0    0    0    0  0.00000000000E+00  0.00000000000E+00  0.45593999997E+02  0.45594000000E+02  0.51100000000E-03 0. -1.
         11   -1    0    0    0    0 -0.00000000000E+00 -0.00000000000E+00 -0.45593999997E+02  0.45594000000E+02  0.51100000000E-03 0.  1.
    9900012    2    1    2    0    0 -0.85484443298E+01  0.29467714722E+02  0.26678465750E+02  0.50528897130E+02  0.30000113316E+02 0.  0.
        -12    1    1    2    0    0  0.85484443298E+01 -0.29467714722E+02 -0.26678465750E+02  0.40659102870E+02  0.00000000000E+00 0.  1.
         11    1    3    3    0    0  0.51685478343E+01  0.99578398056E+01  0.13162444963E+01  0.11296236548E+02  0.51100000000E-03 0. -1.
        -11    1    3    3    0    0 -0.18774947884E+01  0.90594975377E+00 -0.27831829529E+01  0.34773322026E+01  0.51100000000E-03 0.  1.
         12    1    3    3    0    0 -0.11839497376E+02  0.18603925163E+02  0.28145404207E+02  0.35755328380E+02  0.00000000000E+00 0. -1.
</event>
<event>
 7    1  0.2903212E-011  0.5052885E+02  0.7816164E-02  0.1300439E+00
        -11   -1    0    0    0    0  0.00000000000E+00  0.00000000000E+00  0.45593999997E+02  0.45594000000E+02  0.51100000000E-03 0.  1.
         11   -1    0    0    0    0 -0.00000000000E+00 -0.00000000000E+00 -0.45593999997E+02  0.45594000000E+02  0.51100000000E-03 0. -1.
    9900012    2    1    2    0    0 -0.38948658768E+02  0.10311668342E+02 -0.54623846171E+01  0.50528853803E+02  0.29999981618E+02 0.  0.
        -12    1    1    2    0    0  0.38948658768E+02 -0.10311668342E+02  0.54623846171E+01  0.40659146197E+02  0.00000000000E+00 0.  1.
         11    1    3    3    0    0 -0.18335113156E+02  0.34867344636E+01 -0.81462579936E+01  0.20364066667E+02  0.51100000000E-03 0. -1.
        -11    1    3    3    0    0 -0.17570196999E+02  0.68671453263E+01  0.10631663304E+02  0.21654139844E+02  0.51100000000E-03 0.  1.
         12    1    3    3    0    0 -0.30433486124E+01 -0.42211448335E-01 -0.79477899274E+01  0.85106472911E+01  0.00000000000E+00 0. -1.
</event>
<event>
 7    1  0.2903212E-011  0.5052886E+02  0.7816164E-02  0.1300439E+00
        -11   -1    0    0    0    0  0.00000000000E+00  0.00000000000E+00  0.45593999997E+02  0.45594000000E+02  0.51100000000E-03 0. -1.
         11   -1    0    0    0    0 -0.00000000000E+00 -0.00000000000E+00 -0.45593999997E+02  0.45594000000E+02  0.51100000000E-03 0.  1.
    9900012    2    1    2    0    0 -0.25223268479E+02  0.29863051793E+02  0.11187057984E+02  0.50528863248E+02  0.30000010327E+02 0.  0.
        -12    1    1    2    0    0  0.25223268479E+02 -0.29863051793E+02 -0.11187057984E+02  0.40659136752E+02  0.00000000000E+00 0.  1.
         11    1    3    3    0    0 -0.13918423086E+02  0.28187932739E+01 -0.40470322191E+00  0.14206754791E+02  0.51100000000E-03 0. -1.
        -11    1    3    3    0    0 -0.64809715782E+01 -0.40662864437E+00  0.30251238184E+01  0.71637779021E+01  0.51100000000E-03 0.  1.
         12    1    3    3    0    0 -0.48238738143E+01  0.27450887163E+02  0.85666373874E+01  0.29158330555E+02  0.00000000000E+00 0. -1.
</event>
<event>
 7    1  0.2903212E-011  0.5052886E+02  0.7816164E-02  0.1300439E+00
        -11   -1    0    0    0    0  0.00000000000E+00  0.00000000000E+00  0.45593999997E+02  0.45594000000E+02  0.51100000000E-03 0.  1.
         11   -1    0    0    0    0 -0.00000000000E+00 -0.00000000000E+00 -0.45593999997E+02  0.45594000000E+02  0.51100000000E-03 0. -1.
    9900012    2    1    2    0    0  0.71934503456E+01 -0.31769659609E+02 -0.24333289503E+02  0.50528856162E+02  0.29999988790E+02 0.  0.
        -12    1    1    2    0    0 -0.71934503456E+01  0.31769659609E+02  0.24333289503E+02  0.40659143838E+02  0.00000000000E+00 0.  1.
         11    1    3    3    0    0 -0.13981565451E+01 -0.16319344555E+02 -0.13050484636E+02  0.20942564264E+02  0.51100000000E-03 0. -1.
        -11    1    3    3    0    0  0.12369478101E+01 -0.82823767760E+01  0.54225892777E+01  0.99765865746E+01  0.51100000000E-03 0.  1.
         12    1    3    3    0    0  0.73546590805E+01 -0.71679382783E+01 -0.16705394145E+02  0.19609705324E+02  0.00000000000E+00 0. -1.
</event>
<event>
 7    1  0.2903212E-011  0.5052886E+02  0.7816164E-02  0.1300439E+00
        -11   -1    0    0    0    0  0.00000000000E+00  0.00000000000E+00  0.45593999997E+02  0.45594000000E+02  0.51100000000E-03 0. -1.
         11   -1    0    0    0    0 -0.00000000000E+00 -0.00000000000E+00 -0.45593999997E+02  0.45594000000E+02  0.51100000000E-03 0.  1.
    9900012    2    1    2    0    0  0.16419589634E+02 -0.35878238474E+02  0.98140163804E+01  0.50528857888E+02  0.29999994037E+02 0.  0.
        -12    1    1    2    0    0 -0.16419589634E+02  0.35878238474E+02 -0.98140163804E+01  0.40659142112E+02  0.00000000000E+00 0.  1.
         11    1    3    3    0    0 -0.50390064764E+00 -0.63011979362E+00  0.70604129289E+01  0.71063631912E+01  0.51100000000E-03 0. -1.
        -11    1    3    3    0    0  0.17169883639E+01 -0.46144316028E+01  0.74204171291E+01  0.89052579238E+01  0.51100000000E-03 0.  1.
         12    1    3    3    0    0  0.15206501918E+02 -0.30633687078E+02 -0.46668136776E+01  0.34517236773E+02  0.00000000000E+00 0. -1.
</event>
<event>
 7    1  0.2903212E-011  0.5052886E+02  0.7816164E-02  0.1300439E+00
        -11   -1    0    0    0    0  0.00000000000E+00  0.00000000000E+00  0.45593999997E+02  0.45594000000E+02  0.51100000000E-03 0.  1.
         11   -1    0    0    0    0 -0.00000000000E+00 -0.00000000000E+00 -0.45593999997E+02  0.45594000000E+02  0.51100000000E-03 0. -1.
    9900012    2    1    2    0    0 -0.14610994037E+02  0.25333295723E+01 -0.37858510756E+02  0.50528859058E+02  0.29999997592E+02 0.  0.
        -12    1    1    2    0    0  0.14610994037E+02 -0.25333295723E+01  0.37858510756E+02  0.40659140942E+02  0.00000000000E+00 0.  1.
         11    1    3    3    0    0  0.36562362146E+01 -0.51285082544E+01 -0.75884039700E+01  0.98617207040E+01  0.51100000000E-03 0. -1.
        -11    1    3    3    0    0 -0.98260283645E+01  0.21076782273E+01 -0.14833081477E+01  0.10158412487E+02  0.51100000000E-03 0.  1.
         12    1    3    3    0    0 -0.84412018870E+01  0.55541595994E+01 -0.28786798639E+02  0.30508725867E+02  0.00000000000E+00 0. -1.
</event>
<event>
 7    1  0.2903212E-011  0.5052886E+02  0.7816164E-02  0.1300439E+00
        -11   -1    0    0    0    0  0.00000000000E+00  0.00000000000E+00  0.45593999997E+02  0.45594000000E+02  0.51100000000E-03 0. -1.
         11   -1    0    0    0    0 -0.00000000000E+00 -0.00000000000E+00 -0.45593999997E+02  0.45594000000E+02  0.51100000000E-03 0.  1.
    9900012    2    1    2    0    0  0.15560010710E+02 -0.61675661319E+01  0.37054189062E+02  0.50528859179E+02  0.29999997960E+02 0.  0.
        -12    1    1    2    0    0 -0.15560010710E+02  0.61675661319E+01 -0.37054189062E+02  0.40659140821E+02  0.00000000000E+00 0.  1.
         11    1    3    3    0    0 -0.19528033383E+01 -0.11787431266E+02  0.17946481862E+02  0.21559990450E+02  0.51100000000E-03 0. -1.
        -11    1    3    3    0    0 -0.18415769366E+00  0.10521480883E+01  0.69178146336E+01  0.69997920842E+01  0.51100000000E-03 0.  1.
        -12    1    3    3    0    0  0.17696971742E+02  0.45677170453E+01  0.12189892566E+02  0.21969076644E+02  0.00000000000E+00 0.  1.
</event>
<event>
 7    1  0.2903212E-011  0.5052885E+02  0.7816164E-02  0.1300439E+00
        -11   -1    0    0    0    0  0.00000000000E+00  0.00000000000E+00  0.45593999997E+02  0.45594000000E+02  0.51100000000E-03 0.  1.
         11   -1    0    0    0    0 -0.00000000000E+00 -0.00000000000E+00 -0.45593999997E+02  0.45594000000E+02  0.51100000000E-03 0. -1.
    9900012    2    1    2    0    0 -0.26142602900E+02 -0.21033674460E+02 -0.22963356220E+02  0.50528845107E+02  0.29999955188E+02 0.  0.
        -12    1    1    2    0    0  0.26142602900E+02  0.21033674460E+02  0.22963356220E+02  0.40659154893E+02  0.00000000000E+00 0.  1.
         11    1    3    3    0    0 -0.83498464574E+01 -0.18352834513E+02 -0.11925574760E+02  0.23425750876E+02  0.51100000000E-03 0. -1.
        -11    1    3    3    0    0  0.73127785978E+00 -0.54185538631E+01 -0.50521437833E+01  0.74444375438E+01  0.51100000000E-03 0.  1.
        -12    1    3    3    0    0 -0.18524034303E+02  0.27377139160E+01 -0.59856376776E+01  0.19658656687E+02  0.00000000000E+00 0.  1.
</event>
<event>
 7    1  0.2903212E-011  0.5052886E+02  0.7816164E-02  0.1300439E+00
        -11   -1    0    0    0    0  0.00000000000E+00  0.00000000000E+00  0.45593999997E+02  0.45594000000E+02  0.51100000000E-03 0. -1.
         11   -1    0    0    0    0 -0.00000000000E+00 -0.00000000000E+00 -0.45593999997E+02  0.45594000000E+02  0.51100000000E-03 0.  1.
    9900012    2    1    2    0    0  0.12246536867E+02  0.11856443564E+02  0.36913583616E+02  0.50528861119E+02  0.30000003856E+02 0.  0.
        -12    1    1    2    0    0 -0.12246536867E+02 -0.11856443564E+02 -0.36913583616E+02  0.40659138881E+02  0.00000000000E+00 0.  1.
         11    1    3    3    0    0  0.15513652869E+02  0.16115958028E+02  0.26037587626E+02  0.34327153948E+02  0.51100000000E-03 0. -1.
        -11    1    3    3    0    0 -0.63537448148E+00  0.24791901984E+01  0.80294309468E+01  0.84274460166E+01  0.51100000000E-03 0.  1.
        -12    1    3    3    0    0 -0.26317415206E+01 -0.67387046621E+01  0.28465650430E+01  0.77742611545E+01  0.00000000000E+00 0.  1.
</event>
<event>
 7    1  0.2903212E-011  0.5052886E+02  0.7816164E-02  0.1300439E+00
        -11   -1    0    0    0    0  0.00000000000E+00  0.00000000000E+00  0.45593999997E+02  0.45594000000E+02  0.51100000000E-03 0.  1.
         11   -1    0    0    0    0 -0.00000000000E+00 -0.00000000000E+00 -0.45593999997E+02  0.45594000000E+02  0.51100000000E-03 0. -1.
    9900012    2    1    2    0    0 -0.69842013939E+01  0.71386919527E+01 -0.39413521761E+02  0.50528859705E+02  0.29999999560E+02 0.  0.
        -12    1    1    2    0    0  0.69842013939E+01 -0.71386919527E+01  0.39413521761E+02  0.40659140295E+02  0.00000000000E+00 0.  1.
         11    1    3    3    0    0  0.43856805024E+01  0.81051731939E+01 -0.24702880043E+02  0.26365892905E+02  0.51100000000E-03 0. -1.
        -11    1    3    3    0    0  0.31182852633E+01  0.22570071352E+01 -0.10478069485E+01  0.39894465599E+01  0.51100000000E-03 0.  1.
        -12    1    3    3    0    0 -0.14488167160E+02 -0.32234883764E+01 -0.13662834770E+02  0.20173520241E+02  0.00000000000E+00 0.  1.
</event>
<event>
 7    1  0.2903212E-011  0.5052892E+02  0.7816164E-02  0.1300439E+00
        -11   -1    0    0    0    0  0.00000000000E+00  0.00000000000E+00  0.45593999997E+02  0.45594000000E+02  0.51100000000E-03 0.  1.
         11   -1    0    0    0    0 -0.00000000000E+00 -0.00000000000E+00 -0.45593999997E+02  0.45594000000E+02  0.51100000000E-03 0. -1.
    9900012    2    1    2    0    0  0.17724237781E+02 -0.41941596578E+01 -0.36351357850E+02  0.50528919862E+02  0.30000182412E+02 0.  0.
        -12    1    1    2    0    0 -0.17724237781E+02  0.41941596578E+01  0.36351357850E+02  0.40659080138E+02  0.00000000000E+00 0.  1.
         11    1    3    3    0    0 -0.18401860892E+00  0.82137392629E+00 -0.10493041886E+01  0.13451979470E+01  0.51100000000E-03 0. -1.
        -11    1    3    3    0    0  0.12041610276E+02 -0.11416977628E+02 -0.36803901222E+02  0.40371709173E+02  0.51100000000E-03 0.  1.
        -12    1    3    3    0    0  0.58666461132E+01  0.64014440438E+01  0.15018475603E+01  0.88120127416E+01  0.00000000000E+00 0.  1.
</event>
<event>
 7    1  0.2903212E-011  0.5052889E+02  0.7816164E-02  0.1300439E+00
        -11   -1    0    0    0    0  0.00000000000E+00  0.00000000000E+00  0.45593999997E+02  0.45594000000E+02  0.51100000000E-03 0.  1.
         11   -1    0    0    0    0 -0.00000000000E+00 -0.00000000000E+00 -0.45593999997E+02  0.45594000000E+02  0.51100000000E-03 0. -1.
    9900012    2    1    2    0    0 -0.38161535844E+02 -0.14011344881E+02 -0.73661663524E+00  0.50528890228E+02  0.30000092338E+02 0.  0.
        -12    1    1    2    0    0  0.38161535844E+02  0.14011344881E+02  0.73661663524E+00  0.40659109772E+02  0.00000000000E+00 0.  1.
         11    1    3    3    0    0 -0.38813235108E+01 -0.19302596180E+01 -0.45601342350E+01  0.62916928478E+01  0.51100000000E-03 0. -1.
        -11    1    3    3    0    0 -0.11298037053E+02  0.52201405187E+01 -0.60304437885E+01  0.13829741893E+02  0.51100000000E-03 0.  1.
         12    1    3    3    0    0 -0.22982175281E+02 -0.17301225782E+02  0.98539613882E+01  0.30407455487E+02  0.00000000000E+00 0. -1.
</event>
<event>
 7    1  0.2903212E-011  0.5052886E+02  0.7816164E-02  0.1300439E+00
        -11   -1    0    0    0    0  0.00000000000E+00  0.00000000000E+00  0.45593999997E+02  0.45594000000E+02  0.51100000000E-03 0. -1.
         11   -1    0    0    0    0 -0.00000000000E+00 -0.00000000000E+00 -0.45593999997E+02  0.45594000000E+02  0.51100000000E-03 0.  1.
    9900012    2    1    2    0    0 -0.30594888436E+02  0.19083689704E+02 -0.18786464616E+02  0.50528860020E+02  0.30000000516E+02 0.  0.
        -12    1    1    2    0    0  0.30594888436E+02 -0.19083689704E+02  0.18786464616E+02  0.40659139980E+02  0.00000000000E+00 0.  1.
         11    1    3    3    0    0 -0.53744923095E+01  0.53291789173E+01  0.73224559104E+00  0.76040449357E+01  0.51100000000E-03 0. -1.
        -11    1    3    3    0    0 -0.18161149122E+02  0.11653679143E+01  0.54776996173E+00  0.18206742487E+02  0.51100000000E-03 0.  1.
        -12    1    3    3    0    0 -0.70592470050E+01  0.12589142873E+02 -0.20066480169E+02  0.24718072597E+02  0.00000000000E+00 0.  1.
</event>
<event>
 7    1  0.2903212E-011  0.5052886E+02  0.7816164E-02  0.1300439E+00
        -11   -1    0    0    0    0  0.00000000000E+00  0.00000000000E+00  0.45593999997E+02  0.45594000000E+02  0.51100000000E-03 0. -1.
         11   -1    0    0    0    0 -0.00000000000E+00 -0.00000000000E+00 -0.45593999997E+02  0.45594000000E+02  0.51100000000E-03 0.  1.
    9900012    2    1    2    0    0  0.84385755315E+01  0.29367692863E+02  0.26823402330E+02  0.50528857686E+02  0.29999993424E+02 0.  0.
        -12    1    1    2    0    0 -0.84385755315E+01 -0.29367692863E+02 -0.26823402330E+02  0.40659142314E+02  0.00000000000E+00 0.  1.
         11    1    3    3    0    0  0.52860156628E+01 -0.31042537435E+00 -0.31018790767E+00  0.53042004392E+01  0.51100000000E-03 0. -1.
        -11    1    3    3    0    0  0.36971262797E+01  0.69029334216E+01 -0.21524010774E+01  0.81210875632E+01  0.51100000000E-03 0.  1.
        -12    1    3    3    0    0 -0.54456641101E+00  0.22775184816E+02  0.29285991315E+02  0.37103569684E+02  0.00000000000E+00 0.  1.
</event>
<event>
 7    1  0.2903212E-011  0.5052884E+02  0.7816164E-02  0.1300439E+00
        -11   -1    0    0    0    0  0.00000000000E+00  0.00000000000E+00  0.45593999997E+02  0.45594000000E+02  0.51100000000E-03 0. -1.
         11   -1    0    0    0    0 -0.00000000000E+00 -0.00000000000E+00 -0.45593999997E+02  0.45594000000E+02  0.51100000000E-03 0.  1.
    9900012    2    1    2    0    0  0.13053215872E+02 -0.38185632510E+02 -0.49637258987E+01  0.50528836831E+02  0.29999930032E+02 0.  0.
        -12    1    1    2    0    0 -0.13053215872E+02  0.38185632510E+02  0.49637258987E+01  0.40659163169E+02  0.00000000000E+00 0.  1.
         11    1    3    3    0    0  0.12647303392E+01 -0.11790523768E+02 -0.44958431845E+01  0.12681821626E+02  0.51100000000E-03 0. -1.
        -11    1    3    3    0    0 -0.17470954019E+01 -0.21700768287E+02  0.52937494478E+01  0.22405344676E+02  0.51100000000E-03 0.  1.
        -12    1    3    3    0    0  0.13535580935E+02 -0.46943404549E+01 -0.57616321621E+01  0.15441670529E+02  0.00000000000E+00 0.  1.
</event>
<event>
 7    1  0.2903212E-011  0.5052886E+02  0.7816164E-02  0.1300439E+00
        -11   -1    0    0    0    0  0.00000000000E+00  0.00000000000E+00  0.45593999997E+02  0.45594000000E+02  0.51100000000E-03 0.  1.
         11   -1    0    0    0    0 -0.00000000000E+00 -0.00000000000E+00 -0.45593999997E+02  0.45594000000E+02  0.51100000000E-03 0. -1.
    9900012    2    1    2    0    0  0.20025026780E+02 -0.93708768668E+01 -0.34122583884E+02  0.50528858818E+02  0.29999996862E+02 0.  0.
        -12    1    1    2    0    0 -0.20025026780E+02  0.93708768668E+01  0.34122583884E+02  0.40659141182E+02  0.00000000000E+00 0.  1.
         11    1    3    3    0    0  0.15012214873E+02 -0.81743527325E+01 -0.46868533970E+01  0.17724368339E+02  0.51100000000E-03 0. -1.
        -11    1    3    3    0    0  0.71284474547E+01 -0.35069565690E+01 -0.84957800194E+01  0.11631499727E+02  0.51100000000E-03 0.  1.
        -12    1    3    3    0    0 -0.21156355482E+01  0.23104324347E+01 -0.20939950467E+02  0.21172990752E+02  0.00000000000E+00 0.  1.
</event>
<event>
 7    1  0.2903212E-011  0.5052888E+02  0.7816164E-02  0.1300439E+00
        -11   -1    0    0    0    0  0.00000000000E+00  0.00000000000E+00  0.45593999997E+02  0.45594000000E+02  0.51100000000E-03 0. -1.
         11   -1    0    0    0    0 -0.00000000000E+00 -0.00000000000E+00 -0.45593999997E+02  0.45594000000E+02  0.51100000000E-03 0.  1.
    9900012    2    1    2    0    0 -0.40443910746E+02  0.20296849730E+01  0.36516205780E+01  0.50528882076E+02  0.30000067558E+02 0.  0.
        -12    1    1    2    0    0  0.40443910746E+02 -0.20296849730E+01 -0.36516205780E+01  0.40659117924E+02  0.00000000000E+00 0.  1.
         11    1    3    3    0    0 -0.63908302032E+01  0.73982906153E+01  0.13537403320E+01  0.98696518612E+01  0.51100000000E-03 0. -1.
        -11    1    3    3    0    0  0.10890879105E+00  0.36390834895E+01 -0.32699378637E+01  0.48935961891E+01  0.51100000000E-03 0.  1.
         12    1    3    3    0    0 -0.34161989334E+02 -0.90076891318E+01  0.55678181097E+01  0.35765634026E+02  0.00000000000E+00 0. -1.
</event>
<event>
 7    1  0.2903212E-011  0.5052886E+02  0.7816164E-02  0.1300439E+00
        -11   -1    0    0    0    0  0.00000000000E+00  0.00000000000E+00  0.45593999997E+02  0.45594000000E+02  0.51100000000E-03 0. -1.
         11   -1    0    0    0    0 -0.00000000000E+00 -0.00000000000E+00 -0.45593999997E+02  0.45594000000E+02  0.51100000000E-03 0.  1.
    9900012    2    1    2    0    0 -0.22947156052E+02  0.25099076137E+02  0.22285198411E+02  0.50528860043E+02  0.30000000587E+02 0.  0.
        -12    1    1    2    0    0  0.22947156052E+02 -0.25099076137E+02 -0.22285198411E+02  0.40659139957E+02  0.00000000000E+00 0.  1.
         11    1    3    3    0    0  0.27225918197E+01  0.11014726461E+01  0.78383989639E+00  0.30397620714E+01  0.51100000000E-03 0. -1.
        -11    1    3    3    0    0  0.24127655171E+01 -0.25528056536E+01  0.63605203943E+00  0.35697081959E+01  0.51100000000E-03 0.  1.
         12    1    3    3    0    0 -0.28082513389E+02  0.26550409144E+02  0.20865306475E+02  0.43919389776E+02  0.00000000000E+00 0. -1.
</event>
<event>
 7    1  0.2903212E-011  0.5052886E+02  0.7816164E-02  0.1300439E+00
        -11   -1    0    0    0    0  0.00000000000E+00  0.00000000000E+00  0.45593999997E+02  0.45594000000E+02  0.51100000000E-03 0. -1.
         11   -1    0    0    0    0 -0.00000000000E+00 -0.00000000000E+00 -0.45593999997E+02  0.45594000000E+02  0.51100000000E-03 0.  1.
    9900012    2    1    2    0    0  0.33979622416E+01 -0.35513662819E+02  0.19503827453E+02  0.50528859828E+02  0.29999999934E+02 0.  0.
        -12    1    1    2    0    0 -0.33979622416E+01  0.35513662819E+02 -0.19503827453E+02  0.40659140172E+02  0.00000000000E+00 0.  1.
         11    1    3    3    0    0  0.88473781223E+01 -0.69563756392E+01 -0.23052172963E+01  0.11488310960E+02  0.51100000000E-03 0. -1.
        -11    1    3    3    0    0  0.38335897672E+01 -0.90236607417E+01  0.26712145826E+01  0.10161606728E+02  0.51100000000E-03 0.  1.
         12    1    3    3    0    0 -0.92830056479E+01 -0.19533626438E+02  0.19137830166E+02  0.28878942140E+02  0.00000000000E+00 0. -1.
</event>
<event>
 7    1  0.2903212E-011  0.5052885E+02  0.7816164E-02  0.1300439E+00
        -11   -1    0    0    0    0  0.00000000000E+00  0.00000000000E+00  0.45593999997E+02  0.45594000000E+02  0.51100000000E-03 0. -1.
         11   -1    0    0    0    0 -0.00000000000E+00 -0.00000000000E+00 -0.45593999997E+02  0.45594000000E+02  0.51100000000E-03 0.  1.
    9900012    2    1    2    0    0 -0.14220299156E+02  0.31710005306E+02  0.21105091016E+02  0.50528853288E+02  0.29999980054E+02 0.  0.
        -12    1    1    2    0    0  0.14220299156E+02 -0.31710005306E+02 -0.21105091016E+02  0.40659146712E+02  0.00000000000E+00 0.  1.
         11    1    3    3    0    0 -0.95437843608E+01  0.20954035098E+01  0.11308495065E+02  0.14945119494E+02  0.51100000000E-03 0. -1.
        -11    1    3    3    0    0 -0.46363168325E+01  0.12331927527E+01 -0.15152080698E+01  0.50311086147E+01  0.51100000000E-03 0.  1.
        -12    1    3    3    0    0 -0.40197962799E-01  0.28381409043E+02  0.11311804021E+02  0.30552625179E+02  0.00000000000E+00 0.  1.
</event>
<event>
 7    1  0.2903212E-011  0.5052887E+02  0.7816164E-02  0.1300439E+00
        -11   -1    0    0    0    0  0.00000000000E+00  0.00000000000E+00  0.45593999997E+02  0.45594000000E+02  0.51100000000E-03 0.  1.
         11   -1    0    0    0    0 -0.00000000000E+00 -0.00000000000E+00 -0.45593999997E+02  0.45594000000E+02  0.51100000000E-03 0. -1.
    9900012    2    1    2    0    0  0.14378264415E+02  0.19103520074E+02 -0.32885953592E+02  0.50528869286E+02  0.30000028681E+02 0.  0.
        -12    1    1    2    0    0 -0.14378264415E+02 -0.19103520074E+02  0.32885953592E+02  0.40659130714E+02  0.00000000000E+00 0.  1.
         11    1    3    3    0    0  0.12985077537E+02  0.99710381283E+01 -0.18598349589E+02  0.24777660254E+02  0.51100000000E-03 0. -1.
        -11    1    3    3    0    0  0.86428868759E+01  0.99294860660E+01 -0.53357281642E+01  0.14204371946E+02  0.51100000000E-03 0.  1.
        -12    1    3    3    0    0 -0.72496999985E+01 -0.79700412050E+00 -0.89518758390E+01  0.11546837085E+02  0.00000000000E+00 0.  1.
</event>
<event>
 7    1  0.2903212E-011  0.5052884E+02  0.7816164E-02  0.1300439E+00
        -11   -1    0    0    0    0  0.00000000000E+00  0.00000000000E+00  0.45593999997E+02  0.45594000000E+02  0.51100000000E-03 0.  1.
         11   -1    0    0    0    0 -0.00000000000E+00 -0.00000000000E+00 -0.45593999997E+02  0.45594000000E+02  0.51100000000E-03 0. -1.
    9900012    2    1    2    0    0 -0.91220998697E+01  0.34212188977E+02 -0.19987014857E+02  0.50528839365E+02  0.29999937734E+02 0.  0.
        -12    1    1    2    0    0  0.91220998697E+01 -0.34212188977E+02  0.19987014857E+02  0.40659160635E+02  0.00000000000E+00 0.  1.
         11    1    3    3    0    0  0.54806133512E+01  0.17328728119E+02 -0.42380706500E+01  0.18662346691E+02  0.51100000000E-03 0. -1.
        -11    1    3    3    0    0  0.33506416888E+01  0.24439242582E+01 -0.36577930361E+00  0.41633352335E+01  0.51100000000E-03 0.  1.
         12    1    3    3    0    0 -0.17953354910E+02  0.14439536601E+02 -0.15383164903E+02  0.27703157441E+02  0.00000000000E+00 0. -1.
</event>
<event>
 7    1  0.2903212E-011  0.5052886E+02  0.7816164E-02  0.1300439E+00
        -11   -1    0    0    0    0  0.00000000000E+00  0.00000000000E+00  0.45593999997E+02  0.45594000000E+02  0.51100000000E-03 0.  1.
         11   -1    0    0    0    0 -0.00000000000E+00 -0.00000000000E+00 -0.45593999997E+02  0.45594000000E+02  0.51100000000E-03 0. -1.
    9900012    2    1    2    0    0 -0.33268914397E+02  0.12037645436E+02  0.20035978494E+02  0.50528855801E+02  0.29999987692E+02 0.  0.
        -12    1    1    2    0    0  0.33268914397E+02 -0.12037645436E+02 -0.20035978494E+02  0.40659144199E+02  0.00000000000E+00 0.  1.
         11    1    3    3    0    0 -0.13888855612E+01 -0.71603867482E-01  0.49013967059E+01  0.50948817597E+01  0.51100000000E-03 0.  1.
        -11    1    3    3    0    0 -0.14785966984E+02 -0.65330452508E+01  0.11597088885E+02  0.19894671919E+02  0.51100000000E-03 0. -1.
         12    1    3    3    0    0 -0.17094061851E+02  0.18642294554E+02  0.35374929037E+01  0.25539302122E+02  0.00000000000E+00 0. -1.
</event>
<event>
 7    1  0.2903212E-011  0.5052883E+02  0.7816164E-02  0.1300439E+00
        -11   -1    0    0    0    0  0.00000000000E+00  0.00000000000E+00  0.45593999997E+02  0.45594000000E+02  0.51100000000E-03 0.  1.
         11   -1    0    0    0    0 -0.00000000000E+00 -0.00000000000E+00 -0.45593999997E+02  0.45594000000E+02  0.51100000000E-03 0. -1.
    9900012    2    1    2    0    0 -0.26217540547E+02  0.63174408337E+01 -0.30428584358E+02  0.50528828377E+02  0.29999904335E+02 0.  0.
        -12    1    1    2    0    0  0.26217540547E+02 -0.63174408337E+01  0.30428584358E+02  0.40659171623E+02  0.00000000000E+00 0.  1.
         11    1    3    3    0    0  0.40389125527E+01  0.61375104970E+00 -0.87544679130E+01  0.96607563710E+01  0.51100000000E-03 0. -1.
        -11    1    3    3    0    0 -0.79230425568E+01 -0.41339599796E+01 -0.12077678715E+01  0.90179228186E+01  0.51100000000E-03 0.  1.
         12    1    3    3    0    0 -0.22333410543E+02  0.98376497637E+01 -0.20466348573E+02  0.31850149188E+02  0.00000000000E+00 0. -1.
</event>
<event>
 7    1  0.2903212E-011  0.5052886E+02  0.7816164E-02  0.1300439E+00
        -11   -1    0    0    0    0  0.00000000000E+00  0.00000000000E+00  0.45593999997E+02  0.45594000000E+02  0.51100000000E-03 0.  1.
         11   -1    0    0    0    0 -0.00000000000E+00 -0.00000000000E+00 -0.45593999997E+02  0.45594000000E+02  0.51100000000E-03 0. -1.
    9900012    2    1    2    0    0 -0.25912507196E+02 -0.66244458069E+01 -0.30623920500E+02  0.50528858122E+02  0.29999994748E+02 0.  0.
        -12    1    1    2    0    0  0.25912507196E+02  0.66244458069E+01  0.30623920500E+02  0.40659141878E+02  0.00000000000E+00 0.  1.
         11    1    3    3    0    0 -0.37286294161E+01 -0.32641865777E+01 -0.13895825174E+02  0.14753018296E+02  0.51100000000E-03 0. -1.
        -11    1    3    3    0    0  0.33515772787E+01 -0.48223117498E+01 -0.46475272685E+01  0.74891435318E+01  0.51100000000E-03 0.  1.
        -12    1    3    3    0    0 -0.25535455058E+02  0.14620525206E+01 -0.12080568058E+02  0.28286696294E+02  0.00000000000E+00 0.  1.
</event>
<event>
 7    1  0.2903212E-011  0.5052886E+02  0.7816164E-02  0.1300439E+00
        -11   -1    0    0    0    0  0.00000000000E+00  0.00000000000E+00  0.45593999997E+02  0.45594000000E+02  0.51100000000E-03 0. -1.
         11   -1    0    0    0    0 -0.00000000000E+00 -0.00000000000E+00 -0.45593999997E+02  0.45594000000E+02  0.51100000000E-03 0.  1.
    9900012    2    1    2    0    0 -0.20763899253E+02  0.33704000960E+02 -0.92772048945E+01  0.50528859287E+02  0.29999998288E+02 0.  0.
        -12    1    1    2    0    0  0.20763899253E+02 -0.33704000960E+02  0.92772048945E+01  0.40659140713E+02  0.00000000000E+00 0.  1.
         11    1    3    3    0    0 -0.63948322846E+01  0.22141496959E+02 -0.68196420311E+01  0.24034293941E+02  0.51100000000E-03 0. -1.
        -11    1    3    3    0    0 -0.13015670114E+01  0.12568656252E+02  0.16886029701E+01  0.12748198968E+02  0.51100000000E-03 0.  1.
        -12    1    3    3    0    0 -0.13067499957E+02 -0.10061522518E+01 -0.41461658335E+01  0.13746366378E+02  0.00000000000E+00 0.  1.
</event>
<event>
 7    1  0.2903212E-011  0.5052885E+02  0.7816164E-02  0.1300439E+00
        -11   -1    0    0    0    0  0.00000000000E+00  0.00000000000E+00  0.45593999997E+02  0.45594000000E+02  0.51100000000E-03 0.  1.
         11   -1    0    0    0    0 -0.00000000000E+00 -0.00000000000E+00 -0.45593999997E+02  0.45594000000E+02  0.51100000000E-03 0. -1.
    9900012    2    1    2    0    0 -0.35632085135E+02 -0.19577604163E+02  0.48824822155E+00  0.50528850204E+02  0.29999970680E+02 0.  0.
        -12    1    1    2    0    0  0.35632085135E+02  0.19577604163E+02 -0.48824822155E+00  0.40659149796E+02  0.00000000000E+00 0.  1.
         11    1    3    3    0    0 -0.80435423955E+00 -0.68303152662E+01 -0.17543686314E+01  0.70977462574E+01  0.51100000000E-03 0. -1.
        -11    1    3    3    0    0 -0.24335101357E+02 -0.15332016633E+02  0.96407322616E+01  0.30334989878E+02  0.51100000000E-03 0.  1.
         12    1    3    3    0    0 -0.10492629538E+02  0.25847277366E+01 -0.73981154086E+01  0.13096114068E+02  0.00000000000E+00 0. -1.
</event>
<event>
 7    1  0.2903212E-011  0.5052885E+02  0.7816164E-02  0.1300439E+00
        -11   -1    0    0    0    0  0.00000000000E+00  0.00000000000E+00  0.45593999997E+02  0.45594000000E+02  0.51100000000E-03 0.  1.
         11   -1    0    0    0    0 -0.00000000000E+00 -0.00000000000E+00 -0.45593999997E+02  0.45594000000E+02  0.51100000000E-03 0. -1.
    9900012    2    1    2    0    0  0.56253404682E+01  0.18940584374E+02 -0.35535563019E+02  0.50528850588E+02  0.29999971847E+02 0.  0.
        -12    1    1    2    0    0 -0.56253404682E+01 -0.18940584374E+02  0.35535563019E+02  0.40659149412E+02  0.00000000000E+00 0.  1.
         11    1    3    3    0    0  0.49078125607E+01  0.15993169787E+02 -0.98329809965E+01  0.19405041085E+02  0.51100000000E-03 0. -1.
        -11    1    3    3    0    0  0.19764633777E+01  0.10098759873E+02 -0.14991728760E+02  0.18183599476E+02  0.51100000000E-03 0.  1.
        -12    1    3    3    0    0 -0.12589354703E+01 -0.71513452857E+01 -0.10710853263E+02  0.12940210027E+02  0.00000000000E+00 0.  1.
</event>
<event>
 7    1  0.2903212E-011  0.5052887E+02  0.7816164E-02  0.1300439E+00
        -11   -1    0    0    0    0  0.00000000000E+00  0.00000000000E+00  0.45593999997E+02  0.45594000000E+02  0.51100000000E-03 0. -1.
         11   -1    0    0    0    0 -0.00000000000E+00 -0.00000000000E+00 -0.45593999997E+02  0.45594000000E+02  0.51100000000E-03 0.  1.
    9900012    2    1    2    0    0  0.12451296631E+02 -0.15206977694E+02  0.35593227160E+02  0.50528870914E+02  0.30000033631E+02 0.  0.
        -12    1    1    2    0    0 -0.12451296631E+02  0.15206977694E+02 -0.35593227160E+02  0.40659129086E+02  0.00000000000E+00 0.  1.
         11    1    3    3    0    0  0.75769692848E+01 -0.79149264018E+01  0.16947201070E+01  0.11087317078E+02  0.51100000000E-03 0. -1.
        -11    1    3    3    0    0  0.27419670703E+01  0.55468607478E+01  0.17141392696E+02  0.18223978474E+02  0.51100000000E-03 0.  1.
         12    1    3    3    0    0  0.21323602758E+01 -0.12838912039E+02  0.16757114357E+02  0.21217575362E+02  0.00000000000E+00 0. -1.
</event>
<event>
 7    1  0.2903212E-011  0.5052886E+02  0.7816164E-02  0.1300439E+00
        -11   -1    0    0    0    0  0.00000000000E+00  0.00000000000E+00  0.45593999997E+02  0.45594000000E+02  0.51100000000E-03 0.  1.
         11   -1    0    0    0    0 -0.00000000000E+00 -0.00000000000E+00 -0.45593999997E+02  0.45594000000E+02  0.51100000000E-03 0. -1.
    9900012    2    1    2    0    0  0.32468556856E+02 -0.64129564627E+01 -0.23618485538E+02  0.50528855223E+02  0.29999985936E+02 0.  0.
        -12    1    1    2    0    0 -0.32468556856E+02  0.64129564627E+01  0.23618485538E+02  0.40659144777E+02  0.00000000000E+00 0.  1.
         11    1    3    3    0    0  0.16037394349E+02 -0.12378929217E+01 -0.15180056520E+02  0.22117063833E+02  0.51100000000E-03 0. -1.
        -11    1    3    3    0    0  0.20633897491E+02 -0.31215599236E+01 -0.10427519627E+02  0.23328845404E+02  0.51100000000E-03 0.  1.
        -12    1    3    3    0    0 -0.42027349844E+01 -0.20535036174E+01  0.19890906084E+01  0.50829459868E+01  0.00000000000E+00 0.  1.
</event>
<event>
 7    1  0.2903212E-011  0.5052890E+02  0.7816164E-02  0.1300439E+00
        -11   -1    0    0    0    0  0.00000000000E+00  0.00000000000E+00  0.45593999997E+02  0.45594000000E+02  0.51100000000E-03 0. -1.
         11   -1    0    0    0    0 -0.00000000000E+00 -0.00000000000E+00 -0.45593999997E+02  0.45594000000E+02  0.51100000000E-03 0.  1.
    9900012    2    1    2    0    0  0.30893908950E+02 -0.24919124576E+02  0.88185174534E+01  0.50528897330E+02  0.30000113924E+02 0.  0.
        -12    1    1    2    0    0 -0.30893908950E+02  0.24919124576E+02 -0.88185174534E+01  0.40659102670E+02  0.00000000000E+00 0.  1.
         11    1    3    3    0    0  0.66390134683E+01 -0.10007660143E+02  0.68389812256E+01  0.13820326546E+02  0.51100000000E-03 0. -1.
        -11    1    3    3    0    0  0.53926689677E+01  0.54389015160E+01 -0.35070365811E+01  0.84238847415E+01  0.51100000000E-03 0.  1.
         12    1    3    3    0    0  0.18862226514E+02 -0.20350365949E+02  0.54865728089E+01  0.28284686042E+02  0.00000000000E+00 0. -1.
</event>
<event>
 7    1  0.2903212E-011  0.5052886E+02  0.7816164E-02  0.1300439E+00
        -11   -1    0    0    0    0  0.00000000000E+00  0.00000000000E+00  0.45593999997E+02  0.45594000000E+02  0.51100000000E-03 0.  1.
         11   -1    0    0    0    0 -0.00000000000E+00 -0.00000000000E+00 -0.45593999997E+02  0.45594000000E+02  0.51100000000E-03 0. -1.
    9900012    2    1    2    0    0 -0.42333851984E+01 -0.39444237657E+02 -0.89104431672E+01  0.50528862872E+02  0.30000009186E+02 0.  0.
        -12    1    1    2    0    0  0.42333851984E+01  0.39444237657E+02  0.89104431672E+01  0.40659137128E+02  0.00000000000E+00 0.  1.
         11    1    3    3    0    0 -0.14326840784E+01 -0.61288839387E+01 -0.49522820909E+00  0.63135610588E+01  0.51100000000E-03 0. -1.
        -11    1    3    3    0    0 -0.11932712698E+02 -0.53991958757E+01 -0.69015632846E+01  0.14804476501E+02  0.51100000000E-03 0.  1.
        -12    1    3    3    0    0  0.91320115783E+01 -0.27916157842E+02 -0.15136516735E+01  0.29410825312E+02  0.00000000000E+00 0.  1.
</event>
<event>
 7    1  0.2903212E-011  0.5052886E+02  0.7816164E-02  0.1300439E+00
        -11   -1    0    0    0    0  0.00000000000E+00  0.00000000000E+00  0.45593999997E+02  0.45594000000E+02  0.51100000000E-03 0. -1.
         11   -1    0    0    0    0 -0.00000000000E+00 -0.00000000000E+00 -0.45593999997E+02  0.45594000000E+02  0.51100000000E-03 0.  1.
    9900012    2    1    2    0    0  0.36619025191E+02 -0.13869730857E+02  0.10947292556E+02  0.50528860138E+02  0.30000000876E+02 0.  0.
        -12    1    1    2    0    0 -0.36619025191E+02  0.13869730857E+02 -0.10947292556E+02  0.40659139862E+02  0.00000000000E+00 0.  1.
         11    1    3    3    0    0  0.12060411116E+02 -0.88911791664E+01  0.44882839032E+01  0.15641332293E+02  0.51100000000E-03 0. -1.
        -11    1    3    3    0    0  0.41274760255E+01 -0.11992458466E+02  0.23772046528E+01  0.12903728942E+02  0.51100000000E-03 0.  1.
        -12    1    3    3    0    0  0.20431138050E+02  0.70139067758E+01  0.40818040001E+01  0.21983798902E+02  0.00000000000E+00 0.  1.
</event>
<event>
 7    1  0.2903212E-011  0.5052886E+02  0.7816164E-02  0.1300439E+00
        -11   -1    0    0    0    0  0.00000000000E+00  0.00000000000E+00  0.45593999997E+02  0.45594000000E+02  0.51100000000E-03 0.  1.
         11   -1    0    0    0    0 -0.00000000000E+00 -0.00000000000E+00 -0.45593999997E+02  0.45594000000E+02  0.51100000000E-03 0. -1.
    9900012    2    1    2    0    0 -0.27916647320E+02  0.79694859910E+01 -0.28466016638E+02  0.50528855792E+02  0.29999987664E+02 0.  0.
        -12    1    1    2    0    0  0.27916647320E+02 -0.79694859910E+01  0.28466016638E+02  0.40659144208E+02  0.00000000000E+00 0.  1.
         11    1    3    3    0    0 -0.76243470968E+01  0.35542591220E+00 -0.15578660108E+02  0.17347958014E+02  0.51100000000E-03 0. -1.
        -11    1    3    3    0    0  0.35295837360E+01  0.16020858081E+00 -0.65278329912E+01  0.74226836091E+01  0.51100000000E-03 0.  1.
         12    1    3    3    0    0 -0.23821883959E+02  0.74538514979E+01 -0.63595235385E+01  0.25758214169E+02  0.00000000000E+00 0. -1.
</event>
<event>
 7    1  0.2903212E-011  0.5052886E+02  0.7816164E-02  0.1300439E+00
        -11   -1    0    0    0    0  0.00000000000E+00  0.00000000000E+00  0.45593999997E+02  0.45594000000E+02  0.51100000000E-03 0.  1.
         11   -1    0    0    0    0 -0.00000000000E+00 -0.00000000000E+00 -0.45593999997E+02  0.45594000000E+02  0.51100000000E-03 0. -1.
    9900012    2    1    2    0    0 -0.16947555390E+02 -0.15421442172E+02 -0.33587571155E+02  0.50528862669E+02  0.30000008570E+02 0.  0.
        -12    1    1    2    0    0  0.16947555390E+02  0.15421442172E+02  0.33587571155E+02  0.40659137331E+02  0.00000000000E+00 0.  1.
         11    1    3    3    0    0 -0.16314863701E+02 -0.13069336490E+02 -0.16597133526E+02  0.26691706117E+02  0.51100000000E-03 0. -1.
        -11    1    3    3    0    0  0.34995714184E+00  0.51256365504E+01  0.11922626030E+00  0.51389527348E+01  0.51100000000E-03 0.  1.
         12    1    3    3    0    0 -0.98264883120E+00 -0.74777422323E+01 -0.17109663889E+02  0.18698203818E+02  0.00000000000E+00 0. -1.
</event>
<event>
 7    1  0.2903212E-011  0.5052886E+02  0.7816164E-02  0.1300439E+00
        -11   -1    0    0    0    0  0.00000000000E+00  0.00000000000E+00  0.45593999997E+02  0.45594000000E+02  0.51100000000E-03 0. -1.
         11   -1    0    0    0    0 -0.00000000000E+00 -0.00000000000E+00 -0.45593999997E+02  0.45594000000E+02  0.51100000000E-03 0.  1.
    9900012    2    1    2    0    0  0.10132222843E+02  0.36236047311E+02  0.15409494777E+02  0.50528860883E+02  0.30000003139E+02 0.  0.
        -12    1    1    2    0    0 -0.10132222843E+02 -0.36236047311E+02 -0.15409494777E+02  0.40659139117E+02  0.00000000000E+00 0.  1.
         11    1    3    3    0    0 -0.37624575629E+01  0.24371195239E+01  0.68324785233E+01  0.81718052790E+01  0.51100000000E-03 0.  1.
        -11    1    3    3    0    0  0.64033923125E+01  0.87000116101E+01  0.11763368720E+02  0.15970926054E+02  0.51100000000E-03 0. -1.
        -12    1    3    3    0    0  0.74912880929E+01  0.25098916177E+02 -0.31863524660E+01  0.26386129550E+02  0.00000000000E+00 0.  1.
</event>
<event>
 7    1  0.2903212E-011  0.5052886E+02  0.7816164E-02  0.1300439E+00
        -11   -1    0    0    0    0  0.00000000000E+00  0.00000000000E+00  0.45593999997E+02  0.45594000000E+02  0.51100000000E-03 0. -1.
         11   -1    0    0    0    0 -0.00000000000E+00 -0.00000000000E+00 -0.45593999997E+02  0.45594000000E+02  0.51100000000E-03 0.  1.
    9900012    2    1    2    0    0 -0.27960660529E+02 -0.23560279598E+02  0.17784269294E+02  0.50528861467E+02  0.30000004914E+02 0.  0.
        -12    1    1    2    0    0  0.27960660529E+02  0.23560279598E+02 -0.17784269294E+02  0.40659138533E+02  0.00000000000E+00 0.  1.
         11    1    3    3    0    0 -0.53790296762E+00  0.43374002927E+00  0.28104291667E+01  0.28941289497E+01  0.51100000000E-03 0. -1.
        -11    1    3    3    0    0 -0.30551901024E+02 -0.16623049243E+02  0.54729018155E+01  0.35209332241E+02  0.51100000000E-03 0.  1.
         12    1    3    3    0    0  0.31291434623E+01 -0.73709703844E+01  0.95009383115E+01  0.12425400276E+02  0.00000000000E+00 0. -1.
</event>
<event>
 7    1  0.2903212E-011  0.5052886E+02  0.7816164E-02  0.1300439E+00
        -11   -1    0    0    0    0  0.00000000000E+00  0.00000000000E+00  0.45593999997E+02  0.45594000000E+02  0.51100000000E-03 0.  1.
         11   -1    0    0    0    0 -0.00000000000E+00 -0.00000000000E+00 -0.45593999997E+02  0.45594000000E+02  0.51100000000E-03 0. -1.
    9900012    2    1    2    0    0 -0.37233834513E+02 -0.15436028617E+02 -0.53419373539E+01  0.50528859494E+02  0.29999998917E+02 0.  0.
        -12    1    1    2    0    0  0.37233834513E+02  0.15436028617E+02  0.53419373539E+01  0.40659140506E+02  0.00000000000E+00 0.  1.
         11    1    3    3    0    0 -0.10042118494E+02 -0.19145528945E+02 -0.21743383716E+01  0.21728395478E+02  0.51100000000E-03 0. -1.
        -11    1    3    3    0    0 -0.16757851396E+02 -0.11513760787E+01 -0.39760333112E+01  0.17261520543E+02  0.51100000000E-03 0.  1.
        -12    1    3    3    0    0 -0.10433864623E+02  0.48608764066E+01  0.80843432890E+00  0.11538943473E+02  0.00000000000E+00 0.  1.
</event>
<event>
 7    1  0.2903212E-011  0.5052886E+02  0.7816164E-02  0.1300439E+00
        -11   -1    0    0    0    0  0.00000000000E+00  0.00000000000E+00  0.45593999997E+02  0.45594000000E+02  0.51100000000E-03 0.  1.
         11   -1    0    0    0    0 -0.00000000000E+00 -0.00000000000E+00 -0.45593999997E+02  0.45594000000E+02  0.51100000000E-03 0. -1.
    9900012    2    1    2    0    0  0.20990056587E+02  0.92337071582E+01 -0.33575613913E+02  0.50528859908E+02  0.30000000175E+02 0.  0.
        -12    1    1    2    0    0 -0.20990056587E+02 -0.92337071582E+01  0.33575613913E+02  0.40659140092E+02  0.00000000000E+00 0.  1.
         11    1    3    3    0    0  0.50956169037E+01  0.15394107844E+02 -0.16700226322E+02  0.23277487566E+02  0.51100000000E-03 0. -1.
        -11    1    3    3    0    0  0.65997653399E+01  0.34761580557E+01 -0.32109717954E+01  0.81210170238E+01  0.51100000000E-03 0.  1.
        -12    1    3    3    0    0  0.92946743439E+01 -0.96365587414E+01 -0.13664415796E+02  0.19130355317E+02  0.00000000000E+00 0.  1.
</event>
<event>
 7    1  0.2903212E-011  0.5052886E+02  0.7816164E-02  0.1300439E+00
        -11   -1    0    0    0    0  0.00000000000E+00  0.00000000000E+00  0.45593999997E+02  0.45594000000E+02  0.51100000000E-03 0.  1.
         11   -1    0    0    0    0 -0.00000000000E+00 -0.00000000000E+00 -0.45593999997E+02  0.45594000000E+02  0.51100000000E-03 0. -1.
    9900012    2    1    2    0    0  0.18450830609E+02  0.20629814384E+02 -0.29784952304E+02  0.50528858649E+02  0.29999996349E+02 0.  0.
        -12    1    1    2    0    0 -0.18450830609E+02 -0.20629814384E+02  0.29784952304E+02  0.40659141351E+02  0.00000000000E+00 0.  1.
         11    1    3    3    0    0  0.14467948166E+02  0.78861869932E+01 -0.99755313830E+01  0.19262001351E+02  0.51100000000E-03 0. -1.
        -11    1    3    3    0    0  0.12072467855E+02  0.72592796574E+01 -0.91120736310E+01  0.16777112605E+02  0.51100000000E-03 0.  1.
         12    1    3    3    0    0 -0.80895854123E+01  0.54843477332E+01 -0.10697347290E+02  0.14489744692E+02  0.00000000000E+00 0. -1.
</event>
<event>
 7    1  0.2903212E-011  0.5052886E+02  0.7816164E-02  0.1300439E+00
        -11   -1    0    0    0    0  0.00000000000E+00  0.00000000000E+00  0.45593999997E+02  0.45594000000E+02  0.51100000000E-03 0.  1.
         11   -1    0    0    0    0 -0.00000000000E+00 -0.00000000000E+00 -0.45593999997E+02  0.45594000000E+02  0.51100000000E-03 0. -1.
    9900012    2    1    2    0    0 -0.37396871334E+02  0.21769779678E+00 -0.15955956109E+02  0.50528856954E+02  0.29999991198E+02 0.  0.
        -12    1    1    2    0    0  0.37396871334E+02 -0.21769779678E+00  0.15955956109E+02  0.40659143046E+02  0.00000000000E+00 0.  1.
         11    1    3    3    0    0 -0.18304386794E+02  0.12240884249E+01 -0.19377548556E+00  0.18346294383E+02  0.51100000000E-03 0. -1.
        -11    1    3    3    0    0 -0.62390814497E+01 -0.39767782334E+01  0.40083910415E+01  0.84147549849E+01  0.51100000000E-03 0.  1.
        -12    1    3    3    0    0 -0.12853403090E+02  0.29703876053E+01 -0.19770571665E+02  0.23767807586E+02  0.00000000000E+00 0.  1.
</event>
<event>
 7    1  0.2903212E-011  0.5052884E+02  0.7816164E-02  0.1300439E+00
        -11   -1    0    0    0    0  0.00000000000E+00  0.00000000000E+00  0.45593999997E+02  0.45594000000E+02  0.51100000000E-03 0.  1.
         11   -1    0    0    0    0 -0.00000000000E+00 -0.00000000000E+00 -0.45593999997E+02  0.45594000000E+02  0.51100000000E-03 0. -1.
    9900012    2    1    2    0    0  0.19399698361E+02  0.16046050919E+02 -0.31927157151E+02  0.50528838543E+02  0.29999935236E+02 0.  0.
        -12    1    1    2    0    0 -0.19399698361E+02 -0.16046050919E+02  0.31927157151E+02  0.40659161457E+02  0.00000000000E+00 0.  1.
         11    1    3    3    0    0  0.54656392223E+01  0.14650242765E+02 -0.56244621636E+01  0.16617382468E+02  0.51100000000E-03 0. -1.
        -11    1    3    3    0    0 -0.22438520942E+01  0.33476081437E+01 -0.16385438241E+01  0.43504228104E+01  0.51100000000E-03 0.  1.
         12    1    3    3    0    0  0.16177911233E+02 -0.19517999904E+01 -0.24664151164E+02  0.29561033265E+02  0.00000000000E+00 0. -1.
</event>
<event>
 7    1  0.2903212E-011  0.5052886E+02  0.7816164E-02  0.1300439E+00
        -11   -1    0    0    0    0  0.00000000000E+00  0.00000000000E+00  0.45593999997E+02  0.45594000000E+02  0.51100000000E-03 0. -1.
         11   -1    0    0    0    0 -0.00000000000E+00 -0.00000000000E+00 -0.45593999997E+02  0.45594000000E+02  0.51100000000E-03 0.  1.
    9900012    2    1    2    0    0 -0.25307621185E+02  0.28973038679E+02  0.13162564704E+02  0.50528858717E+02  0.29999996555E+02 0.  0.
        -12    1    1    2    0    0  0.25307621185E+02 -0.28973038679E+02 -0.13162564704E+02  0.40659141283E+02  0.00000000000E+00 0.  1.
         11    1    3    3    0    0 -0.23792298284E+02  0.31016717077E+02  0.17369059155E+02  0.42776096270E+02  0.51100000000E-03 0. -1.
        -11    1    3    3    0    0 -0.88417753899E+00  0.20383127994E+01 -0.68539623739E+00  0.23251359642E+01  0.51100000000E-03 0.  1.
         12    1    3    3    0    0 -0.63114536191E+00 -0.40819911977E+01 -0.35210982137E+01  0.54276264827E+01  0.00000000000E+00 0. -1.
</event>
<event>
 7    1  0.2903212E-011  0.5052887E+02  0.7816164E-02  0.1300439E+00
        -11   -1    0    0    0    0  0.00000000000E+00  0.00000000000E+00  0.45593999997E+02  0.45594000000E+02  0.51100000000E-03 0. -1.
         11   -1    0    0    0    0 -0.00000000000E+00 -0.00000000000E+00 -0.45593999997E+02  0.45594000000E+02  0.51100000000E-03 0.  1.
    9900012    2    1    2    0    0  0.10137052248E+02 -0.38716700650E+02  0.71709482441E+01  0.50528865280E+02  0.30000016505E+02 0.  0.
        -12    1    1    2    0    0 -0.10137052248E+02  0.38716700650E+02 -0.71709482441E+01  0.40659134720E+02  0.00000000000E+00 0.  1.
         11    1    3    3    0    0  0.13937148349E+02 -0.38067345721E+02  0.11521486224E+02  0.42143938585E+02  0.51100000000E-03 0. -1.
        -11    1    3    3    0    0  0.11185142748E+01 -0.10473003384E+01 -0.28352799576E+01  0.32228442223E+01  0.51100000000E-03 0.  1.
        -12    1    3    3    0    0 -0.49186103765E+01  0.39794540962E+00 -0.15152580223E+01  0.51620824731E+01  0.00000000000E+00 0.  1.
</event>
<event>
 7    1  0.2903212E-011  0.5052886E+02  0.7816164E-02  0.1300439E+00
        -11   -1    0    0    0    0  0.00000000000E+00  0.00000000000E+00  0.45593999997E+02  0.45594000000E+02  0.51100000000E-03 0.  1.
         11   -1    0    0    0    0 -0.00000000000E+00 -0.00000000000E+00 -0.45593999997E+02  0.45594000000E+02  0.51100000000E-03 0. -1.
    9900012    2    1    2    0    0 -0.21601482256E+02  0.15598748561E+01 -0.34410874080E+02  0.50528862033E+02  0.30000006636E+02 0.  0.
        -12    1    1    2    0    0  0.21601482256E+02 -0.15598748561E+01  0.34410874080E+02  0.40659137967E+02  0.00000000000E+00 0.  1.
         11    1    3    3    0    0  0.89557475674E+00  0.59125195186E+00 -0.51763559429E+00  0.11914612394E+01  0.51100000000E-03 0. -1.
        -11    1    3    3    0    0  0.35890525708E+00  0.75145466523E+01 -0.20966888164E+02  0.22275718258E+02  0.51100000000E-03 0.  1.
         12    1    3    3    0    0 -0.22855962270E+02 -0.65459237481E+01 -0.12926350322E+02  0.27061682536E+02  0.00000000000E+00 0. -1.
</event>
<event>
 7    1  0.2903212E-011  0.5052886E+02  0.7816164E-02  0.1300439E+00
        -11   -1    0    0    0    0  0.00000000000E+00  0.00000000000E+00  0.45593999997E+02  0.45594000000E+02  0.51100000000E-03 0.  1.
         11   -1    0    0    0    0 -0.00000000000E+00 -0.00000000000E+00 -0.45593999997E+02  0.45594000000E+02  0.51100000000E-03 0. -1.
    9900012    2    1    2    0    0 -0.27750080781E+02  0.82615187037E+01 -0.28545507779E+02  0.50528859711E+02  0.29999999578E+02 0.  0.
        -12    1    1    2    0    0  0.27750080781E+02 -0.82615187037E+01  0.28545507779E+02  0.40659140289E+02  0.00000000000E+00 0.  1.
         11    1    3    3    0    0 -0.48608730807E+01 -0.97005850932E+00  0.25947778897E+01  0.55948166347E+01  0.51100000000E-03 0. -1.
        -11    1    3    3    0    0 -0.55749961924E+01  0.12770098002E+02 -0.18708300416E+02  0.23327162070E+02  0.51100000000E-03 0.  1.
         12    1    3    3    0    0 -0.17314211508E+02 -0.35385207885E+01 -0.12431985253E+02  0.21606881007E+02  0.00000000000E+00 0. -1.
</event>
<event>
 7    1  0.2903212E-011  0.5052886E+02  0.7816164E-02  0.1300439E+00
        -11   -1    0    0    0    0  0.00000000000E+00  0.00000000000E+00  0.45593999997E+02  0.45594000000E+02  0.51100000000E-03 0.  1.
         11   -1    0    0    0    0 -0.00000000000E+00 -0.00000000000E+00 -0.45593999997E+02  0.45594000000E+02  0.51100000000E-03 0. -1.
    9900012    2    1    2    0    0 -0.36539624172E+02  0.93800838577E+01 -0.15166926944E+02  0.50528858584E+02  0.29999996151E+02 0.  0.
        -12    1    1    2    0    0  0.36539624172E+02 -0.93800838577E+01  0.15166926944E+02  0.40659141416E+02  0.00000000000E+00 0.  1.
         11    1    3    3    0    0 -0.75502233352E+01  0.82786377601E+01  0.19471223887E+01  0.11372466814E+02  0.51100000000E-03 0. -1.
        -11    1    3    3    0    0  0.17531250923E+01 -0.32011883010E+01 -0.41205655751E+01  0.55045540280E+01  0.51100000000E-03 0.  1.
         12    1    3    3    0    0 -0.30742525929E+02  0.43026343986E+01 -0.12993483757E+02  0.33651837742E+02  0.00000000000E+00 0. -1.
</event>
<event>
 7    1  0.2903212E-011  0.5052886E+02  0.7816164E-02  0.1300439E+00
        -11   -1    0    0    0    0  0.00000000000E+00  0.00000000000E+00  0.45593999997E+02  0.45594000000E+02  0.51100000000E-03 0.  1.
         11   -1    0    0    0    0 -0.00000000000E+00 -0.00000000000E+00 -0.45593999997E+02  0.45594000000E+02  0.51100000000E-03 0. -1.
    9900012    2    1    2    0    0 -0.18820722189E+02  0.35986566655E+02 -0.19781344823E+01  0.50528861060E+02  0.30000003678E+02 0.  0.
        -12    1    1    2    0    0  0.18820722189E+02 -0.35986566655E+02  0.19781344823E+01  0.40659138940E+02  0.00000000000E+00 0.  1.
         11    1    3    3    0    0 -0.11208795789E+02  0.20438111964E+02  0.71946108837E+01  0.24394998457E+02  0.51100000000E-03 0. -1.
        -11    1    3    3    0    0 -0.30498463335E+01  0.32192278339E+01  0.50805679435E+01  0.67436756590E+01  0.51100000000E-03 0.  1.
         12    1    3    3    0    0 -0.45620800668E+01  0.12329226857E+02 -0.14253313310E+02  0.19390186944E+02  0.00000000000E+00 0. -1.
</event>
<event>
 7    1  0.2903212E-011  0.5052899E+02  0.7816164E-02  0.1300438E+00
        -11   -1    0    0    0    0  0.00000000000E+00  0.00000000000E+00  0.45593999997E+02  0.45594000000E+02  0.51100000000E-03 0. -1.
         11   -1    0    0    0    0 -0.00000000000E+00 -0.00000000000E+00 -0.45593999997E+02  0.45594000000E+02  0.51100000000E-03 0.  1.
    9900012    2    1    2    0    0 -0.89088606867E+01 -0.25748541372E+02  0.30179467908E+02  0.50528985443E+02  0.30000381749E+02 0.  0.
        -12    1    1    2    0    0  0.89088606867E+01  0.25748541372E+02 -0.30179467908E+02  0.40659014557E+02  0.00000000000E+00 0.  1.
         11    1    3    3    0    0 -0.33609993242E+01 -0.15094964576E+02  0.82603600008E+01  0.17532478992E+02  0.51100000000E-03 0. -1.
        -11    1    3    3    0    0 -0.11333803945E+02 -0.19657628478E+01  0.38519793165E+01  0.12130831808E+02  0.51100000000E-03 0.  1.
         12    1    3    3    0    0  0.57859425822E+01 -0.86878139483E+01  0.18067128591E+02  0.20865674643E+02  0.00000000000E+00 0. -1.
</event>
<event>
 7    1  0.2903212E-011  0.5052885E+02  0.7816164E-02  0.1300439E+00
        -11   -1    0    0    0    0  0.00000000000E+00  0.00000000000E+00  0.45593999997E+02  0.45594000000E+02  0.51100000000E-03 0.  1.
         11   -1    0    0    0    0 -0.00000000000E+00 -0.00000000000E+00 -0.45593999997E+02  0.45594000000E+02  0.51100000000E-03 0. -1.
    9900012    2    1    2    0    0  0.13726590364E+02 -0.25065530200E+02 -0.28921722472E+02  0.50528854437E+02  0.29999983546E+02 0.  0.
        -12    1    1    2    0    0 -0.13726590364E+02  0.25065530200E+02  0.28921722472E+02  0.40659145563E+02  0.00000000000E+00 0.  1.
         11    1    3    3    0    0  0.72782078294E+01 -0.28873742110E+01 -0.16349363552E+02  0.18127628854E+02  0.51100000000E-03 0. -1.
        -11    1    3    3    0    0 -0.66794993800E+01 -0.60450879770E+01 -0.47062184862E+01  0.10164019545E+02  0.51100000000E-03 0.  1.
         12    1    3    3    0    0  0.13127881914E+02 -0.16133068012E+02 -0.78661404334E+01  0.22237206037E+02  0.00000000000E+00 0. -1.
</event>
<event>
 7    1  0.2903212E-011  0.5052885E+02  0.7816164E-02  0.1300439E+00
        -11   -1    0    0    0    0  0.00000000000E+00  0.00000000000E+00  0.45593999997E+02  0.45594000000E+02  0.51100000000E-03 0. -1.
         11   -1    0    0    0    0 -0.00000000000E+00 -0.00000000000E+00 -0.45593999997E+02  0.45594000000E+02  0.51100000000E-03 0.  1.
    9900012    2    1    2    0    0  0.33074896078E+02  0.18346137365E+02  0.14921020952E+02  0.50528851300E+02  0.29999974010E+02 0.  0.
        -12    1    1    2    0    0 -0.33074896078E+02 -0.18346137365E+02 -0.14921020952E+02  0.40659148700E+02  0.00000000000E+00 0.  1.
         11    1    3    3    0    0  0.92581457367E+01  0.17727483122E+01  0.21878800714E+01  0.96769167883E+01  0.51100000000E-03 0. -1.
        -11    1    3    3    0    0  0.21329248315E+02  0.18008411983E+02  0.11909255690E+00  0.27915119901E+02  0.51100000000E-03 0.  1.
         12    1    3    3    0    0  0.24875020265E+01 -0.14350229298E+01  0.12614048324E+02  0.12936814610E+02  0.00000000000E+00 0. -1.
</event>
<event>
 7    1  0.2903212E-011  0.5052885E+02  0.7816164E-02  0.1300439E+00
        -11   -1    0    0    0    0  0.00000000000E+00  0.00000000000E+00  0.45593999997E+02  0.45594000000E+02  0.51100000000E-03 0. -1.
         11   -1    0    0    0    0 -0.00000000000E+00 -0.00000000000E+00 -0.45593999997E+02  0.45594000000E+02  0.51100000000E-03 0.  1.
    9900012    2    1    2    0    0 -0.35236482609E+02 -0.18968916934E+02 -0.71928480612E+01  0.50528848760E+02  0.29999966290E+02 0.  0.
        -12    1    1    2    0    0  0.35236482609E+02  0.18968916934E+02  0.71928480612E+01  0.40659151240E+02  0.00000000000E+00 0.  1.
         11    1    3    3    0    0 -0.13698201268E+01 -0.41089946281E+01 -0.68927107498E+01  0.81406207242E+01  0.51100000000E-03 0. -1.
        -11    1    3    3    0    0  0.49726583600E+00 -0.42674846738E+01 -0.44554999095E+01  0.61895216663E+01  0.51100000000E-03 0.  1.
         12    1    3    3    0    0 -0.34363928319E+02 -0.10592437633E+02  0.41553625980E+01  0.36198706369E+02  0.00000000000E+00 0. -1.
</event>
<event>
 7    1  0.2903212E-011  0.5052886E+02  0.7816164E-02  0.1300439E+00
        -11   -1    0    0    0    0  0.00000000000E+00  0.00000000000E+00  0.45593999997E+02  0.45594000000E+02  0.51100000000E-03 0.  1.
         11   -1    0    0    0    0 -0.00000000000E+00 -0.00000000000E+00 -0.45593999997E+02  0.45594000000E+02  0.51100000000E-03 0. -1.
    9900012    2    1    2    0    0 -0.36076150826E+02 -0.13209043227E+02  0.13311576988E+02  0.50528861257E+02  0.30000004277E+02 0.  0.
        -12    1    1    2    0    0  0.36076150826E+02  0.13209043227E+02 -0.13311576988E+02  0.40659138743E+02  0.00000000000E+00 0.  1.
         11    1    3    3    0    0 -0.32822645871E+02 -0.72040141026E+01  0.11167197782E+02  0.35410876969E+02  0.51100000000E-03 0. -1.
        -11    1    3    3    0    0 -0.55045354159E+01 -0.25487307669E+01  0.66557296694E+01  0.90052582617E+01  0.51100000000E-03 0.  1.
        -12    1    3    3    0    0  0.22510304608E+01 -0.34562983571E+01 -0.45113504634E+01  0.61127260262E+01  0.00000000000E+00 0.  1.
</event>
<event>
 7    1  0.2903212E-011  0.5052885E+02  0.7816164E-02  0.1300439E+00
        -11   -1    0    0    0    0  0.00000000000E+00  0.00000000000E+00  0.45593999997E+02  0.45594000000E+02  0.51100000000E-03 0.  1.
         11   -1    0    0    0    0 -0.00000000000E+00 -0.00000000000E+00 -0.45593999997E+02  0.45594000000E+02  0.51100000000E-03 0. -1.
    9900012    2    1    2    0    0  0.10493176367E+02  0.14473219425E+02 -0.36518288913E+02  0.50528852739E+02  0.29999978387E+02 0.  0.
        -12    1    1    2    0    0 -0.10493176367E+02 -0.14473219425E+02  0.36518288913E+02  0.40659147261E+02  0.00000000000E+00 0.  1.
         11    1    3    3    0    0  0.44125087754E+01  0.83205359643E+01  0.76387784141E+00  0.94490773118E+01  0.51100000000E-03 0. -1.
        -11    1    3    3    0    0 -0.67778582677E-01  0.38313311970E+01 -0.67941915921E+00  0.38916967164E+01  0.51100000000E-03 0.  1.
         12    1    3    3    0    0  0.61484461746E+01  0.23213522636E+01 -0.36602747595E+02  0.37188078711E+02  0.00000000000E+00 0. -1.
</event>
<event>
 7    1  0.2903212E-011  0.5052886E+02  0.7816164E-02  0.1300439E+00
        -11   -1    0    0    0    0  0.00000000000E+00  0.00000000000E+00  0.45593999997E+02  0.45594000000E+02  0.51100000000E-03 0.  1.
         11   -1    0    0    0    0 -0.00000000000E+00 -0.00000000000E+00 -0.45593999997E+02  0.45594000000E+02  0.51100000000E-03 0. -1.
    9900012    2    1    2    0    0  0.11322853055E+02 -0.77532443746E+01 -0.38273303447E+02  0.50528861342E+02  0.30000004536E+02 0.  0.
        -12    1    1    2    0    0 -0.11322853055E+02  0.77532443746E+01  0.38273303447E+02  0.40659138658E+02  0.00000000000E+00 0.  1.
         11    1    3    3    0    0  0.27621646820E+01 -0.11854634573E+02 -0.13987962654E+02  0.18542519086E+02  0.51100000000E-03 0. -1.
        -11    1    3    3    0    0  0.67786959510E+01 -0.61650814677E+01 -0.60379503295E+01  0.10973412994E+02  0.51100000000E-03 0.  1.
         12    1    3    3    0    0  0.17819924219E+01  0.10266471666E+02 -0.18247390464E+02  0.21012929262E+02  0.00000000000E+00 0. -1.
</event>
<event>
 7    1  0.2903212E-011  0.5052885E+02  0.7816164E-02  0.1300439E+00
        -11   -1    0    0    0    0  0.00000000000E+00  0.00000000000E+00  0.45593999997E+02  0.45594000000E+02  0.51100000000E-03 0.  1.
         11   -1    0    0    0    0 -0.00000000000E+00 -0.00000000000E+00 -0.45593999997E+02  0.45594000000E+02  0.51100000000E-03 0. -1.
    9900012    2    1    2    0    0 -0.13256478822E+02 -0.14223403370E+01 -0.38411053165E+02  0.50528852345E+02  0.29999977188E+02 0.  0.
        -12    1    1    2    0    0  0.13256478822E+02  0.14223403370E+01  0.38411053165E+02  0.40659147655E+02  0.00000000000E+00 0.  1.
         11    1    3    3    0    0  0.44003396057E+01 -0.73617958229E+01 -0.68354598248E+01  0.10967339589E+02  0.51100000000E-03 0. -1.
        -11    1    3    3    0    0 -0.42926046212E+01 -0.46395492410E+01 -0.53356368586E+01  0.82716922417E+01  0.51100000000E-03 0.  1.
         12    1    3    3    0    0 -0.13364213806E+02  0.10579004727E+02 -0.26239956482E+02  0.31289820514E+02  0.00000000000E+00 0. -1.
</event>
<event>
 7    1  0.2903212E-011  0.5052886E+02  0.7816164E-02  0.1300439E+00
        -11   -1    0    0    0    0  0.00000000000E+00  0.00000000000E+00  0.45593999997E+02  0.45594000000E+02  0.51100000000E-03 0.  1.
         11   -1    0    0    0    0 -0.00000000000E+00 -0.00000000000E+00 -0.45593999997E+02  0.45594000000E+02  0.51100000000E-03 0. -1.
    9900012    2    1    2    0    0 -0.17458938552E+02 -0.80067984042E+01 -0.35836324487E+02  0.50528861928E+02  0.30000006315E+02 0.  0.
        -12    1    1    2    0    0  0.17458938552E+02  0.80067984042E+01  0.35836324487E+02  0.40659138072E+02  0.00000000000E+00 0.  1.
         11    1    3    3    0    0 -0.11272059080E+02  0.55627849035E+01 -0.35428111167E+01  0.13059686162E+02  0.51100000000E-03 0.  1.
        -11    1    3    3    0    0 -0.49921864849E+01 -0.21614659541E+00 -0.50434003094E+01  0.70996149327E+01  0.51100000000E-03 0. -1.
        -12    1    3    3    0    0 -0.11946929876E+01 -0.13353436712E+02 -0.27250113061E+02  0.30369560833E+02  0.00000000000E+00 0.  1.
</event>
<event>
 7    1  0.2903212E-011  0.5052886E+02  0.7816164E-02  0.1300439E+00
        -11   -1    0    0    0    0  0.00000000000E+00  0.00000000000E+00  0.45593999997E+02  0.45594000000E+02  0.51100000000E-03 0. -1.
         11   -1    0    0    0    0 -0.00000000000E+00 -0.00000000000E+00 -0.45593999997E+02  0.45594000000E+02  0.51100000000E-03 0.  1.
    9900012    2    1    2    0    0 -0.24130025963E+01 -0.21855174456E+02 -0.34200798817E+02  0.50528857464E+02  0.29999992749E+02 0.  0.
        -12    1    1    2    0    0  0.24130025963E+01  0.21855174456E+02  0.34200798817E+02  0.40659142536E+02  0.00000000000E+00 0.  1.
         11    1    3    3    0    0 -0.11102951988E+02 -0.14240422679E+02 -0.27181341916E+02  0.32632660473E+02  0.51100000000E-03 0. -1.
        -11    1    3    3    0    0  0.47732719788E+01 -0.27793063446E+01 -0.96669891352E+01  0.11133703263E+02  0.51100000000E-03 0.  1.
        -12    1    3    3    0    0  0.39166774132E+01 -0.48354454329E+01  0.26475322349E+01  0.67624937285E+01  0.00000000000E+00 0.  1.
</event>
<event>
 7    1  0.2903212E-011  0.5052886E+02  0.7816164E-02  0.1300439E+00
        -11   -1    0    0    0    0  0.00000000000E+00  0.00000000000E+00  0.45593999997E+02  0.45594000000E+02  0.51100000000E-03 0.  1.
         11   -1    0    0    0    0 -0.00000000000E+00 -0.00000000000E+00 -0.45593999997E+02  0.45594000000E+02  0.51100000000E-03 0. -1.
    9900012    2    1    2    0    0  0.24389235305E+00  0.40622147192E+02  0.17168350326E+01  0.50528857750E+02  0.29999993617E+02 0.  0.
        -12    1    1    2    0    0 -0.24389235305E+00 -0.40622147192E+02 -0.17168350326E+01  0.40659142250E+02  0.00000000000E+00 0.  1.
         11    1    3    3    0    0  0.50472185527E+01  0.74763746410E+01  0.14375123094E+01  0.91343874886E+01  0.51100000000E-03 0. -1.
        -11    1    3    3    0    0  0.26558752813E+01 -0.28896513420E+01 -0.22222021863E+01  0.45102041202E+01  0.51100000000E-03 0.  1.
         12    1    3    3    0    0 -0.74592014809E+01  0.36035423893E+02  0.25015249095E+01  0.36884266141E+02  0.00000000000E+00 0. -1.
</event>
<event>
 7    1  0.2903212E-011  0.5052886E+02  0.7816164E-02  0.1300439E+00
        -11   -1    0    0    0    0  0.00000000000E+00  0.00000000000E+00  0.45593999997E+02  0.45594000000E+02  0.51100000000E-03 0.  1.
         11   -1    0    0    0    0 -0.00000000000E+00 -0.00000000000E+00 -0.45593999997E+02  0.45594000000E+02  0.51100000000E-03 0. -1.
    9900012    2    1    2    0    0  0.27759476836E+02  0.25091963512E+02 -0.15905051986E+02  0.50528857538E+02  0.29999992972E+02 0.  0.
        -12    1    1    2    0    0 -0.27759476836E+02 -0.25091963512E+02  0.15905051986E+02  0.40659142462E+02  0.00000000000E+00 0.  1.
         11    1    3    3    0    0  0.20490594840E+02  0.11891458390E+02 -0.10659123464E+02  0.25978609909E+02  0.51100000000E-03 0. -1.
        -11    1    3    3    0    0  0.12409476119E+02  0.82159516158E+01 -0.79780914392E+01  0.16886293311E+02  0.51100000000E-03 0.  1.
        -12    1    3    3    0    0 -0.51405941228E+01  0.49845535063E+01  0.27321629167E+01  0.76639543185E+01  0.00000000000E+00 0.  1.
</event>
<event>
 7    1  0.2903212E-011  0.5052888E+02  0.7816164E-02  0.1300439E+00
        -11   -1    0    0    0    0  0.00000000000E+00  0.00000000000E+00  0.45593999997E+02  0.45594000000E+02  0.51100000000E-03 0.  1.
         11   -1    0    0    0    0 -0.00000000000E+00 -0.00000000000E+00 -0.45593999997E+02  0.45594000000E+02  0.51100000000E-03 0. -1.
    9900012    2    1    2    0    0 -0.39029420092E+02  0.11369630850E+02 -0.77456763295E+00  0.50528879333E+02  0.30000059221E+02 0.  0.
        -12    1    1    2    0    0  0.39029420092E+02 -0.11369630850E+02  0.77456763295E+00  0.40659120667E+02  0.00000000000E+00 0.  1.
         11    1    3    3    0    0 -0.20716028185E+02  0.64733948948E+01  0.26041644198E+01  0.21859559415E+02  0.51100000000E-03 0. -1.
        -11    1    3    3    0    0 -0.20035195384E+02  0.98153118112E+01  0.26210121301E+00  0.22311837605E+02  0.51100000000E-03 0.  1.
        -12    1    3    3    0    0  0.17218034768E+01 -0.49190758559E+01 -0.36408332657E+01  0.63574823128E+01  0.00000000000E+00 0.  1.
</event>
<event>
 7    1  0.2903212E-011  0.5052885E+02  0.7816164E-02  0.1300439E+00
        -11   -1    0    0    0    0  0.00000000000E+00  0.00000000000E+00  0.45593999997E+02  0.45594000000E+02  0.51100000000E-03 0. -1.
         11   -1    0    0    0    0 -0.00000000000E+00 -0.00000000000E+00 -0.45593999997E+02  0.45594000000E+02  0.51100000000E-03 0.  1.
    9900012    2    1    2    0    0  0.12989868226E+02 -0.16247329964E+02  0.34934993990E+02  0.50528853272E+02  0.29999980007E+02 0.  0.
        -12    1    1    2    0    0 -0.12989868226E+02  0.16247329964E+02 -0.34934993990E+02  0.40659146728E+02  0.00000000000E+00 0.  1.
         11    1    3    3    0    0 -0.14105114103E+01 -0.16394098668E+02  0.25177442445E+02  0.30077560105E+02  0.51100000000E-03 0. -1.
        -11    1    3    3    0    0 -0.16989339220E+01  0.25650555035E+00  0.20352888078E+00  0.17302010967E+01  0.51100000000E-03 0.  1.
        -12    1    3    3    0    0  0.16099313558E+02 -0.10973684698E+00  0.95540226649E+01  0.18721092070E+02  0.00000000000E+00 0.  1.
</event>
<event>
 7    1  0.2903212E-011  0.5052887E+02  0.7816164E-02  0.1300439E+00
        -11   -1    0    0    0    0  0.00000000000E+00  0.00000000000E+00  0.45593999997E+02  0.45594000000E+02  0.51100000000E-03 0. -1.
         11   -1    0    0    0    0 -0.00000000000E+00 -0.00000000000E+00 -0.45593999997E+02  0.45594000000E+02  0.51100000000E-03 0.  1.
    9900012    2    1    2    0    0 -0.10708748662E+02  0.76543286095E+01  0.38469457612E+02  0.50528865561E+02  0.30000017360E+02 0.  0.
        -12    1    1    2    0    0  0.10708748662E+02 -0.76543286095E+01 -0.38469457612E+02  0.40659134439E+02  0.00000000000E+00 0.  1.
         11    1    3    3    0    0 -0.10269403491E+02  0.43229977733E+01  0.35527974863E+02  0.37234204113E+02  0.51100000000E-03 0. -1.
        -11    1    3    3    0    0 -0.36388770583E+01  0.25149871582E+01  0.68649205031E+01  0.81666223389E+01  0.51100000000E-03 0.  1.
        -12    1    3    3    0    0  0.31995318873E+01  0.81634367795E+00 -0.39234377541E+01  0.51280391095E+01  0.00000000000E+00 0.  1.
</event>
<event>
 7    1  0.2903212E-011  0.5052885E+02  0.7816164E-02  0.1300439E+00
        -11   -1    0    0    0    0  0.00000000000E+00  0.00000000000E+00  0.45593999997E+02  0.45594000000E+02  0.51100000000E-03 0.  1.
         11   -1    0    0    0    0 -0.00000000000E+00 -0.00000000000E+00 -0.45593999997E+02  0.45594000000E+02  0.51100000000E-03 0. -1.
    9900012    2    1    2    0    0 -0.19159004214E+02 -0.17043440434E+02 -0.31553443420E+02  0.50528854707E+02  0.29999984367E+02 0.  0.
        -12    1    1    2    0    0  0.19159004214E+02  0.17043440434E+02  0.31553443420E+02  0.40659145293E+02  0.00000000000E+00 0.  1.
         11    1    3    3    0    0 -0.13060500418E+02 -0.13353266744E+02 -0.25050604372E+02  0.31247706853E+02  0.51100000000E-03 0. -1.
        -11    1    3    3    0    0  0.26999947895E+01  0.23547083617E+01  0.32386786738E+01  0.48294578521E+01  0.51100000000E-03 0.  1.
         12    1    3    3    0    0 -0.87984985856E+01 -0.60448820512E+01 -0.97415177219E+01  0.14451690002E+02  0.00000000000E+00 0. -1.
</event>
<event>
 7    1  0.2903212E-011  0.5052886E+02  0.7816164E-02  0.1300439E+00
        -11   -1    0    0    0    0  0.00000000000E+00  0.00000000000E+00  0.45593999997E+02  0.45594000000E+02  0.51100000000E-03 0.  1.
         11   -1    0    0    0    0 -0.00000000000E+00 -0.00000000000E+00 -0.45593999997E+02  0.45594000000E+02  0.51100000000E-03 0. -1.
    9900012    2    1    2    0    0 -0.15965239152E+02  0.16437086315E+02 -0.33587183523E+02  0.50528861240E+02  0.30000004224E+02 0.  0.
        -12    1    1    2    0    0  0.15965239152E+02 -0.16437086315E+02  0.33587183523E+02  0.40659138760E+02  0.00000000000E+00 0.  1.
         11    1    3    3    0    0 -0.36360813109E+01  0.15044564975E+02 -0.12208744313E+02  0.19713281324E+02  0.51100000000E-03 0. -1.
        -11    1    3    3    0    0  0.46502524913E+01 -0.15600311563E+01 -0.56636468100E+01  0.74923588336E+01  0.51100000000E-03 0.  1.
         12    1    3    3    0    0 -0.16979410332E+02  0.29525524961E+01 -0.15714792400E+02  0.23323221082E+02  0.00000000000E+00 0. -1.
</event>
<event>
 7    1  0.2903212E-011  0.5052886E+02  0.7816164E-02  0.1300439E+00
        -11   -1    0    0    0    0  0.00000000000E+00  0.00000000000E+00  0.45593999997E+02  0.45594000000E+02  0.51100000000E-03 0.  1.
         11   -1    0    0    0    0 -0.00000000000E+00 -0.00000000000E+00 -0.45593999997E+02  0.45594000000E+02  0.51100000000E-03 0. -1.
    9900012    2    1    2    0    0 -0.19019784942E+02  0.13469798870E+02 -0.33316336399E+02  0.50528856233E+02  0.29999989007E+02 0.  0.
        -12    1    1    2    0    0  0.19019784942E+02 -0.13469798870E+02  0.33316336399E+02  0.40659143767E+02  0.00000000000E+00 0.  1.
         11    1    3    3    0    0 -0.55490459612E+01 -0.29728971011E+01 -0.97978254159E+01  0.11645918229E+02  0.51100000000E-03 0. -1.
        -11    1    3    3    0    0 -0.97042540409E+01  0.99985900286E+01 -0.27199357805E+02  0.30560585961E+02  0.51100000000E-03 0.  1.
        -12    1    3    3    0    0 -0.37664849396E+01  0.64441059424E+01  0.36808468222E+01  0.83223520429E+01  0.00000000000E+00 0.  1.
</event>
<event>
 7    1  0.2903212E-011  0.5052886E+02  0.7816164E-02  0.1300439E+00
        -11   -1    0    0    0    0  0.00000000000E+00  0.00000000000E+00  0.45593999997E+02  0.45594000000E+02  0.51100000000E-03 0.  1.
         11   -1    0    0    0    0 -0.00000000000E+00 -0.00000000000E+00 -0.45593999997E+02  0.45594000000E+02  0.51100000000E-03 0. -1.
    9900012    2    1    2    0    0 -0.24181675542E+02 -0.15669335923E+02 -0.28685954913E+02  0.50528861672E+02  0.30000005539E+02 0.  0.
        -12    1    1    2    0    0  0.24181675542E+02  0.15669335923E+02  0.28685954913E+02  0.40659138328E+02  0.00000000000E+00 0.  1.
         11    1    3    3    0    0 -0.18448718063E+01 -0.13011585946E+01 -0.32788809033E+01  0.39809076740E+01  0.51100000000E-03 0. -1.
        -11    1    3    3    0    0 -0.59076969671E+01  0.87714238337E+01 -0.79419508799E+01  0.13225480844E+02  0.51100000000E-03 0.  1.
         12    1    3    3    0    0 -0.16429106769E+02 -0.23139601162E+02 -0.17465123129E+02  0.33322473154E+02  0.00000000000E+00 0. -1.
</event>
<event>
 7    1  0.2903212E-011  0.5052886E+02  0.7816164E-02  0.1300439E+00
        -11   -1    0    0    0    0  0.00000000000E+00  0.00000000000E+00  0.45593999997E+02  0.45594000000E+02  0.51100000000E-03 0.  1.
         11   -1    0    0    0    0 -0.00000000000E+00 -0.00000000000E+00 -0.45593999997E+02  0.45594000000E+02  0.51100000000E-03 0. -1.
    9900012    2    1    2    0    0 -0.75232584291E+01 -0.35612010938E+02 -0.18120449710E+02  0.50528862796E+02  0.30000008956E+02 0.  0.
        -12    1    1    2    0    0  0.75232584291E+01  0.35612010938E+02  0.18120449710E+02  0.40659137204E+02  0.00000000000E+00 0.  1.
         11    1    3    3    0    0 -0.15348493448E+01  0.23892178462E-01  0.13001429961E+01  0.20116424679E+01  0.51100000000E-03 0.  1.
        -11    1    3    3    0    0 -0.80750087648E-01  0.41551254213E+01 -0.10080215574E+01  0.42764115290E+01  0.51100000000E-03 0. -1.
         12    1    3    3    0    0 -0.59076589967E+01 -0.39791028538E+02 -0.18412571148E+02  0.44240808800E+02  0.00000000000E+00 0. -1.
</event>
<event>
 7    1  0.2903212E-011  0.5052887E+02  0.7816164E-02  0.1300439E+00
        -11   -1    0    0    0    0  0.00000000000E+00  0.00000000000E+00  0.45593999997E+02  0.45594000000E+02  0.51100000000E-03 0.  1.
         11   -1    0    0    0    0 -0.00000000000E+00 -0.00000000000E+00 -0.45593999997E+02  0.45594000000E+02  0.51100000000E-03 0. -1.
    9900012    2    1    2    0    0 -0.23626977718E+02 -0.21225742555E+02 -0.25385004351E+02  0.50528872255E+02  0.30000037706E+02 0.  0.
        -12    1    1    2    0    0  0.23626977718E+02  0.21225742555E+02  0.25385004351E+02  0.40659127745E+02  0.00000000000E+00 0.  1.
         11    1    3    3    0    0 -0.15991589117E+02 -0.11158693214E+02 -0.51724119227E+01  0.20174270794E+02  0.51100000000E-03 0.  1.
        -11    1    3    3    0    0 -0.11246969135E+02 -0.13277675700E+02 -0.13212715267E+02  0.21848726089E+02  0.51100000000E-03 0. -1.
        -12    1    3    3    0    0  0.36115805338E+01  0.32106263587E+01 -0.69998771613E+01  0.85058753718E+01  0.00000000000E+00 0.  1.
</event>
<event>
 7    1  0.2903212E-011  0.5052887E+02  0.7816164E-02  0.1300439E+00
        -11   -1    0    0    0    0  0.00000000000E+00  0.00000000000E+00  0.45593999997E+02  0.45594000000E+02  0.51100000000E-03 0. -1.
         11   -1    0    0    0    0 -0.00000000000E+00 -0.00000000000E+00 -0.45593999997E+02  0.45594000000E+02  0.51100000000E-03 0.  1.
    9900012    2    1    2    0    0  0.48565892807E+01 -0.33117786848E+02  0.23082263641E+02  0.50528866218E+02  0.30000019356E+02 0.  0.
        -12    1    1    2    0    0 -0.48565892807E+01  0.33117786848E+02 -0.23082263641E+02  0.40659133782E+02  0.00000000000E+00 0.  1.
         11    1    3    3    0    0  0.51408169569E+01  0.25210526321E+01  0.38517022006E+01  0.69006750004E+01  0.51100000000E-03 0. -1.
        -11    1    3    3    0    0  0.48964392419E+01 -0.79134451568E+01  0.10658161669E+02  0.14148997912E+02  0.51100000000E-03 0.  1.
         12    1    3    3    0    0 -0.51806669180E+01 -0.27725394323E+02  0.85723997710E+01  0.29479193305E+02  0.00000000000E+00 0. -1.
</event>
<event>
 7    1  0.2903212E-011  0.5052887E+02  0.7816164E-02  0.1300439E+00
        -11   -1    0    0    0    0  0.00000000000E+00  0.00000000000E+00  0.45593999997E+02  0.45594000000E+02  0.51100000000E-03 0.  1.
         11   -1    0    0    0    0 -0.00000000000E+00 -0.00000000000E+00 -0.45593999997E+02  0.45594000000E+02  0.51100000000E-03 0. -1.
    9900012    2    1    2    0    0 -0.11203209272E+02 -0.38432039062E+02  0.71155629135E+01  0.50528871135E+02  0.30000034303E+02 0.  0.
        -12    1    1    2    0    0  0.11203209272E+02  0.38432039062E+02 -0.71155629135E+01  0.40659128865E+02  0.00000000000E+00 0.  1.
         11    1    3    3    0    0 -0.15972126300E+02 -0.36721096642E+02  0.40320197442E+01  0.40246800377E+02  0.51100000000E-03 0. -1.
        -11    1    3    3    0    0  0.17179648951E+01  0.11503902554E+01 -0.25389874461E+01  0.32743333112E+01  0.51100000000E-03 0.  1.
        -12    1    3    3    0    0  0.30509521332E+01 -0.28613326757E+01  0.56225306154E+01  0.70077374467E+01  0.00000000000E+00 0.  1.
</event>
<event>
 7    1  0.2903212E-011  0.5052882E+02  0.7816164E-02  0.1300439E+00
        -11   -1    0    0    0    0  0.00000000000E+00  0.00000000000E+00  0.45593999997E+02  0.45594000000E+02  0.51100000000E-03 0.  1.
         11   -1    0    0    0    0 -0.00000000000E+00 -0.00000000000E+00 -0.45593999997E+02  0.45594000000E+02  0.51100000000E-03 0. -1.
    9900012    2    1    2    0    0 -0.11463136569E+02 -0.31829037255E+02 -0.22553894172E+02  0.50528815860E+02  0.29999866288E+02 0.  0.
        -12    1    1    2    0    0  0.11463136569E+02  0.31829037255E+02  0.22553894172E+02  0.40659184140E+02  0.00000000000E+00 0.  1.
         11    1    3    3    0    0 -0.20513650896E+01  0.21579348493E+01 -0.72391438644E+01  0.78275146564E+01  0.51100000000E-03 0.  1.
        -11    1    3    3    0    0 -0.32461857928E+01 -0.11904565237E+01  0.30501541090E+01  0.46106777470E+01  0.51100000000E-03 0. -1.
         12    1    3    3    0    0 -0.61655856866E+01 -0.32796515581E+02 -0.18364904416E+02  0.38090623457E+02  0.00000000000E+00 0. -1.
</event>
<event>
 7    1  0.2903212E-011  0.5052887E+02  0.7816164E-02  0.1300439E+00
        -11   -1    0    0    0    0  0.00000000000E+00  0.00000000000E+00  0.45593999997E+02  0.45594000000E+02  0.51100000000E-03 0.  1.
         11   -1    0    0    0    0 -0.00000000000E+00 -0.00000000000E+00 -0.45593999997E+02  0.45594000000E+02  0.51100000000E-03 0. -1.
    9900012    2    1    2    0    0 -0.17507200978E+02  0.17367796882E+02 -0.32326807252E+02  0.50528869146E+02  0.30000028257E+02 0.  0.
        -12    1    1    2    0    0  0.17507200978E+02 -0.17367796882E+02  0.32326807252E+02  0.40659130854E+02  0.00000000000E+00 0.  1.
         11    1    3    3    0    0 -0.17301353955E+02  0.57071724360E+01 -0.10615310564E+02  0.21085385567E+02  0.51100000000E-03 0. -1.
        -11    1    3    3    0    0 -0.33407355677E+01 -0.25852927233E+01 -0.14269310821E+01  0.44587425551E+01  0.51100000000E-03 0.  1.
        -12    1    3    3    0    0  0.31348885445E+01  0.14245917170E+02 -0.20284565606E+02  0.24984741024E+02  0.00000000000E+00 0.  1.
</event>
<event>
 7    1  0.2903212E-011  0.5052886E+02  0.7816164E-02  0.1300439E+00
        -11   -1    0    0    0    0  0.00000000000E+00  0.00000000000E+00  0.45593999997E+02  0.45594000000E+02  0.51100000000E-03 0.  1.
         11   -1    0    0    0    0 -0.00000000000E+00 -0.00000000000E+00 -0.45593999997E+02  0.45594000000E+02  0.51100000000E-03 0. -1.
    9900012    2    1    2    0    0  0.32837570391E+02 -0.13583347916E+02 -0.19757326252E+02  0.50528864367E+02  0.30000013730E+02 0.  0.
        -12    1    1    2    0    0 -0.32837570391E+02  0.13583347916E+02  0.19757326252E+02  0.40659135633E+02  0.00000000000E+00 0.  1.
         11    1    3    3    0    0  0.58963317675E+01 -0.38479000433E+01  0.23229721270E+01  0.74141258972E+01  0.51100000000E-03 0. -1.
        -11    1    3    3    0    0  0.54909292353E+01 -0.10478054136E+02  0.65631103258E+00  0.11847812743E+02  0.51100000000E-03 0.  1.
         12    1    3    3    0    0  0.21450309388E+02  0.74260626326E+00 -0.22736609411E+02  0.31266925727E+02  0.00000000000E+00 0. -1.
</event>
<event>
 7    1  0.2903212E-011  0.5052887E+02  0.7816164E-02  0.1300439E+00
        -11   -1    0    0    0    0  0.00000000000E+00  0.00000000000E+00  0.45593999997E+02  0.45594000000E+02  0.51100000000E-03 0.  1.
         11   -1    0    0    0    0 -0.00000000000E+00 -0.00000000000E+00 -0.45593999997E+02  0.45594000000E+02  0.51100000000E-03 0. -1.
    9900012    2    1    2    0    0 -0.22928036173E+02 -0.93654457311E+01 -0.32245291309E+02  0.50528865379E+02  0.30000016806E+02 0.  0.
        -12    1    1    2    0    0  0.22928036173E+02  0.93654457311E+01  0.32245291309E+02  0.40659134621E+02  0.00000000000E+00 0.  1.
         11    1    3    3    0    0  0.20134166558E+01 -0.15281416184E+00 -0.70825870554E+00  0.21398199581E+01  0.51100000000E-03 0. -1.
        -11    1    3    3    0    0  0.26201958102E+01  0.50100915227E+01 -0.56052153767E+01  0.79614623550E+01  0.51100000000E-03 0.  1.
         12    1    3    3    0    0 -0.27561648639E+02 -0.14222723092E+02 -0.25931817227E+02  0.40427583066E+02  0.00000000000E+00 0. -1.
</event>
<event>
 7    1  0.2903212E-011  0.5052886E+02  0.7816164E-02  0.1300439E+00
        -11   -1    0    0    0    0  0.00000000000E+00  0.00000000000E+00  0.45593999997E+02  0.45594000000E+02  0.51100000000E-03 0.  1.
         11   -1    0    0    0    0 -0.00000000000E+00 -0.00000000000E+00 -0.45593999997E+02  0.45594000000E+02  0.51100000000E-03 0. -1.
    9900012    2    1    2    0    0 -0.19788134026E+02  0.14227714847E+02 -0.32544857570E+02  0.50528857458E+02  0.29999992729E+02 0.  0.
        -12    1    1    2    0    0  0.19788134026E+02 -0.14227714847E+02  0.32544857570E+02  0.40659142542E+02  0.00000000000E+00 0.  1.
         11    1    3    3    0    0 -0.15117379896E+02 -0.58868819007E+01 -0.12272730457E+02  0.20342331886E+02  0.51100000000E-03 0. -1.
        -11    1    3    3    0    0  0.12717107346E+01  0.23432530870E-01 -0.46452408964E+00  0.13540975471E+01  0.51100000000E-03 0.  1.
        -12    1    3    3    0    0 -0.59424648651E+01  0.20091164217E+02 -0.19807603024E+02  0.28832428025E+02  0.00000000000E+00 0.  1.
</event>
<event>
 7    1  0.2903212E-011  0.5052886E+02  0.7816164E-02  0.1300439E+00
        -11   -1    0    0    0    0  0.00000000000E+00  0.00000000000E+00  0.45593999997E+02  0.45594000000E+02  0.51100000000E-03 0. -1.
         11   -1    0    0    0    0 -0.00000000000E+00 -0.00000000000E+00 -0.45593999997E+02  0.45594000000E+02  0.51100000000E-03 0.  1.
    9900012    2    1    2    0    0  0.22464270069E+02 -0.31485462884E+02  0.12537473010E+02  0.50528855491E+02  0.29999986751E+02 0.  0.
        -12    1    1    2    0    0 -0.22464270069E+02  0.31485462884E+02 -0.12537473010E+02  0.40659144509E+02  0.00000000000E+00 0.  1.
         11    1    3    3    0    0  0.10769123722E+01 -0.10767731538E+02  0.10817668748E+01  0.10875385169E+02  0.51100000000E-03 0. -1.
        -11    1    3    3    0    0  0.11620249675E+02 -0.24752919641E+02  0.73428335864E+01  0.28313502761E+02  0.51100000000E-03 0.  1.
        -12    1    3    3    0    0  0.97671080212E+01  0.40351882958E+01  0.41128725490E+01  0.11339967561E+02  0.00000000000E+00 0.  1.
</event>
<event>
 7    1  0.2903212E-011  0.5052889E+02  0.7816164E-02  0.1300439E+00
        -11   -1    0    0    0    0  0.00000000000E+00  0.00000000000E+00  0.45593999997E+02  0.45594000000E+02  0.51100000000E-03 0. -1.
         11   -1    0    0    0    0 -0.00000000000E+00 -0.00000000000E+00 -0.45593999997E+02  0.45594000000E+02  0.51100000000E-03 0.  1.
    9900012    2    1    2    0    0 -0.29418562080E+01  0.21069784556E+02  0.34649284532E+02  0.50528889609E+02  0.30000090456E+02 0.  0.
        -12    1    1    2    0    0  0.29418562080E+01 -0.21069784556E+02 -0.34649284532E+02  0.40659110391E+02  0.00000000000E+00 0.  1.
         11    1    3    3    0    0  0.10407157754E+02  0.61871760185E+01  0.13820558142E+02  0.18373837574E+02  0.51100000000E-03 0. -1.
        -11    1    3    3    0    0 -0.29671108301E+01  0.13810056412E+00 -0.16017428642E+01  0.33746701925E+01  0.51100000000E-03 0.  1.
         12    1    3    3    0    0 -0.10381903132E+02  0.14744507973E+02  0.22430469255E+02  0.28780381843E+02  0.00000000000E+00 0. -1.
</event>
<event>
 7    1  0.2903212E-011  0.5052886E+02  0.7816164E-02  0.1300439E+00
        -11   -1    0    0    0    0  0.00000000000E+00  0.00000000000E+00  0.45593999997E+02  0.45594000000E+02  0.51100000000E-03 0.  1.
         11   -1    0    0    0    0 -0.00000000000E+00 -0.00000000000E+00 -0.45593999997E+02  0.45594000000E+02  0.51100000000E-03 0. -1.
    9900012    2    1    2    0    0 -0.19649732890E+02  0.35205043133E+02 -0.52591534176E+01  0.50528858847E+02  0.29999996950E+02 0.  0.
        -12    1    1    2    0    0  0.19649732890E+02 -0.35205043133E+02  0.52591534176E+01  0.40659141153E+02  0.00000000000E+00 0.  1.
         11    1    3    3    0    0 -0.11751195615E+02  0.92915586966E+01 -0.11876217328E+02  0.19117222593E+02  0.51100000000E-03 0. -1.
        -11    1    3    3    0    0  0.36913095709E+01  0.50549418340E+01 -0.10526820678E+01  0.63471523608E+01  0.51100000000E-03 0.  1.
        -12    1    3    3    0    0 -0.11589846846E+02  0.20858542603E+02  0.76697459787E+01  0.25064483893E+02  0.00000000000E+00 0.  1.
</event>
<event>
 7    1  0.2903212E-011  0.5052885E+02  0.7816164E-02  0.1300439E+00
        -11   -1    0    0    0    0  0.00000000000E+00  0.00000000000E+00  0.45593999997E+02  0.45594000000E+02  0.51100000000E-03 0.  1.
         11   -1    0    0    0    0 -0.00000000000E+00 -0.00000000000E+00 -0.45593999997E+02  0.45594000000E+02  0.51100000000E-03 0. -1.
    9900012    2    1    2    0    0 -0.27634046461E+02  0.25896017686E+02 -0.14796012574E+02  0.50528852888E+02  0.29999978839E+02 0.  0.
        -12    1    1    2    0    0  0.27634046461E+02 -0.25896017686E+02  0.14796012574E+02  0.40659147112E+02  0.00000000000E+00 0.  1.
         11    1    3    3    0    0 -0.58563159252E+01  0.47705997761E+01 -0.43404497390E+01  0.87117485407E+01  0.51100000000E-03 0. -1.
        -11    1    3    3    0    0 -0.23066750416E+02  0.22068219321E+02 -0.16239856584E+02  0.35816395979E+02  0.51100000000E-03 0.  1.
        -12    1    3    3    0    0  0.12890198808E+01 -0.94280141123E+00  0.57842937490E+01  0.60007083689E+01  0.00000000000E+00 0.  1.
</event>
<event>
 7    1  0.2903212E-011  0.5052886E+02  0.7816164E-02  0.1300439E+00
        -11   -1    0    0    0    0  0.00000000000E+00  0.00000000000E+00  0.45593999997E+02  0.45594000000E+02  0.51100000000E-03 0.  1.
         11   -1    0    0    0    0 -0.00000000000E+00 -0.00000000000E+00 -0.45593999997E+02  0.45594000000E+02  0.51100000000E-03 0. -1.
    9900012    2    1    2    0    0  0.17348790290E+02  0.92864224135E+01 -0.35580157970E+02  0.50528858261E+02  0.29999995172E+02 0.  0.
        -12    1    1    2    0    0 -0.17348790290E+02 -0.92864224135E+01  0.35580157970E+02  0.40659141739E+02  0.00000000000E+00 0.  1.
         11    1    3    3    0    0  0.15617544674E+02  0.14029406403E+02 -0.13283920351E+02  0.24843399241E+02  0.51100000000E-03 0. -1.
        -11    1    3    3    0    0  0.36949952631E+01  0.88436046798E+00 -0.15556764120E+01  0.41055100526E+01  0.51100000000E-03 0.  1.
         12    1    3    3    0    0 -0.19637496470E+01 -0.56273444576E+01 -0.20740561206E+02  0.21579948968E+02  0.00000000000E+00 0. -1.
</event>
<event>
 7    1  0.2903212E-011  0.5052885E+02  0.7816164E-02  0.1300439E+00
        -11   -1    0    0    0    0  0.00000000000E+00  0.00000000000E+00  0.45593999997E+02  0.45594000000E+02  0.51100000000E-03 0. -1.
         11   -1    0    0    0    0 -0.00000000000E+00 -0.00000000000E+00 -0.45593999997E+02  0.45594000000E+02  0.51100000000E-03 0.  1.
    9900012    2    1    2    0    0  0.41006312101E+01  0.10271159600E+02  0.39126133500E+02  0.50528853200E+02  0.29999979786E+02 0.  0.
        -12    1    1    2    0    0 -0.41006312101E+01 -0.10271159600E+02 -0.39126133500E+02  0.40659146800E+02  0.00000000000E+00 0.  1.
         11    1    3    3    0    0 -0.55069616417E+00 -0.31389544173E+01  0.67339809276E+01  0.74500201674E+01  0.51100000000E-03 0. -1.
        -11    1    3    3    0    0 -0.70157109490E+01  0.24771691120E+01  0.23782443925E+02  0.24919093206E+02  0.51100000000E-03 0.  1.
        -12    1    3    3    0    0  0.11667038323E+02  0.10932944906E+02  0.86097086477E+01  0.18159739826E+02  0.00000000000E+00 0.  1.
</event>
<event>
 7    1  0.2903212E-011  0.5052888E+02  0.7816164E-02  0.1300439E+00
        -11   -1    0    0    0    0  0.00000000000E+00  0.00000000000E+00  0.45593999997E+02  0.45594000000E+02  0.51100000000E-03 0.  1.
         11   -1    0    0    0    0 -0.00000000000E+00 -0.00000000000E+00 -0.45593999997E+02  0.45594000000E+02  0.51100000000E-03 0. -1.
    9900012    2    1    2    0    0 -0.19719204811E+02 -0.26374779029E+02 -0.23847175101E+02  0.50528883340E+02  0.30000071401E+02 0.  0.
        -12    1    1    2    0    0  0.19719204811E+02  0.26374779029E+02  0.23847175101E+02  0.40659116660E+02  0.00000000000E+00 0.  1.
         11    1    3    3    0    0 -0.62796588346E+01 -0.97455897575E+01 -0.65814287712E+01  0.13331385514E+02  0.51100000000E-03 0. -1.
        -11    1    3    3    0    0 -0.96105101691E+01 -0.16652902354E+02  0.28973602744E+00  0.19229274811E+02  0.51100000000E-03 0.  1.
        -12    1    3    3    0    0 -0.38290358079E+01  0.23713082044E-01 -0.17555482357E+02  0.17968223015E+02  0.00000000000E+00 0.  1.
</event>
<event>
 7    1  0.2903212E-011  0.5052886E+02  0.7816164E-02  0.1300439E+00
        -11   -1    0    0    0    0  0.00000000000E+00  0.00000000000E+00  0.45593999997E+02  0.45594000000E+02  0.51100000000E-03 0. -1.
         11   -1    0    0    0    0 -0.00000000000E+00 -0.00000000000E+00 -0.45593999997E+02  0.45594000000E+02  0.51100000000E-03 0.  1.
    9900012    2    1    2    0    0  0.62021304617E+01  0.33788429620E+02  0.21749515053E+02  0.50528858304E+02  0.29999995299E+02 0.  0.
        -12    1    1    2    0    0 -0.62021304617E+01 -0.33788429620E+02 -0.21749515053E+02  0.40659141696E+02  0.00000000000E+00 0.  1.
         11    1    3    3    0    0 -0.58539488077E+01  0.23383896732E+02  0.80153751576E+01  0.25403180553E+02  0.51100000000E-03 0. -1.
        -11    1    3    3    0    0 -0.45052554651E-01  0.39404685331E+01 -0.18582246597E+01  0.43568705673E+01  0.51100000000E-03 0.  1.
         12    1    3    3    0    0  0.12101131824E+02  0.64640643549E+01  0.15592364555E+02  0.20768807183E+02  0.00000000000E+00 0. -1.
</event>
<event>
 7    1  0.2903212E-011  0.5052886E+02  0.7816164E-02  0.1300439E+00
        -11   -1    0    0    0    0  0.00000000000E+00  0.00000000000E+00  0.45593999997E+02  0.45594000000E+02  0.51100000000E-03 0.  1.
         11   -1    0    0    0    0 -0.00000000000E+00 -0.00000000000E+00 -0.45593999997E+02  0.45594000000E+02  0.51100000000E-03 0. -1.
    9900012    2    1    2    0    0  0.16179945980E+02 -0.26579022263E+02 -0.26171184803E+02  0.50528856005E+02  0.29999988314E+02 0.  0.
        -12    1    1    2    0    0 -0.16179945980E+02  0.26579022263E+02  0.26171184803E+02  0.40659143995E+02  0.00000000000E+00 0.  1.
         11    1    3    3    0    0 -0.34928199512E+01 -0.12830109843E+02 -0.17403585824E+02  0.21901970450E+02  0.51100000000E-03 0.  1.
        -11    1    3    3    0    0  0.14890929329E+02 -0.11103347689E+02 -0.12154001551E+02  0.22197834582E+02  0.51100000000E-03 0. -1.
        -12    1    3    3    0    0  0.47818366025E+01 -0.26455647310E+01  0.33864025715E+01  0.64290509731E+01  0.00000000000E+00 0.  1.
</event>
<event>
 7    1  0.2903212E-011  0.5052885E+02  0.7816164E-02  0.1300439E+00
        -11   -1    0    0    0    0  0.00000000000E+00  0.00000000000E+00  0.45593999997E+02  0.45594000000E+02  0.51100000000E-03 0.  1.
         11   -1    0    0    0    0 -0.00000000000E+00 -0.00000000000E+00 -0.45593999997E+02  0.45594000000E+02  0.51100000000E-03 0. -1.
    9900012    2    1    2    0    0  0.12392969952E+02 -0.38258981784E+02 -0.59858810371E+01  0.50528853880E+02  0.29999981855E+02 0.  0.
        -12    1    1    2    0    0 -0.12392969952E+02  0.38258981784E+02  0.59858810371E+01  0.40659146120E+02  0.00000000000E+00 0.  1.
         11    1    3    3    0    0  0.10996620358E+00  0.27009307160E+01 -0.51183351865E+00  0.27511984862E+01  0.51100000000E-03 0. -1.
        -11    1    3    3    0    0 -0.23456832781E+01 -0.53172255107E+00  0.31141401817E+01  0.39348225176E+01  0.51100000000E-03 0.  1.
         12    1    3    3    0    0  0.14628687027E+02 -0.40428189949E+02 -0.85881877002E+01  0.43842832877E+02  0.00000000000E+00 0. -1.
</event>
<event>
 7    1  0.2903212E-011  0.5052887E+02  0.7816164E-02  0.1300439E+00
        -11   -1    0    0    0    0  0.00000000000E+00  0.00000000000E+00  0.45593999997E+02  0.45594000000E+02  0.51100000000E-03 0.  1.
         11   -1    0    0    0    0 -0.00000000000E+00 -0.00000000000E+00 -0.45593999997E+02  0.45594000000E+02  0.51100000000E-03 0. -1.
    9900012    2    1    2    0    0  0.24169589139E+02  0.19251479614E+02 -0.26426814387E+02  0.50528867876E+02  0.30000024395E+02 0.  0.
        -12    1    1    2    0    0 -0.24169589139E+02 -0.19251479614E+02  0.26426814387E+02  0.40659132124E+02  0.00000000000E+00 0.  1.
         11    1    3    3    0    0  0.10047484185E+02  0.74962341336E+00 -0.13323272252E+02  0.16703995255E+02  0.51100000000E-03 0. -1.
        -11    1    3    3    0    0  0.13909787355E+02  0.11355077202E+02 -0.17789503653E+02  0.25276202305E+02  0.51100000000E-03 0.  1.
        -12    1    3    3    0    0  0.21231759915E+00  0.71467789986E+01  0.46859615176E+01  0.85486703155E+01  0.00000000000E+00 0.  1.
</event>
<event>
 7    1  0.2903212E-011  0.5052886E+02  0.7816164E-02  0.1300439E+00
        -11   -1    0    0    0    0  0.00000000000E+00  0.00000000000E+00  0.45593999997E+02  0.45594000000E+02  0.51100000000E-03 0. -1.
         11   -1    0    0    0    0 -0.00000000000E+00 -0.00000000000E+00 -0.45593999997E+02  0.45594000000E+02  0.51100000000E-03 0.  1.
    9900012    2    1    2    0    0  0.32595561845E+02 -0.24196687572E+02  0.22836350440E+01  0.50528864120E+02  0.30000012981E+02 0.  0.
        -12    1    1    2    0    0 -0.32595561845E+02  0.24196687572E+02 -0.22836350440E+01  0.40659135880E+02  0.00000000000E+00 0.  1.
         11    1    3    3    0    0  0.11161819268E+02 -0.63239997953E+01  0.22195297697E+01  0.13019427616E+02  0.51100000000E-03 0. -1.
        -11    1    3    3    0    0  0.73919574517E+01 -0.20895561117E+02  0.42073933988E+01  0.22560311807E+02  0.51100000000E-03 0.  1.
        -12    1    3    3    0    0  0.14041785125E+02  0.30228733403E+01 -0.41432881245E+01  0.14949124698E+02  0.00000000000E+00 0.  1.
</event>
<event>
 7    1  0.2903212E-011  0.5052887E+02  0.7816164E-02  0.1300439E+00
        -11   -1    0    0    0    0  0.00000000000E+00  0.00000000000E+00  0.45593999997E+02  0.45594000000E+02  0.51100000000E-03 0. -1.
         11   -1    0    0    0    0 -0.00000000000E+00 -0.00000000000E+00 -0.45593999997E+02  0.45594000000E+02  0.51100000000E-03 0.  1.
    9900012    2    1    2    0    0  0.12235571388E+02  0.16170067215E+02  0.35241801371E+02  0.50528870093E+02  0.30000031134E+02 0.  0.
        -12    1    1    2    0    0 -0.12235571388E+02 -0.16170067215E+02 -0.35241801371E+02  0.40659129907E+02  0.00000000000E+00 0.  1.
         11    1    3    3    0    0  0.10344683443E+02  0.92142665248E+00  0.47630003506E+01  0.11425746155E+02  0.51100000000E-03 0. -1.
        -11    1    3    3    0    0  0.86455513291E+01  0.11209862153E+01  0.12792607449E+02  0.15480729101E+02  0.51100000000E-03 0.  1.
        -12    1    3    3    0    0 -0.67546633835E+01  0.14127654347E+02  0.17686193571E+02  0.23622394837E+02  0.00000000000E+00 0.  1.
</event>
<event>
 7    1  0.2903212E-011  0.5052887E+02  0.7816164E-02  0.1300439E+00
        -11   -1    0    0    0    0  0.00000000000E+00  0.00000000000E+00  0.45593999997E+02  0.45594000000E+02  0.51100000000E-03 0.  1.
         11   -1    0    0    0    0 -0.00000000000E+00 -0.00000000000E+00 -0.45593999997E+02  0.45594000000E+02  0.51100000000E-03 0. -1.
    9900012    2    1    2    0    0  0.20004521062E+02 -0.34586630060E+02 -0.75331985281E+01  0.50528869145E+02  0.30000028253E+02 0.  0.
        -12    1    1    2    0    0 -0.20004521062E+02  0.34586630060E+02  0.75331985281E+01  0.40659130855E+02  0.00000000000E+00 0.  1.
         11    1    3    3    0    0  0.42161668709E+01 -0.72336777456E+01  0.15162731562E+00  0.83740759439E+01  0.51100000000E-03 0. -1.
        -11    1    3    3    0    0  0.77338067447E+01 -0.21400928908E+02  0.75044170653E+01  0.23960964100E+02  0.51100000000E-03 0.  1.
         12    1    3    3    0    0  0.80545474459E+01 -0.59520234070E+01 -0.15189242909E+02  0.18193829101E+02  0.00000000000E+00 0. -1.
</event>
<event>
 7    1  0.2903212E-011  0.5052886E+02  0.7816164E-02  0.1300439E+00
        -11   -1    0    0    0    0  0.00000000000E+00  0.00000000000E+00  0.45593999997E+02  0.45594000000E+02  0.51100000000E-03 0.  1.
         11   -1    0    0    0    0 -0.00000000000E+00 -0.00000000000E+00 -0.45593999997E+02  0.45594000000E+02  0.51100000000E-03 0. -1.
    9900012    2    1    2    0    0 -0.27210704032E+01 -0.59378959197E+01 -0.40131073658E+02  0.50528857055E+02  0.29999991504E+02 0.  0.
        -12    1    1    2    0    0  0.27210704032E+01  0.59378959197E+01  0.40131073658E+02  0.40659142945E+02  0.00000000000E+00 0.  1.
         11    1    3    3    0    0  0.30112802547E+01 -0.11528602449E+02 -0.22456484524E+02  0.25421844557E+02  0.51100000000E-03 0. -1.
        -11    1    3    3    0    0 -0.20595350470E+00 -0.51736072212E+01 -0.26519350258E+01  0.58173351431E+01  0.51100000000E-03 0.  1.
        -12    1    3    3    0    0 -0.55263971532E+01  0.10764313751E+02 -0.15022654108E+02  0.19289677355E+02  0.00000000000E+00 0.  1.
</event>
<event>
 7    1  0.2903212E-011  0.5052882E+02  0.7816164E-02  0.1300439E+00
        -11   -1    0    0    0    0  0.00000000000E+00  0.00000000000E+00  0.45593999997E+02  0.45594000000E+02  0.51100000000E-03 0. -1.
         11   -1    0    0    0    0 -0.00000000000E+00 -0.00000000000E+00 -0.45593999997E+02  0.45594000000E+02  0.51100000000E-03 0.  1.
    9900012    2    1    2    0    0  0.17373631335E+02 -0.14601955898E+01  0.36731369825E+02  0.50528821871E+02  0.29999884559E+02 0.  0.
        -12    1    1    2    0    0 -0.17373631335E+02  0.14601955898E+01 -0.36731369825E+02  0.40659178129E+02  0.00000000000E+00 0.  1.
         11    1    3    3    0    0  0.73699565402E+01 -0.31480361656E+01  0.28434028716E+02  0.29541841181E+02  0.51100000000E-03 0. -1.
        -11    1    3    3    0    0  0.12779640520E+02 -0.27745246133E+01  0.87147362604E+01  0.15715082787E+02  0.51100000000E-03 0.  1.
         12    1    3    3    0    0 -0.27759657248E+01  0.44623651891E+01 -0.41739515135E+00  0.52718979029E+01  0.00000000000E+00 0. -1.
</event>
<event>
 7    1  0.2903212E-011  0.5052886E+02  0.7816164E-02  0.1300439E+00
        -11   -1    0    0    0    0  0.00000000000E+00  0.00000000000E+00  0.45593999997E+02  0.45594000000E+02  0.51100000000E-03 0.  1.
         11   -1    0    0    0    0 -0.00000000000E+00 -0.00000000000E+00 -0.45593999997E+02  0.45594000000E+02  0.51100000000E-03 0. -1.
    9900012    2    1    2    0    0  0.34380571961E+02 -0.21658390753E+02 -0.14340162573E+01  0.50528855629E+02  0.29999987171E+02 0.  0.
        -12    1    1    2    0    0 -0.34380571961E+02  0.21658390753E+02  0.14340162573E+01  0.40659144371E+02  0.00000000000E+00 0.  1.
         11    1    3    3    0    0  0.58081631677E+01  0.14427308867E+01  0.75253047095E+01  0.96149073332E+01  0.51100000000E-03 0. -1.
        -11    1    3    3    0    0  0.72527454735E+01 -0.17424725171E+01  0.35315920147E+01  0.82529188652E+01  0.51100000000E-03 0.  1.
         12    1    3    3    0    0  0.21319663320E+02 -0.21358649122E+02 -0.12490912981E+02  0.32661029431E+02  0.00000000000E+00 0. -1.
</event>
<event>
 7    1  0.2903212E-011  0.5052881E+02  0.7816164E-02  0.1300439E+00
        -11   -1    0    0    0    0  0.00000000000E+00  0.00000000000E+00  0.45593999997E+02  0.45594000000E+02  0.51100000000E-03 0. -1.
         11   -1    0    0    0    0 -0.00000000000E+00 -0.00000000000E+00 -0.45593999997E+02  0.45594000000E+02  0.51100000000E-03 0.  1.
    9900012    2    1    2    0    0 -0.10787749374E+02 -0.39052376178E+02  0.34214353529E+01  0.50528808646E+02  0.29999844360E+02 0.  0.
        -12    1    1    2    0    0  0.10787749374E+02  0.39052376178E+02 -0.34214353529E+01  0.40659191354E+02  0.00000000000E+00 0.  1.
         11    1    3    3    0    0  0.86063240212E+00 -0.13261532043E+02 -0.55450498554E+01  0.14399878417E+02  0.51100000000E-03 0. -1.
        -11    1    3    3    0    0 -0.28065752128E+01 -0.17746516234E+02 -0.40902321053E+01  0.18426765907E+02  0.51100000000E-03 0.  1.
        -12    1    3    3    0    0 -0.88418065630E+01 -0.80443279009E+01  0.13056717314E+02  0.17702164322E+02  0.00000000000E+00 0.  1.
</event>
<event>
 7    1  0.2903212E-011  0.5052887E+02  0.7816164E-02  0.1300439E+00
        -11   -1    0    0    0    0  0.00000000000E+00  0.00000000000E+00  0.45593999997E+02  0.45594000000E+02  0.51100000000E-03 0.  1.
         11   -1    0    0    0    0 -0.00000000000E+00 -0.00000000000E+00 -0.45593999997E+02  0.45594000000E+02  0.51100000000E-03 0. -1.
    9900012    2    1    2    0    0 -0.25319216382E+02  0.11866882469E+02 -0.29517443083E+02  0.50528867398E+02  0.30000022944E+02 0.  0.
        -12    1    1    2    0    0  0.25319216382E+02 -0.11866882469E+02  0.29517443083E+02  0.40659132602E+02  0.00000000000E+00 0.  1.
         11    1    3    3    0    0 -0.48973382807E+01  0.11218647138E+02 -0.13550560002E+02  0.18260877374E+02  0.51100000000E-03 0. -1.
        -11    1    3    3    0    0 -0.17356336345E+02  0.40834768581E+01 -0.24614731284E+01  0.17999334566E+02  0.51100000000E-03 0.  1.
         12    1    3    3    0    0 -0.30655417563E+01 -0.34352415267E+01 -0.13505409953E+02  0.14268655459E+02  0.00000000000E+00 0. -1.
</event>
<event>
 7    1  0.2903212E-011  0.5052886E+02  0.7816164E-02  0.1300439E+00
        -11   -1    0    0    0    0  0.00000000000E+00  0.00000000000E+00  0.45593999997E+02  0.45594000000E+02  0.51100000000E-03 0.  1.
         11   -1    0    0    0    0 -0.00000000000E+00 -0.00000000000E+00 -0.45593999997E+02  0.45594000000E+02  0.51100000000E-03 0. -1.
    9900012    2    1    2    0    0 -0.54489549745E+01 -0.15859899747E+02 -0.37039678399E+02  0.50528864419E+02  0.30000013888E+02 0.  0.
        -12    1    1    2    0    0  0.54489549745E+01  0.15859899747E+02  0.37039678399E+02  0.40659135581E+02  0.00000000000E+00 0.  1.
         11    1    3    3    0    0  0.37168900412E+01 -0.92996459173E+01 -0.18569627646E+02  0.21098098420E+02  0.51100000000E-03 0. -1.
        -11    1    3    3    0    0  0.17947958912E+01  0.57552993802E+01 -0.26629463365E+01  0.65906029086E+01  0.51100000000E-03 0.  1.
         12    1    3    3    0    0 -0.10960640907E+02 -0.12315553210E+02 -0.15807104416E+02  0.22840163090E+02  0.00000000000E+00 0. -1.
</event>
<event>
 7    1  0.2903212E-011  0.5052886E+02  0.7816164E-02  0.1300439E+00
        -11   -1    0    0    0    0  0.00000000000E+00  0.00000000000E+00  0.45593999997E+02  0.45594000000E+02  0.51100000000E-03 0. -1.
         11   -1    0    0    0    0 -0.00000000000E+00 -0.00000000000E+00 -0.45593999997E+02  0.45594000000E+02  0.51100000000E-03 0.  1.
    9900012    2    1    2    0    0  0.13141099410E+02 -0.81947455355E+01  0.37594189189E+02  0.50528863156E+02  0.30000010049E+02 0.  0.
        -12    1    1    2    0    0 -0.13141099410E+02  0.81947455355E+01 -0.37594189189E+02  0.40659136844E+02  0.00000000000E+00 0.  1.
         11    1    3    3    0    0  0.12061715954E+02 -0.82419553383E+01  0.28255003471E+02  0.31808175693E+02  0.51100000000E-03 0. -1.
        -11    1    3    3    0    0  0.20590420834E+01 -0.12375861356E+00  0.13900249080E+02  0.14052469365E+02  0.51100000000E-03 0.  1.
        -12    1    3    3    0    0 -0.97965862761E+00  0.17096841639E+00 -0.45610633612E+01  0.46682180980E+01  0.00000000000E+00 0.  1.
</event>
<event>
 7    1  0.2903212E-011  0.5052881E+02  0.7816164E-02  0.1300439E+00
        -11   -1    0    0    0    0  0.00000000000E+00  0.00000000000E+00  0.45593999997E+02  0.45594000000E+02  0.51100000000E-03 0.  1.
         11   -1    0    0    0    0 -0.00000000000E+00 -0.00000000000E+00 -0.45593999997E+02  0.45594000000E+02  0.51100000000E-03 0. -1.
    9900012    2    1    2    0    0 -0.14346490256E+02  0.37888304438E+02 -0.34386235422E+01  0.50528812506E+02  0.29999856092E+02 0.  0.
        -12    1    1    2    0    0  0.14346490256E+02 -0.37888304438E+02  0.34386235422E+01  0.40659187494E+02  0.00000000000E+00 0.  1.
         11    1    3    3    0    0 -0.46349959634E+01  0.59176927619E+01 -0.10173655052E+01  0.75853350643E+01  0.51100000000E-03 0. -1.
        -11    1    3    3    0    0 -0.84509522283E+01  0.36743578636E+02 -0.35806231397E+01  0.37872549781E+02  0.51100000000E-03 0.  1.
         12    1    3    3    0    0 -0.12605420642E+01 -0.47729669601E+01  0.11593651027E+01  0.50709276606E+01  0.00000000000E+00 0. -1.
</event>
<event>
 7    1  0.2903212E-011  0.5052871E+02  0.7816164E-02  0.1300439E+00
        -11   -1    0    0    0    0  0.00000000000E+00  0.00000000000E+00  0.45593999997E+02  0.45594000000E+02  0.51100000000E-03 0.  1.
         11   -1    0    0    0    0 -0.00000000000E+00 -0.00000000000E+00 -0.45593999997E+02  0.45594000000E+02  0.51100000000E-03 0. -1.
    9900012    2    1    2    0    0 -0.14948415681E+02  0.37202712263E+02 -0.67587525177E+01  0.50528712418E+02  0.29999551861E+02 0.  0.
        -12    1    1    2    0    0  0.14948415681E+02 -0.37202712263E+02  0.67587525177E+01  0.40659287582E+02  0.00000000000E+00 0.  1.
         11    1    3    3    0    0 -0.12760893079E+02  0.24568085313E+02  0.85771379237E+00  0.27697777553E+02  0.51100000000E-03 0. -1.
        -11    1    3    3    0    0 -0.20392305462E+01  0.74759966868E+01  0.49847098189E+01  0.92139198999E+01  0.51100000000E-03 0.  1.
         12    1    3    3    0    0 -0.14829205531E+00  0.51586302631E+01 -0.12601176129E+02  0.13617014965E+02  0.00000000000E+00 0. -1.
</event>
<event>
 7    1  0.2903212E-011  0.5052886E+02  0.7816164E-02  0.1300439E+00
        -11   -1    0    0    0    0  0.00000000000E+00  0.00000000000E+00  0.45593999997E+02  0.45594000000E+02  0.51100000000E-03 0. -1.
         11   -1    0    0    0    0 -0.00000000000E+00 -0.00000000000E+00 -0.45593999997E+02  0.45594000000E+02  0.51100000000E-03 0.  1.
    9900012    2    1    2    0    0  0.37494411719E+02 -0.14979445423E+02 -0.47907238101E+01  0.50528859208E+02  0.29999998049E+02 0.  0.
        -12    1    1    2    0    0 -0.37494411719E+02  0.14979445423E+02  0.47907238101E+01  0.40659140792E+02  0.00000000000E+00 0.  1.
         11    1    3    3    0    0  0.27092075310E+02 -0.10152350867E+02  0.11287185649E+01  0.28953838753E+02  0.51100000000E-03 0.  1.
        -11    1    3    3    0    0  0.66813837853E+01  0.46989616961E+01  0.22647619112E+01  0.84764542754E+01  0.51100000000E-03 0. -1.
        -12    1    3    3    0    0  0.37209526240E+01 -0.95260562521E+01 -0.81842042862E+01  0.13098566179E+02  0.00000000000E+00 0.  1.
</event>
<event>
 7    1  0.2903212E-011  0.5052886E+02  0.7816164E-02  0.1300439E+00
        -11   -1    0    0    0    0  0.00000000000E+00  0.00000000000E+00  0.45593999997E+02  0.45594000000E+02  0.51100000000E-03 0. -1.
         11   -1    0    0    0    0 -0.00000000000E+00 -0.00000000000E+00 -0.45593999997E+02  0.45594000000E+02  0.51100000000E-03 0.  1.
    9900012    2    1    2    0    0 -0.17352789418E+02  0.36769595013E+02 -0.20753077228E+00  0.50528862195E+02  0.30000007128E+02 0.  0.
        -12    1    1    2    0    0  0.17352789418E+02 -0.36769595013E+02  0.20753077228E+00  0.40659137805E+02  0.00000000000E+00 0.  1.
         11    1    3    3    0    0  0.25057751178E+01  0.15255491259E+02  0.28099436034E+01  0.15713201641E+02  0.51100000000E-03 0.  1.
        -11    1    3    3    0    0 -0.10085622004E+02  0.12040071771E+01  0.44254667710E+01  0.11079447680E+02  0.51100000000E-03 0. -1.
        -12    1    3    3    0    0 -0.97729425320E+01  0.20310096577E+02 -0.74429411467E+01  0.23736212874E+02  0.00000000000E+00 0.  1.
</event>
<event>
 7    1  0.2903212E-011  0.5052886E+02  0.7816164E-02  0.1300439E+00
        -11   -1    0    0    0    0  0.00000000000E+00  0.00000000000E+00  0.45593999997E+02  0.45594000000E+02  0.51100000000E-03 0. -1.
         11   -1    0    0    0    0 -0.00000000000E+00 -0.00000000000E+00 -0.45593999997E+02  0.45594000000E+02  0.51100000000E-03 0.  1.
    9900012    2    1    2    0    0 -0.15625934213E+02 -0.37404629545E+02 -0.31447476647E+01  0.50528861184E+02  0.30000004054E+02 0.  0.
        -12    1    1    2    0    0  0.15625934213E+02  0.37404629545E+02  0.31447476647E+01  0.40659138816E+02  0.00000000000E+00 0.  1.
         11    1    3    3    0    0  0.33974132273E+00 -0.12459552476E+02  0.41898599712E+01  0.13149555084E+02  0.51100000000E-03 0. -1.
        -11    1    3    3    0    0 -0.14065150105E+00 -0.99435114439E+01  0.61961484205E+01  0.11716887735E+02  0.51100000000E-03 0.  1.
        -12    1    3    3    0    0 -0.15825024034E+02 -0.15001565625E+02 -0.13530756056E+02  0.25662418365E+02  0.00000000000E+00 0.  1.
</event>
<event>
 7    1  0.2903212E-011  0.5052887E+02  0.7816164E-02  0.1300439E+00
        -11   -1    0    0    0    0  0.00000000000E+00  0.00000000000E+00  0.45593999997E+02  0.45594000000E+02  0.51100000000E-03 0.  1.
         11   -1    0    0    0    0 -0.00000000000E+00 -0.00000000000E+00 -0.45593999997E+02  0.45594000000E+02  0.51100000000E-03 0. -1.
    9900012    2    1    2    0    0  0.75230024710E+01  0.21477286325E+02 -0.33694144795E+02  0.50528870797E+02  0.30000033275E+02 0.  0.
        -12    1    1    2    0    0 -0.75230024710E+01 -0.21477286325E+02  0.33694144795E+02  0.40659129203E+02  0.00000000000E+00 0.  1.
         11    1    3    3    0    0 -0.21426195589E+01  0.41838668817E+01  0.30125157602E+01  0.55830826722E+01  0.51100000000E-03 0. -1.
        -11    1    3    3    0    0  0.13803164304E+01 -0.26218813048E+01 -0.81807442766E+00  0.30738869619E+01  0.51100000000E-03 0.  1.
         12    1    3    3    0    0  0.82853055996E+01  0.19915300748E+02 -0.35888586128E+02  0.41871901163E+02  0.00000000000E+00 0. -1.
</event>
<event>
 7    1  0.2903212E-011  0.5052886E+02  0.7816164E-02  0.1300439E+00
        -11   -1    0    0    0    0  0.00000000000E+00  0.00000000000E+00  0.45593999997E+02  0.45594000000E+02  0.51100000000E-03 0.  1.
         11   -1    0    0    0    0 -0.00000000000E+00 -0.00000000000E+00 -0.45593999997E+02  0.45594000000E+02  0.51100000000E-03 0. -1.
    9900012    2    1    2    0    0 -0.36905483451E+02 -0.16453577145E+02 -0.45200458837E+01  0.50528859276E+02  0.29999998256E+02 0.  0.
        -12    1    1    2    0    0  0.36905483451E+02  0.16453577145E+02  0.45200458837E+01  0.40659140724E+02  0.00000000000E+00 0.  1.
         11    1    3    3    0    0 -0.25730499978E+02 -0.37454622719E+01 -0.59137848517E+01  0.26665707721E+02  0.51100000000E-03 0.  1.
        -11    1    3    3    0    0 -0.15179578173E+02 -0.72141401159E+01 -0.47181801350E+00  0.16813269273E+02  0.51100000000E-03 0. -1.
        -12    1    3    3    0    0  0.40045947003E+01 -0.54939747572E+01  0.18655569814E+01  0.70498822825E+01  0.00000000000E+00 0.  1.
</event>
<event>
 7    1  0.2903212E-011  0.5052886E+02  0.7816164E-02  0.1300439E+00
        -11   -1    0    0    0    0  0.00000000000E+00  0.00000000000E+00  0.45593999997E+02  0.45594000000E+02  0.51100000000E-03 0.  1.
         11   -1    0    0    0    0 -0.00000000000E+00 -0.00000000000E+00 -0.45593999997E+02  0.45594000000E+02  0.51100000000E-03 0. -1.
    9900012    2    1    2    0    0 -0.20790173304E+02 -0.33708271419E+02 -0.92025319135E+01  0.50528862507E+02  0.30000008078E+02 0.  0.
        -12    1    1    2    0    0  0.20790173304E+02  0.33708271419E+02  0.92025319135E+01  0.40659137493E+02  0.00000000000E+00 0.  1.
         11    1    3    3    0    0  0.30109876909E+01 -0.88627323837E+01  0.14037238939E+01  0.94649095722E+01  0.51100000000E-03 0. -1.
        -11    1    3    3    0    0 -0.33705693355E+01 -0.10706787224E+02  0.43792434141E+01  0.12048809213E+02  0.51100000000E-03 0.  1.
         12    1    3    3    0    0 -0.20430591659E+02 -0.14138751810E+02 -0.14985499222E+02  0.29015143722E+02  0.00000000000E+00 0. -1.
</event>
<event>
 7    1  0.2903212E-011  0.5052886E+02  0.7816164E-02  0.1300439E+00
        -11   -1    0    0    0    0  0.00000000000E+00  0.00000000000E+00  0.45593999997E+02  0.45594000000E+02  0.51100000000E-03 0. -1.
         11   -1    0    0    0    0 -0.00000000000E+00 -0.00000000000E+00 -0.45593999997E+02  0.45594000000E+02  0.51100000000E-03 0.  1.
    9900012    2    1    2    0    0  0.17015422168E+02 -0.32260094406E+02 -0.17970171070E+02  0.50528864115E+02  0.30000012962E+02 0.  0.
        -12    1    1    2    0    0 -0.17015422168E+02  0.32260094406E+02  0.17970171070E+02  0.40659135885E+02  0.00000000000E+00 0.  1.
         11    1    3    3    0    0  0.69059395703E+01 -0.24028597610E+02 -0.15624480949E+02  0.29482026892E+02  0.51100000000E-03 0.  1.
        -11    1    3    3    0    0  0.82675224089E+01 -0.92828084417E+01 -0.81519956539E+01  0.14865311727E+02  0.51100000000E-03 0. -1.
        -12    1    3    3    0    0  0.18419601892E+01  0.10513116458E+01  0.58063055325E+01  0.61815254955E+01  0.00000000000E+00 0.  1.
</event>
<event>
 7    1  0.2903212E-011  0.5052886E+02  0.7816164E-02  0.1300439E+00
        -11   -1    0    0    0    0  0.00000000000E+00  0.00000000000E+00  0.45593999997E+02  0.45594000000E+02  0.51100000000E-03 0.  1.
         11   -1    0    0    0    0 -0.00000000000E+00 -0.00000000000E+00 -0.45593999997E+02  0.45594000000E+02  0.51100000000E-03 0. -1.
    9900012    2    1    2    0    0  0.12449973788E+02 -0.27960498477E+02 -0.26765172495E+02  0.50528858579E+02  0.29999996135E+02 0.  0.
        -12    1    1    2    0    0 -0.12449973788E+02  0.27960498477E+02  0.26765172495E+02  0.40659141421E+02  0.00000000000E+00 0.  1.
         11    1    3    3    0    0 -0.93221394996E+00 -0.26217101104E+01  0.17378184728E+01  0.32806097081E+01  0.51100000000E-03 0. -1.
        -11    1    3    3    0    0  0.37057640447E+01 -0.15095089909E+02 -0.10201372726E+00  0.15543642867E+02  0.51100000000E-03 0.  1.
         12    1    3    3    0    0  0.96764236937E+01 -0.10243698458E+02 -0.28400977241E+02  0.31704606003E+02  0.00000000000E+00 0. -1.
</event>
<event>
 7    1  0.2903212E-011  0.5052881E+02  0.7816164E-02  0.1300439E+00
        -11   -1    0    0    0    0  0.00000000000E+00  0.00000000000E+00  0.45593999997E+02  0.45594000000E+02  0.51100000000E-03 0.  1.
         11   -1    0    0    0    0 -0.00000000000E+00 -0.00000000000E+00 -0.45593999997E+02  0.45594000000E+02  0.51100000000E-03 0. -1.
    9900012    2    1    2    0    0  0.15262793581E+02 -0.57658921304E+01 -0.37242065414E+02  0.50528808957E+02  0.29999845305E+02 0.  0.
        -12    1    1    2    0    0 -0.15262793581E+02  0.57658921304E+01  0.37242065414E+02  0.40659191043E+02  0.00000000000E+00 0.  1.
         11    1    3    3    0    0  0.22601964041E+01 -0.32911903926E+01 -0.17160359632E+02  0.17618693622E+02  0.51100000000E-03 0. -1.
        -11    1    3    3    0    0  0.14775736682E+02 -0.16536268194E+01 -0.24171140399E+02  0.28377824169E+02  0.51100000000E-03 0.  1.
        -12    1    3    3    0    0 -0.17731395051E+01 -0.82107491829E+00  0.40894346163E+01  0.45322911653E+01  0.00000000000E+00 0.  1.
</event>
<event>
 7    1  0.2903212E-011  0.5052887E+02  0.7816164E-02  0.1300439E+00
        -11   -1    0    0    0    0  0.00000000000E+00  0.00000000000E+00  0.45593999997E+02  0.45594000000E+02  0.51100000000E-03 0. -1.
         11   -1    0    0    0    0 -0.00000000000E+00 -0.00000000000E+00 -0.45593999997E+02  0.45594000000E+02  0.51100000000E-03 0.  1.
    9900012    2    1    2    0    0  0.69605639113E+01  0.31136630472E+02  0.25203689146E+02  0.50528866295E+02  0.30000019589E+02 0.  0.
        -12    1    1    2    0    0 -0.69605639113E+01 -0.31136630472E+02 -0.25203689146E+02  0.40659133705E+02  0.00000000000E+00 0.  1.
         11    1    3    3    0    0  0.53663467520E+01  0.11170734157E+02  0.11334696848E+02  0.16794592343E+02  0.51100000000E-03 0. -1.
        -11    1    3    3    0    0  0.10918026161E+02  0.15039565969E+02  0.34349867160E+01  0.18899496654E+02  0.51100000000E-03 0.  1.
        -12    1    3    3    0    0 -0.93238090017E+01  0.49263303461E+01  0.10434005582E+02  0.14834777297E+02  0.00000000000E+00 0.  1.
</event>
<event>
 7    1  0.2903212E-011  0.5052884E+02  0.7816164E-02  0.1300439E+00
        -11   -1    0    0    0    0  0.00000000000E+00  0.00000000000E+00  0.45593999997E+02  0.45594000000E+02  0.51100000000E-03 0. -1.
         11   -1    0    0    0    0 -0.00000000000E+00 -0.00000000000E+00 -0.45593999997E+02  0.45594000000E+02  0.51100000000E-03 0.  1.
    9900012    2    1    2    0    0  0.29246026914E+02  0.27835597051E+02 -0.47975624073E+01  0.50528841641E+02  0.29999944653E+02 0.  0.
        -12    1    1    2    0    0 -0.29246026914E+02 -0.27835597051E+02  0.47975624073E+01  0.40659158359E+02  0.00000000000E+00 0.  1.
         11    1    3    3    0    0  0.29222898060E+02  0.26516671400E+02  0.22920790024E+01  0.39526766368E+02  0.51100000000E-03 0. -1.
        -11    1    3    3    0    0  0.19041654445E+01  0.41362141317E+01 -0.22089529329E+01  0.50609867322E+01  0.51100000000E-03 0.  1.
        -12    1    3    3    0    0 -0.18810365907E+01 -0.28172884807E+01 -0.48806884768E+01  0.59410885406E+01  0.00000000000E+00 0.  1.
</event>
<event>
 7    1  0.2903212E-011  0.5052886E+02  0.7816164E-02  0.1300439E+00
        -11   -1    0    0    0    0  0.00000000000E+00  0.00000000000E+00  0.45593999997E+02  0.45594000000E+02  0.51100000000E-03 0. -1.
         11   -1    0    0    0    0 -0.00000000000E+00 -0.00000000000E+00 -0.45593999997E+02  0.45594000000E+02  0.51100000000E-03 0.  1.
    9900012    2    1    2    0    0 -0.32192546082E+01 -0.39336337740E+02 -0.97700917994E+01  0.50528858828E+02  0.29999996895E+02 0.  0.
        -12    1    1    2    0    0  0.32192546082E+01  0.39336337740E+02  0.97700917994E+01  0.40659141172E+02  0.00000000000E+00 0.  1.
         11    1    3    3    0    0 -0.77462087975E+00  0.12560683222E+01 -0.27276588272E+01  0.31012687849E+01  0.51100000000E-03 0. -1.
        -11    1    3    3    0    0 -0.41057214899E+01  0.15706440335E+01 -0.23139517939E+01  0.49677202818E+01  0.51100000000E-03 0.  1.
         12    1    3    3    0    0  0.16610877614E+01 -0.42163050096E+02 -0.47284811783E+01  0.42459869762E+02  0.00000000000E+00 0. -1.
</event>
<event>
 7    1  0.2903212E-011  0.5052886E+02  0.7816164E-02  0.1300439E+00
        -11   -1    0    0    0    0  0.00000000000E+00  0.00000000000E+00  0.45593999997E+02  0.45594000000E+02  0.51100000000E-03 0.  1.
         11   -1    0    0    0    0 -0.00000000000E+00 -0.00000000000E+00 -0.45593999997E+02  0.45594000000E+02  0.51100000000E-03 0. -1.
    9900012    2    1    2    0    0  0.71825014213E+01 -0.38438299596E+02  0.11138862236E+02  0.50528862596E+02  0.30000008348E+02 0.  0.
        -12    1    1    2    0    0 -0.71825014213E+01  0.38438299596E+02 -0.11138862236E+02  0.40659137404E+02  0.00000000000E+00 0.  1.
         11    1    3    3    0    0  0.16814568338E+01  0.86824917717E+00 -0.24449821198E+01  0.30917780556E+01  0.51100000000E-03 0. -1.
        -11    1    3    3    0    0  0.10801329140E+02 -0.81563642346E+01  0.15424573845E+01  0.13622560837E+02  0.51100000000E-03 0.  1.
         12    1    3    3    0    0 -0.53002845522E+01 -0.31150184539E+02  0.12041386971E+02  0.33814523704E+02  0.00000000000E+00 0. -1.
</event>
<event>
 7    1  0.2903212E-011  0.5052886E+02  0.7816164E-02  0.1300439E+00
        -11   -1    0    0    0    0  0.00000000000E+00  0.00000000000E+00  0.45593999997E+02  0.45594000000E+02  0.51100000000E-03 0.  1.
         11   -1    0    0    0    0 -0.00000000000E+00 -0.00000000000E+00 -0.45593999997E+02  0.45594000000E+02  0.51100000000E-03 0. -1.
    9900012    2    1    2    0    0  0.13805867901E+02  0.76677408520E+01 -0.37466914280E+02  0.50528857069E+02  0.29999991545E+02 0.  0.
        -12    1    1    2    0    0 -0.13805867901E+02 -0.76677408520E+01  0.37466914280E+02  0.40659142931E+02  0.00000000000E+00 0.  1.
         11    1    3    3    0    0  0.71223600125E+01  0.42861762665E+01  0.46028155927E+00  0.83253335375E+01  0.51100000000E-03 0. -1.
        -11    1    3    3    0    0  0.29799604317E+01 -0.39939598163E+01 -0.20484283904E+01  0.53877581906E+01  0.51100000000E-03 0.  1.
         12    1    3    3    0    0  0.37035474569E+01  0.73755244019E+01 -0.35878767449E+02  0.36815765340E+02  0.00000000000E+00 0. -1.
</event>
<event>
 7    1  0.2903212E-011  0.5052886E+02  0.7816164E-02  0.1300439E+00
        -11   -1    0    0    0    0  0.00000000000E+00  0.00000000000E+00  0.45593999997E+02  0.45594000000E+02  0.51100000000E-03 0. -1.
         11   -1    0    0    0    0 -0.00000000000E+00 -0.00000000000E+00 -0.45593999997E+02  0.45594000000E+02  0.51100000000E-03 0.  1.
    9900012    2    1    2    0    0  0.31822528879E+02  0.22346706357E+02  0.11879279617E+02  0.50528856951E+02  0.29999991187E+02 0.  0.
        -12    1    1    2    0    0 -0.31822528879E+02 -0.22346706357E+02 -0.11879279617E+02  0.40659143049E+02  0.00000000000E+00 0.  1.
         11    1    3    3    0    0  0.16533977908E+02  0.83040100464E+01  0.35038281795E+01  0.18830980338E+02  0.51100000000E-03 0. -1.
        -11    1    3    3    0    0  0.16507451699E+02  0.83489780989E+01 -0.31689627830E+01  0.18768157136E+02  0.51100000000E-03 0.  1.
        -12    1    3    3    0    0 -0.12189007278E+01  0.56937182121E+01  0.11544414220E+02  0.12929719477E+02  0.00000000000E+00 0.  1.
</event>
<event>
 7    1  0.2903212E-011  0.5052886E+02  0.7816164E-02  0.1300439E+00
        -11   -1    0    0    0    0  0.00000000000E+00  0.00000000000E+00  0.45593999997E+02  0.45594000000E+02  0.51100000000E-03 0.  1.
         11   -1    0    0    0    0 -0.00000000000E+00 -0.00000000000E+00 -0.45593999997E+02  0.45594000000E+02  0.51100000000E-03 0. -1.
    9900012    2    1    2    0    0  0.64658995158E+01  0.37064360848E+02 -0.15413990742E+02  0.50528858197E+02  0.29999994975E+02 0.  0.
        -12    1    1    2    0    0 -0.64658995158E+01 -0.37064360848E+02  0.15413990742E+02  0.40659141803E+02  0.00000000000E+00 0.  1.
         11    1    3    3    0    0 -0.68685755203E+01  0.79261541835E+01 -0.54925597437E+01  0.11839318503E+02  0.51100000000E-03 0. -1.
        -11    1    3    3    0    0  0.12550931563E+01  0.20109981478E+01  0.49428959102E+01  0.54819332924E+01  0.51100000000E-03 0.  1.
         12    1    3    3    0    0  0.12079381880E+02  0.27127208516E+02 -0.14864326908E+02  0.33207606401E+02  0.00000000000E+00 0. -1.
</event>
<event>
 7    1  0.2903212E-011  0.5052885E+02  0.7816164E-02  0.1300439E+00
        -11   -1    0    0    0    0  0.00000000000E+00  0.00000000000E+00  0.45593999997E+02  0.45594000000E+02  0.51100000000E-03 0.  1.
         11   -1    0    0    0    0 -0.00000000000E+00 -0.00000000000E+00 -0.45593999997E+02  0.45594000000E+02  0.51100000000E-03 0. -1.
    9900012    2    1    2    0    0  0.33806033852E+02 -0.18979153997E+02 -0.12251936966E+02  0.50528853788E+02  0.29999981574E+02 0.  0.
        -12    1    1    2    0    0 -0.33806033852E+02  0.18979153997E+02  0.12251936966E+02  0.40659146212E+02  0.00000000000E+00 0.  1.
         11    1    3    3    0    0  0.15228378967E+02 -0.92375890813E+01 -0.15629934522E+01  0.17879584078E+02  0.51100000000E-03 0. -1.
        -11    1    3    3    0    0  0.69564120075E+01 -0.14482740509E+02  0.14731568254E+00  0.16067456016E+02  0.51100000000E-03 0.  1.
        -12    1    3    3    0    0  0.11621242878E+02  0.47411755931E+01 -0.10836259196E+02  0.16581813694E+02  0.00000000000E+00 0.  1.
</event>
<event>
 7    1  0.2903212E-011  0.5052890E+02  0.7816164E-02  0.1300439E+00
        -11   -1    0    0    0    0  0.00000000000E+00  0.00000000000E+00  0.45593999997E+02  0.45594000000E+02  0.51100000000E-03 0.  1.
         11   -1    0    0    0    0 -0.00000000000E+00 -0.00000000000E+00 -0.45593999997E+02  0.45594000000E+02  0.51100000000E-03 0. -1.
    9900012    2    1    2    0    0 -0.39505811962E+02  0.15220387821E+01 -0.94940345718E+01  0.50528899256E+02  0.30000119780E+02 0.  0.
        -12    1    1    2    0    0  0.39505811962E+02 -0.15220387821E+01  0.94940345718E+01  0.40659100744E+02  0.00000000000E+00 0.  1.
         11    1    3    3    0    0 -0.15152758347E+02 -0.89167404142E+01 -0.24821145570E+01  0.17755991610E+02  0.51100000000E-03 0.  1.
        -11    1    3    3    0    0 -0.10072621132E+02 -0.29208685217E+01 -0.80032495966E+01  0.13192466554E+02  0.51100000000E-03 0. -1.
         12    1    3    3    0    0 -0.14280432483E+02  0.13359647718E+02  0.99132958173E+00  0.19580441093E+02  0.00000000000E+00 0. -1.
</event>
<event>
 7    1  0.2903212E-011  0.5052888E+02  0.7816164E-02  0.1300439E+00
        -11   -1    0    0    0    0  0.00000000000E+00  0.00000000000E+00  0.45593999997E+02  0.45594000000E+02  0.51100000000E-03 0. -1.
         11   -1    0    0    0    0 -0.00000000000E+00 -0.00000000000E+00 -0.45593999997E+02  0.45594000000E+02  0.51100000000E-03 0.  1.
    9900012    2    1    2    0    0  0.39413823618E+02 -0.61515932365E+01  0.78659191566E+01  0.50528877092E+02  0.30000052408E+02 0.  0.
        -12    1    1    2    0    0 -0.39413823618E+02  0.61515932365E+01 -0.78659191566E+01  0.40659122908E+02  0.00000000000E+00 0.  1.
         11    1    3    3    0    0  0.17251415726E+02  0.38079499365E+01  0.34373680374E+01  0.17997981180E+02  0.51100000000E-03 0. -1.
        -11    1    3    3    0    0  0.67025992528E+01  0.42836918412E+01 -0.51023226513E+01  0.94503200599E+01  0.51100000000E-03 0.  1.
         12    1    3    3    0    0  0.15459808639E+02 -0.14243235014E+02  0.95308737706E+01  0.23080575852E+02  0.00000000000E+00 0. -1.
</event>
<event>
 7    1  0.2903212E-011  0.5052886E+02  0.7816164E-02  0.1300439E+00
        -11   -1    0    0    0    0  0.00000000000E+00  0.00000000000E+00  0.45593999997E+02  0.45594000000E+02  0.51100000000E-03 0.  1.
         11   -1    0    0    0    0 -0.00000000000E+00 -0.00000000000E+00 -0.45593999997E+02  0.45594000000E+02  0.51100000000E-03 0. -1.
    9900012    2    1    2    0    0 -0.20603708796E+02 -0.29451438656E+02  0.19006979419E+02  0.50528864229E+02  0.30000013310E+02 0.  0.
        -12    1    1    2    0    0  0.20603708796E+02  0.29451438656E+02 -0.19006979419E+02  0.40659135771E+02  0.00000000000E+00 0.  1.
         11    1    3    3    0    0 -0.77060077677E+01 -0.24642191766E+02  0.13270404876E+02  0.29029705762E+02  0.51100000000E-03 0.  1.
        -11    1    3    3    0    0 -0.14291544907E+02 -0.72566636277E+01  0.79738330718E+01  0.17902218772E+02  0.51100000000E-03 0. -1.
         12    1    3    3    0    0  0.13938438786E+01  0.24474167381E+01 -0.22372585294E+01  0.35969396958E+01  0.00000000000E+00 0. -1.
</event>
<event>
 7    1  0.2903212E-011  0.5052896E+02  0.7816164E-02  0.1300438E+00
        -11   -1    0    0    0    0  0.00000000000E+00  0.00000000000E+00  0.45593999997E+02  0.45594000000E+02  0.51100000000E-03 0.  1.
         11   -1    0    0    0    0 -0.00000000000E+00 -0.00000000000E+00 -0.45593999997E+02  0.45594000000E+02  0.51100000000E-03 0. -1.
    9900012    2    1    2    0    0  0.26553853145E+02 -0.79747238327E+01 -0.29739774578E+02  0.50528960058E+02  0.30000304591E+02 0.  0.
        -12    1    1    2    0    0 -0.26553853145E+02  0.79747238327E+01  0.29739774578E+02  0.40659039942E+02  0.00000000000E+00 0.  1.
         11    1    3    3    0    0  0.42148325530E+01  0.39400839450E+01 -0.44487767807E+01  0.72856495969E+01  0.51100000000E-03 0. -1.
        -11    1    3    3    0    0  0.21613311584E+02 -0.16661239311E+01 -0.79541563086E+01  0.23090686638E+02  0.51100000000E-03 0.  1.
         12    1    3    3    0    0  0.72570900799E+00 -0.10248683847E+02 -0.17336841488E+02  0.20152623823E+02  0.00000000000E+00 0. -1.
</event>
<event>
 7    1  0.2903212E-011  0.5052887E+02  0.7816164E-02  0.1300439E+00
        -11   -1    0    0    0    0  0.00000000000E+00  0.00000000000E+00  0.45593999997E+02  0.45594000000E+02  0.51100000000E-03 0.  1.
         11   -1    0    0    0    0 -0.00000000000E+00 -0.00000000000E+00 -0.45593999997E+02  0.45594000000E+02  0.51100000000E-03 0. -1.
    9900012    2    1    2    0    0 -0.14273317567E+02 -0.85829841759E+01 -0.37091368778E+02  0.50528870034E+02  0.30000030955E+02 0.  0.
        -12    1    1    2    0    0  0.14273317567E+02  0.85829841759E+01  0.37091368778E+02  0.40659129966E+02  0.00000000000E+00 0.  1.
         11    1    3    3    0    0  0.54232177620E+01  0.21771857877E+01  0.77109119598E+00  0.58945746871E+01  0.51100000000E-03 0.  1.
        -11    1    3    3    0    0 -0.27874680322E+01  0.65036274812E+00 -0.24544934669E+01  0.37706084622E+01  0.51100000000E-03 0. -1.
        -12    1    3    3    0    0 -0.16909067297E+02 -0.11410532712E+02 -0.35407966507E+02  0.40863686885E+02  0.00000000000E+00 0.  1.
</event>
<event>
 7    1  0.2903212E-011  0.5052887E+02  0.7816164E-02  0.1300439E+00
        -11   -1    0    0    0    0  0.00000000000E+00  0.00000000000E+00  0.45593999997E+02  0.45594000000E+02  0.51100000000E-03 0.  1.
         11   -1    0    0    0    0 -0.00000000000E+00 -0.00000000000E+00 -0.45593999997E+02  0.45594000000E+02  0.51100000000E-03 0. -1.
    9900012    2    1    2    0    0 -0.40652216195E+01 -0.37378609080E+02 -0.15475101091E+02  0.50528865757E+02  0.30000017956E+02 0.  0.
        -12    1    1    2    0    0  0.40652216195E+01  0.37378609080E+02  0.15475101091E+02  0.40659134243E+02  0.00000000000E+00 0.  1.
         11    1    3    3    0    0 -0.10455251936E+02 -0.34598506876E+01 -0.21774596529E+01  0.11226049645E+02  0.51100000000E-03 0. -1.
        -11    1    3    3    0    0 -0.60667584290E+00 -0.27210464520E+02 -0.10891735103E+02  0.29315649895E+02  0.51100000000E-03 0.  1.
        -12    1    3    3    0    0  0.69967061593E+01 -0.67082938730E+01 -0.24059063348E+01  0.99871662176E+01  0.00000000000E+00 0.  1.
</event>
<event>
 7    1  0.2903212E-011  0.5052886E+02  0.7816164E-02  0.1300439E+00
        -11   -1    0    0    0    0  0.00000000000E+00  0.00000000000E+00  0.45593999997E+02  0.45594000000E+02  0.51100000000E-03 0.  1.
         11   -1    0    0    0    0 -0.00000000000E+00 -0.00000000000E+00 -0.45593999997E+02  0.45594000000E+02  0.51100000000E-03 0. -1.
    9900012    2    1    2    0    0  0.38717836088E+02  0.10945391683E+02 -0.58560489150E+01  0.50528859093E+02  0.29999997698E+02 0.  0.
        -12    1    1    2    0    0 -0.38717836088E+02 -0.10945391683E+02  0.58560489150E+01  0.40659140907E+02  0.00000000000E+00 0.  1.
         11    1    3    3    0    0  0.13047956376E+02 -0.40160185526E+00 -0.42789305520E+01  0.13737528765E+02  0.51100000000E-03 0. -1.
        -11    1    3    3    0    0  0.33585679746E+01 -0.69848133997E+01 -0.16054284618E+01  0.79148593087E+01  0.51100000000E-03 0.  1.
        -12    1    3    3    0    0  0.22311311738E+02  0.18331806938E+02  0.28310098845E-01  0.28876471019E+02  0.00000000000E+00 0.  1.
</event>
<event>
 7    1  0.2903212E-011  0.5052886E+02  0.7816164E-02  0.1300439E+00
        -11   -1    0    0    0    0  0.00000000000E+00  0.00000000000E+00  0.45593999997E+02  0.45594000000E+02  0.51100000000E-03 0.  1.
         11   -1    0    0    0    0 -0.00000000000E+00 -0.00000000000E+00 -0.45593999997E+02  0.45594000000E+02  0.51100000000E-03 0. -1.
    9900012    2    1    2    0    0 -0.12088406400E+02  0.14708840126E+02 -0.35926125728E+02  0.50528855186E+02  0.29999985824E+02 0.  0.
        -12    1    1    2    0    0  0.12088406400E+02 -0.14708840126E+02  0.35926125728E+02  0.40659144814E+02  0.00000000000E+00 0.  1.
         11    1    3    3    0    0 -0.98789230478E+01  0.21845402505E+01 -0.52336677079E+01  0.11391076096E+02  0.51100000000E-03 0. -1.
        -11    1    3    3    0    0  0.37429582867E+01 -0.43323139719E+01 -0.11871852919E+02  0.13180272117E+02  0.51100000000E-03 0.  1.
        -12    1    3    3    0    0 -0.59524416393E+01  0.16856613847E+02 -0.18820605101E+02  0.25957506973E+02  0.00000000000E+00 0.  1.
</event>
<event>
 7    1  0.2903212E-011  0.5052886E+02  0.7816164E-02  0.1300439E+00
        -11   -1    0    0    0    0  0.00000000000E+00  0.00000000000E+00  0.45593999997E+02  0.45594000000E+02  0.51100000000E-03 0. -1.
         11   -1    0    0    0    0 -0.00000000000E+00 -0.00000000000E+00 -0.45593999997E+02  0.45594000000E+02  0.51100000000E-03 0.  1.
    9900012    2    1    2    0    0 -0.34501266390E+02 -0.20166346810E+02 -0.74931258990E+01  0.50528857585E+02  0.29999993115E+02 0.  0.
        -12    1    1    2    0    0  0.34501266390E+02  0.20166346810E+02  0.74931258990E+01  0.40659142415E+02  0.00000000000E+00 0.  1.
         11    1    3    3    0    0 -0.16245480233E+02 -0.18410155484E+02  0.25412706756E+01  0.24684155036E+02  0.51100000000E-03 0. -1.
        -11    1    3    3    0    0  0.24925361918E+01  0.90616723194E+00 -0.18881131158E-01  0.26522127513E+01  0.51100000000E-03 0.  1.
         12    1    3    3    0    0 -0.20748322349E+02 -0.26623585576E+01 -0.10015515443E+02  0.23192489797E+02  0.00000000000E+00 0. -1.
</event>
<event>
 7    1  0.2903212E-011  0.5052885E+02  0.7816164E-02  0.1300439E+00
        -11   -1    0    0    0    0  0.00000000000E+00  0.00000000000E+00  0.45593999997E+02  0.45594000000E+02  0.51100000000E-03 0.  1.
         11   -1    0    0    0    0 -0.00000000000E+00 -0.00000000000E+00 -0.45593999997E+02  0.45594000000E+02  0.51100000000E-03 0. -1.
    9900012    2    1    2    0    0 -0.46221486777E+01 -0.28142350277E+01 -0.40297421871E+02  0.50528851133E+02  0.29999973503E+02 0.  0.
        -12    1    1    2    0    0  0.46221486777E+01  0.28142350277E+01  0.40297421871E+02  0.40659148867E+02  0.00000000000E+00 0.  1.
         11    1    3    3    0    0  0.18430943193E+00 -0.13375194001E+02 -0.16441386553E+02  0.21195494251E+02  0.51100000000E-03 0. -1.
        -11    1    3    3    0    0 -0.28588415120E+01 -0.25173301788E+01 -0.61673800527E+01  0.72488966743E+01  0.51100000000E-03 0.  1.
         12    1    3    3    0    0 -0.19476165977E+01  0.13078289152E+02 -0.17688655265E+02  0.22084460207E+02  0.00000000000E+00 0. -1.
</event>
<event>
 7    1  0.2903212E-011  0.5052888E+02  0.7816164E-02  0.1300439E+00
        -11   -1    0    0    0    0  0.00000000000E+00  0.00000000000E+00  0.45593999997E+02  0.45594000000E+02  0.51100000000E-03 0. -1.
         11   -1    0    0    0    0 -0.00000000000E+00 -0.00000000000E+00 -0.45593999997E+02  0.45594000000E+02  0.51100000000E-03 0.  1.
    9900012    2    1    2    0    0 -0.39133154786E+02 -0.89973638781E+01  0.63880880383E+01  0.50528880125E+02  0.30000061627E+02 0.  0.
        -12    1    1    2    0    0  0.39133154786E+02  0.89973638781E+01 -0.63880880383E+01  0.40659119875E+02  0.00000000000E+00 0.  1.
         11    1    3    3    0    0 -0.18972161349E+02 -0.26354944641E+01  0.12575449381E+02  0.22913547624E+02  0.51100000000E-03 0. -1.
        -11    1    3    3    0    0 -0.19843917181E+02 -0.10271457013E+02 -0.29679998190E+01  0.22540916163E+02  0.51100000000E-03 0.  1.
         12    1    3    3    0    0 -0.31707625551E+00  0.39095875991E+01 -0.32193615239E+01  0.50744163377E+01  0.00000000000E+00 0. -1.
</event>
<event>
 7    1  0.2903212E-011  0.5052887E+02  0.7816164E-02  0.1300439E+00
        -11   -1    0    0    0    0  0.00000000000E+00  0.00000000000E+00  0.45593999997E+02  0.45594000000E+02  0.51100000000E-03 0. -1.
         11   -1    0    0    0    0 -0.00000000000E+00 -0.00000000000E+00 -0.45593999997E+02  0.45594000000E+02  0.51100000000E-03 0.  1.
    9900012    2    1    2    0    0 -0.12394841103E+02 -0.30867833120E+02  0.23381830062E+02  0.50528865915E+02  0.30000018434E+02 0.  0.
        -12    1    1    2    0    0  0.12394841103E+02  0.30867833120E+02 -0.23381830062E+02  0.40659134085E+02  0.00000000000E+00 0.  1.
         11    1    3    3    0    0  0.70008345502E+01 -0.77712626111E+01 -0.20589016824E+00  0.10461672810E+02  0.51100000000E-03 0. -1.
        -11    1    3    3    0    0  0.14264029145E+00 -0.87579090715E+00 -0.11827014277E+01  0.14785597364E+01  0.51100000000E-03 0.  1.
         12    1    3    3    0    0 -0.19538315945E+02 -0.22220779602E+02  0.24770421658E+02  0.38588633368E+02  0.00000000000E+00 0. -1.
</event>
<event>
 7    1  0.2903212E-011  0.5052897E+02  0.7816164E-02  0.1300438E+00
        -11   -1    0    0    0    0  0.00000000000E+00  0.00000000000E+00  0.45593999997E+02  0.45594000000E+02  0.51100000000E-03 0. -1.
         11   -1    0    0    0    0 -0.00000000000E+00 -0.00000000000E+00 -0.45593999997E+02  0.45594000000E+02  0.51100000000E-03 0.  1.
    9900012    2    1    2    0    0  0.20568084556E+02 -0.33438805007E+02  0.10580987899E+02  0.50528965487E+02  0.30000321093E+02 0.  0.
        -12    1    1    2    0    0 -0.20568084556E+02  0.33438805007E+02 -0.10580987899E+02  0.40659034513E+02  0.00000000000E+00 0.  1.
         11    1    3    3    0    0 -0.69261082126E+00  0.81480175101E+00 -0.18869619441E+01  0.21689253751E+01  0.51100000000E-03 0. -1.
        -11    1    3    3    0    0 -0.49828470463E+00 -0.12923012896E+02 -0.42394048849E+01  0.13609742981E+02  0.51100000000E-03 0.  1.
         12    1    3    3    0    0  0.21758980082E+02 -0.21330593862E+02  0.16707354728E+02  0.34750297131E+02  0.00000000000E+00 0. -1.
</event>
<event>
 7    1  0.2903212E-011  0.5052888E+02  0.7816164E-02  0.1300439E+00
        -11   -1    0    0    0    0  0.00000000000E+00  0.00000000000E+00  0.45593999997E+02  0.45594000000E+02  0.51100000000E-03 0.  1.
         11   -1    0    0    0    0 -0.00000000000E+00 -0.00000000000E+00 -0.45593999997E+02  0.45594000000E+02  0.51100000000E-03 0. -1.
    9900012    2    1    2    0    0  0.30745628641E+02 -0.92462360899E+00 -0.26589765953E+02  0.50528877250E+02  0.30000052890E+02 0.  0.
        -12    1    1    2    0    0 -0.30745628641E+02  0.92462360899E+00  0.26589765953E+02  0.40659122750E+02  0.00000000000E+00 0.  1.
         11    1    3    3    0    0  0.52503706312E+01  0.82013030921E+01 -0.43548344613E+01  0.10667349606E+02  0.51100000000E-03 0. -1.
        -11    1    3    3    0    0  0.28095302083E+00  0.40913540194E+01 -0.54245110310E+01  0.68002523849E+01  0.51100000000E-03 0.  1.
         12    1    3    3    0    0  0.25214304989E+02 -0.13217280720E+02 -0.16810420461E+02  0.33061275259E+02  0.00000000000E+00 0. -1.
</event>
<event>
 7    1  0.2903212E-011  0.5052888E+02  0.7816164E-02  0.1300439E+00
        -11   -1    0    0    0    0  0.00000000000E+00  0.00000000000E+00  0.45593999997E+02  0.45594000000E+02  0.51100000000E-03 0.  1.
         11   -1    0    0    0    0 -0.00000000000E+00 -0.00000000000E+00 -0.45593999997E+02  0.45594000000E+02  0.51100000000E-03 0. -1.
    9900012    2    1    2    0    0 -0.60493724159E+01 -0.34349272847E+02 -0.20897291895E+02  0.50528877281E+02  0.30000052984E+02 0.  0.
        -12    1    1    2    0    0  0.60493724159E+01  0.34349272847E+02  0.20897291895E+02  0.40659122719E+02  0.00000000000E+00 0.  1.
         11    1    3    3    0    0 -0.33083210543E+01 -0.17589046313E+01 -0.73219129309E+00  0.38177006236E+01  0.51100000000E-03 0. -1.
        -11    1    3    3    0    0 -0.49956091869E+01 -0.99593832333E+01  0.54946020028E+01  0.12423207193E+02  0.51100000000E-03 0.  1.
        -12    1    3    3    0    0  0.22545578253E+01 -0.22630984982E+02 -0.25659702605E+02  0.34287969464E+02  0.00000000000E+00 0.  1.
</event>
<event>
 7    1  0.2903212E-011  0.5052886E+02  0.7816164E-02  0.1300439E+00
        -11   -1    0    0    0    0  0.00000000000E+00  0.00000000000E+00  0.45593999997E+02  0.45594000000E+02  0.51100000000E-03 0. -1.
         11   -1    0    0    0    0 -0.00000000000E+00 -0.00000000000E+00 -0.45593999997E+02  0.45594000000E+02  0.51100000000E-03 0.  1.
    9900012    2    1    2    0    0 -0.12252056945E-01  0.35535282201E+02  0.19758769167E+02  0.50528863385E+02  0.30000010746E+02 0.  0.
        -12    1    1    2    0    0  0.12252056945E-01 -0.35535282201E+02 -0.19758769167E+02  0.40659136615E+02  0.00000000000E+00 0.  1.
         11    1    3    3    0    0 -0.10316463791E+02  0.81521863715E+01  0.16083991482E+02  0.20774560165E+02  0.51100000000E-03 0. -1.
        -11    1    3    3    0    0  0.52632964166E+01  0.10142461040E+02  0.28297358490E+01  0.11771967140E+02  0.51100000000E-03 0.  1.
        -12    1    3    3    0    0  0.50409153178E+01  0.17240634790E+02  0.84504183688E+00  0.17982336081E+02  0.00000000000E+00 0.  1.
</event>
<event>
 7    1  0.2903212E-011  0.5052886E+02  0.7816164E-02  0.1300439E+00
        -11   -1    0    0    0    0  0.00000000000E+00  0.00000000000E+00  0.45593999997E+02  0.45594000000E+02  0.51100000000E-03 0.  1.
         11   -1    0    0    0    0 -0.00000000000E+00 -0.00000000000E+00 -0.45593999997E+02  0.45594000000E+02  0.51100000000E-03 0. -1.
    9900012    2    1    2    0    0 -0.34499433376E+02 -0.19535706021E+01 -0.21427508849E+02  0.50528862320E+02  0.30000007509E+02 0.  0.
        -12    1    1    2    0    0  0.34499433376E+02  0.19535706021E+01  0.21427508849E+02  0.40659137680E+02  0.00000000000E+00 0.  1.
         11    1    3    3    0    0 -0.15496970656E+02 -0.11326603335E+01 -0.44700334818E+00  0.15544736447E+02  0.51100000000E-03 0. -1.
        -11    1    3    3    0    0 -0.51584473649E+01 -0.25475994821E+01  0.35525099529E+01  0.67616691404E+01  0.51100000000E-03 0.  1.
        -12    1    3    3    0    0 -0.13844015355E+02  0.17266892135E+01 -0.24533015454E+02  0.28222456733E+02  0.00000000000E+00 0.  1.
</event>
<event>
 7    1  0.2903212E-011  0.5052885E+02  0.7816164E-02  0.1300439E+00
        -11   -1    0    0    0    0  0.00000000000E+00  0.00000000000E+00  0.45593999997E+02  0.45594000000E+02  0.51100000000E-03 0.  1.
         11   -1    0    0    0    0 -0.00000000000E+00 -0.00000000000E+00 -0.45593999997E+02  0.45594000000E+02  0.51100000000E-03 0. -1.
    9900012    2    1    2    0    0  0.17828859139E+02 -0.59131633812E+01 -0.36060121843E+02  0.50528854574E+02  0.29999983964E+02 0.  0.
        -12    1    1    2    0    0 -0.17828859139E+02  0.59131633812E+01  0.36060121843E+02  0.40659145426E+02  0.00000000000E+00 0.  1.
         11    1    3    3    0    0  0.49390445822E+01  0.74472983025E+01 -0.19620176397E+02  0.21559400166E+02  0.51100000000E-03 0.  1.
        -11    1    3    3    0    0  0.30578301521E+01 -0.45125510681E+01 -0.14638346086E+02  0.15620327102E+02  0.51100000000E-03 0. -1.
         12    1    3    3    0    0  0.98319844046E+01 -0.88479106156E+01 -0.18015993605E+01  0.13349127307E+02  0.00000000000E+00 0. -1.
</event>
<event>
 7    1  0.2903212E-011  0.5052886E+02  0.7816164E-02  0.1300439E+00
        -11   -1    0    0    0    0  0.00000000000E+00  0.00000000000E+00  0.45593999997E+02  0.45594000000E+02  0.51100000000E-03 0.  1.
         11   -1    0    0    0    0 -0.00000000000E+00 -0.00000000000E+00 -0.45593999997E+02  0.45594000000E+02  0.51100000000E-03 0. -1.
    9900012    2    1    2    0    0  0.54452581850E+01 -0.38362120368E+02 -0.12323242023E+02  0.50528863145E+02  0.30000010014E+02 0.  0.
        -12    1    1    2    0    0 -0.54452581850E+01  0.38362120368E+02  0.12323242023E+02  0.40659136855E+02  0.00000000000E+00 0.  1.
         11    1    3    3    0    0  0.45546636892E+01 -0.32110910967E+02 -0.11012167554E+02  0.34250889024E+02  0.51100000000E-03 0. -1.
        -11    1    3    3    0    0  0.14790116896E+01 -0.96205124852E+01  0.35271250479E+01  0.10352890776E+02  0.51100000000E-03 0.  1.
         12    1    3    3    0    0 -0.58841719381E+00  0.33693030840E+01 -0.48381995174E+01  0.59250833442E+01  0.00000000000E+00 0. -1.
</event>
<event>
 7    1  0.4450549E-011  0.5052884E+02  0.7816164E-02  0.1300439E+00
        -11   -1    0    0    0    0  0.00000000000E+00  0.00000000000E+00  0.45593999997E+02  0.45594000000E+02  0.51100000000E-03 0. -1.
         11   -1    0    0    0    0 -0.00000000000E+00 -0.00000000000E+00 -0.45593999997E+02  0.45594000000E+02  0.51100000000E-03 0.  1.
    9900012    2    1    2    0    0  0.19290524693E+02 -0.60178295816E+01  0.35282125136E+02  0.50528843959E+02  0.29999951699E+02 0.  0.
        -12    1    1    2    0    0 -0.19290524693E+02  0.60178295816E+01 -0.35282125136E+02  0.40659156041E+02  0.00000000000E+00 0.  1.
         11    1    3    3    0    0  0.14296674325E+02  0.93168179452E-01  0.20288128108E+02  0.24819583386E+02  0.51100000000E-03 0. -1.
        -11    1    3    3    0    0  0.57990964414E+01 -0.14032869452E+01 -0.32888485896E+01  0.68128745104E+01  0.51100000000E-03 0.  1.
         12    1    3    3    0    0 -0.80524607344E+00 -0.47077108159E+01  0.18282845617E+02  0.18896386063E+02  0.00000000000E+00 0. -1.
</event>
<event>
 7    1  0.2903212E-011  0.5052887E+02  0.7816164E-02  0.1300439E+00
        -11   -1    0    0    0    0  0.00000000000E+00  0.00000000000E+00  0.45593999997E+02  0.45594000000E+02  0.51100000000E-03 0.  1.
         11   -1    0    0    0    0 -0.00000000000E+00 -0.00000000000E+00 -0.45593999997E+02  0.45594000000E+02  0.51100000000E-03 0. -1.
    9900012    2    1    2    0    0  0.84622553984E+01 -0.35227133290E+02 -0.18455475337E+02  0.50528865034E+02  0.30000015757E+02 0.  0.
        -12    1    1    2    0    0 -0.84622553984E+01  0.35227133290E+02  0.18455475337E+02  0.40659134966E+02  0.00000000000E+00 0.  1.
         11    1    3    3    0    0  0.40845401053E+01 -0.52340142798E+01 -0.60555982766E+01  0.89860249333E+01  0.51100000000E-03 0. -1.
        -11    1    3    3    0    0  0.13282905795E+02 -0.70520277922E+01 -0.45345921286E+01  0.15707616254E+02  0.51100000000E-03 0.  1.
        -12    1    3    3    0    0 -0.89051905020E+01 -0.22941091218E+02 -0.78652849317E+01  0.25835223847E+02  0.00000000000E+00 0.  1.
</event>
<event>
 7    1  0.2903212E-011  0.5052886E+02  0.7816164E-02  0.1300439E+00
        -11   -1    0    0    0    0  0.00000000000E+00  0.00000000000E+00  0.45593999997E+02  0.45594000000E+02  0.51100000000E-03 0. -1.
         11   -1    0    0    0    0 -0.00000000000E+00 -0.00000000000E+00 -0.45593999997E+02  0.45594000000E+02  0.51100000000E-03 0.  1.
    9900012    2    1    2    0    0 -0.67035928146E+01  0.40102432253E+02  0.15072499850E+00  0.50528856535E+02  0.29999989924E+02 0.  0.
        -12    1    1    2    0    0  0.67035928146E+01 -0.40102432253E+02 -0.15072499850E+00  0.40659143465E+02  0.00000000000E+00 0.  1.
         11    1    3    3    0    0 -0.13129271463E+02  0.18824105289E+02  0.81163500800E+01  0.24343373799E+02  0.51100000000E-03 0. -1.
        -11    1    3    3    0    0  0.27939836706E+01 -0.86411060384E-01 -0.26942604791E+01  0.38823770313E+01  0.51100000000E-03 0.  1.
        -12    1    3    3    0    0  0.36316949774E+01  0.21364738025E+02 -0.52713646024E+01  0.22303105704E+02  0.00000000000E+00 0.  1.
</event>
<event>
 7    1  0.2903212E-011  0.5052887E+02  0.7816164E-02  0.1300439E+00
        -11   -1    0    0    0    0  0.00000000000E+00  0.00000000000E+00  0.45593999997E+02  0.45594000000E+02  0.51100000000E-03 0. -1.
         11   -1    0    0    0    0 -0.00000000000E+00 -0.00000000000E+00 -0.45593999997E+02  0.45594000000E+02  0.51100000000E-03 0.  1.
    9900012    2    1    2    0    0 -0.48799155348E+01 -0.31620736962E+02  0.25089448339E+02  0.50528868190E+02  0.30000025349E+02 0.  0.
        -12    1    1    2    0    0  0.48799155348E+01  0.31620736962E+02 -0.25089448339E+02  0.40659131810E+02  0.00000000000E+00 0.  1.
         11    1    3    3    0    0 -0.96136890836E+01 -0.20963396487E+02  0.16317822720E+02  0.28251696385E+02  0.51100000000E-03 0. -1.
        -11    1    3    3    0    0 -0.44698114944E+01 -0.89442008952E+01  0.81416068915E+01  0.12894328501E+02  0.51100000000E-03 0.  1.
        -12    1    3    3    0    0  0.92035850432E+01 -0.17131395798E+01  0.63001872720E+00  0.93828433038E+01  0.00000000000E+00 0.  1.
</event>
<event>
 7    1  0.2903212E-011  0.5052879E+02  0.7816164E-02  0.1300439E+00
        -11   -1    0    0    0    0  0.00000000000E+00  0.00000000000E+00  0.45593999997E+02  0.45594000000E+02  0.51100000000E-03 0.  1.
         11   -1    0    0    0    0 -0.00000000000E+00 -0.00000000000E+00 -0.45593999997E+02  0.45594000000E+02  0.51100000000E-03 0. -1.
    9900012    2    1    2    0    0 -0.22770070036E+02  0.30069680709E+02 -0.15182539090E+02  0.50528790949E+02  0.29999790568E+02 0.  0.
        -12    1    1    2    0    0  0.22770070036E+02 -0.30069680709E+02  0.15182539090E+02  0.40659209051E+02  0.00000000000E+00 0.  1.
         11    1    3    3    0    0 -0.13747627686E+01  0.18497442328E+01 -0.12901142654E+02  0.13105380896E+02  0.51100000000E-03 0. -1.
        -11    1    3    3    0    0 -0.60252651270E+01  0.13428271443E+01 -0.19022935161E+01  0.64595452992E+01  0.51100000000E-03 0.  1.
        -12    1    3    3    0    0 -0.15370042141E+02  0.26877109332E+02 -0.37910292051E+00  0.30963864754E+02  0.00000000000E+00 0.  1.
</event>
<event>
 7    1  0.2903212E-011  0.5052887E+02  0.7816164E-02  0.1300439E+00
        -11   -1    0    0    0    0  0.00000000000E+00  0.00000000000E+00  0.45593999997E+02  0.45594000000E+02  0.51100000000E-03 0.  1.
         11   -1    0    0    0    0 -0.00000000000E+00 -0.00000000000E+00 -0.45593999997E+02  0.45594000000E+02  0.51100000000E-03 0. -1.
    9900012    2    1    2    0    0 -0.12297213842E+02  0.34930942015E+01 -0.38597175813E+02  0.50528866265E+02  0.30000019498E+02 0.  0.
        -12    1    1    2    0    0  0.12297213842E+02 -0.34930942015E+01  0.38597175813E+02  0.40659133735E+02  0.00000000000E+00 0.  1.
         11    1    3    3    0    0 -0.33716340087E+01 -0.46875750170E+01 -0.92013549172E+00  0.58470441261E+01  0.51100000000E-03 0. -1.
        -11    1    3    3    0    0  0.90232631377E+00  0.19840077335E+01  0.22298110480E+01  0.31180983041E+01  0.51100000000E-03 0.  1.
         12    1    3    3    0    0 -0.98279061474E+01  0.61966614850E+01 -0.39906851369E+02  0.41563723834E+02  0.00000000000E+00 0. -1.
</event>
<event>
 7    1  0.2903212E-011  0.5052888E+02  0.7816164E-02  0.1300439E+00
        -11   -1    0    0    0    0  0.00000000000E+00  0.00000000000E+00  0.45593999997E+02  0.45594000000E+02  0.51100000000E-03 0.  1.
         11   -1    0    0    0    0 -0.00000000000E+00 -0.00000000000E+00 -0.45593999997E+02  0.45594000000E+02  0.51100000000E-03 0. -1.
    9900012    2    1    2    0    0  0.82718692420E+01  0.39267709955E+02  0.65412168037E+01  0.50528875770E+02  0.30000048391E+02 0.  0.
        -12    1    1    2    0    0 -0.82718692420E+01 -0.39267709955E+02 -0.65412168037E+01  0.40659124230E+02  0.00000000000E+00 0.  1.
         11    1    3    3    0    0 -0.92637093529E+00  0.12833457657E+02 -0.44615470579E+01  0.13618414040E+02  0.51100000000E-03 0. -1.
        -11    1    3    3    0    0  0.15055778075E+01  0.23031171632E+02  0.24869639822E-01  0.23080343369E+02  0.51100000000E-03 0.  1.
        -12    1    3    3    0    0  0.76926623697E+01  0.34030806661E+01  0.10977894222E+02  0.13830118362E+02  0.00000000000E+00 0.  1.
</event>
<event>
 7    1  0.2903212E-011  0.5052886E+02  0.7816164E-02  0.1300439E+00
        -11   -1    0    0    0    0  0.00000000000E+00  0.00000000000E+00  0.45593999997E+02  0.45594000000E+02  0.51100000000E-03 0.  1.
         11   -1    0    0    0    0 -0.00000000000E+00 -0.00000000000E+00 -0.45593999997E+02  0.45594000000E+02  0.51100000000E-03 0. -1.
    9900012    2    1    2    0    0 -0.21475939969E+02  0.31164677296E+02 -0.14856390875E+02  0.50528862548E+02  0.30000008201E+02 0.  0.
        -12    1    1    2    0    0  0.21475939969E+02 -0.31164677296E+02  0.14856390875E+02  0.40659137452E+02  0.00000000000E+00 0.  1.
         11    1    3    3    0    0  0.28808597524E+01  0.12069382685E+01 -0.98276213556E+00  0.32744273656E+01  0.51100000000E-03 0. -1.
        -11    1    3    3    0    0  0.41101614542E+01  0.21819681941E+01  0.10564899030E+01  0.47718532622E+01  0.51100000000E-03 0.  1.
        -12    1    3    3    0    0 -0.28466961175E+02  0.27775770833E+02 -0.14930118642E+02  0.42482581920E+02  0.00000000000E+00 0.  1.
</event>
<event>
 7    1  0.2903212E-011  0.5052887E+02  0.7816164E-02  0.1300439E+00
        -11   -1    0    0    0    0  0.00000000000E+00  0.00000000000E+00  0.45593999997E+02  0.45594000000E+02  0.51100000000E-03 0.  1.
         11   -1    0    0    0    0 -0.00000000000E+00 -0.00000000000E+00 -0.45593999997E+02  0.45594000000E+02  0.51100000000E-03 0. -1.
    9900012    2    1    2    0    0 -0.18375977033E+02  0.33866655468E+02 -0.12982226997E+02  0.50528866927E+02  0.30000021511E+02 0.  0.
        -12    1    1    2    0    0  0.18375977033E+02 -0.33866655468E+02  0.12982226997E+02  0.40659133073E+02  0.00000000000E+00 0.  1.
         11    1    3    3    0    0 -0.11275445801E+02  0.30052059518E+02 -0.12523335480E+02  0.34454257953E+02  0.51100000000E-03 0. -1.
        -11    1    3    3    0    0  0.99767387443E+00  0.67943111651E+01 -0.23175717189E+01  0.72477000698E+01  0.51100000000E-03 0.  1.
        -12    1    3    3    0    0 -0.80982051058E+01 -0.29797152158E+01  0.18586802016E+01  0.88269089038E+01  0.00000000000E+00 0.  1.
</event>
<event>
 7    1  0.3653559E-011  0.5052885E+02  0.7816164E-02  0.1300439E+00
        -11   -1    0    0    0    0  0.00000000000E+00  0.00000000000E+00  0.45593999997E+02  0.45594000000E+02  0.51100000000E-03 0. -1.
         11   -1    0    0    0    0 -0.00000000000E+00 -0.00000000000E+00 -0.45593999997E+02  0.45594000000E+02  0.51100000000E-03 0.  1.
    9900012    2    1    2    0    0  0.36592217147E+02  0.17552068021E+02  0.24699956588E+01  0.50528851877E+02  0.29999975765E+02 0.  0.
        -12    1    1    2    0    0 -0.36592217147E+02 -0.17552068021E+02 -0.24699956588E+01  0.40659148123E+02  0.00000000000E+00 0.  1.
         11    1    3    3    0    0  0.19191955045E+02  0.12438836317E+02  0.88873114477E+01  0.24536505301E+02  0.51100000000E-03 0. -1.
        -11    1    3    3    0    0 -0.12451539123E+01 -0.30873980480E+01  0.20761224525E+01  0.39233556646E+01  0.51100000000E-03 0.  1.
         12    1    3    3    0    0  0.18645416014E+02  0.82006297522E+01 -0.84934382414E+01  0.22068990911E+02  0.00000000000E+00 0. -1.
</event>
<event>
 7    1  0.2903212E-011  0.5052888E+02  0.7816164E-02  0.1300439E+00
        -11   -1    0    0    0    0  0.00000000000E+00  0.00000000000E+00  0.45593999997E+02  0.45594000000E+02  0.51100000000E-03 0.  1.
         11   -1    0    0    0    0 -0.00000000000E+00 -0.00000000000E+00 -0.45593999997E+02  0.45594000000E+02  0.51100000000E-03 0. -1.
    9900012    2    1    2    0    0  0.33858292453E+02 -0.13479657636E+02 -0.18029944248E+02  0.50528880145E+02  0.30000061687E+02 0.  0.
        -12    1    1    2    0    0 -0.33858292453E+02  0.13479657636E+02  0.18029944248E+02  0.40659119855E+02  0.00000000000E+00 0.  1.
         11    1    3    3    0    0  0.90568631143E+01  0.52459659049E-01  0.18450477751E+01  0.92430364621E+01  0.51100000000E-03 0. -1.
        -11    1    3    3    0    0  0.16837349720E+01  0.43298669348E+01  0.17227510450E+01  0.49548544431E+01  0.51100000000E-03 0.  1.
         12    1    3    3    0    0  0.23117694367E+02 -0.17861984230E+02 -0.21597743068E+02  0.36330989239E+02  0.00000000000E+00 0. -1.
</event>
<event>
 7    1  0.2903212E-011  0.5052886E+02  0.7816164E-02  0.1300439E+00
        -11   -1    0    0    0    0  0.00000000000E+00  0.00000000000E+00  0.45593999997E+02  0.45594000000E+02  0.51100000000E-03 0.  1.
         11   -1    0    0    0    0 -0.00000000000E+00 -0.00000000000E+00 -0.45593999997E+02  0.45594000000E+02  0.51100000000E-03 0. -1.
    9900012    2    1    2    0    0  0.24945747797E+01  0.91359365938E+01 -0.39540831408E+02  0.50528860939E+02  0.30000003309E+02 0.  0.
        -12    1    1    2    0    0 -0.24945747797E+01 -0.91359365938E+01  0.39540831408E+02  0.40659139061E+02  0.00000000000E+00 0.  1.
         11    1    3    3    0    0  0.77382039250E+01  0.41164104495E+01 -0.30213250213E+02  0.31458943461E+02  0.51100000000E-03 0. -1.
        -11    1    3    3    0    0 -0.53783065394E+00  0.61332090813E+00 -0.12045981109E+02  0.12073569708E+02  0.51100000000E-03 0.  1.
         12    1    3    3    0    0 -0.47057984914E+01  0.44062052361E+01  0.27183999141E+01  0.69963477699E+01  0.00000000000E+00 0. -1.
</event>
<event>
 7    1  0.2903212E-011  0.5052887E+02  0.7816164E-02  0.1300439E+00
        -11   -1    0    0    0    0  0.00000000000E+00  0.00000000000E+00  0.45593999997E+02  0.45594000000E+02  0.51100000000E-03 0.  1.
         11   -1    0    0    0    0 -0.00000000000E+00 -0.00000000000E+00 -0.45593999997E+02  0.45594000000E+02  0.51100000000E-03 0. -1.
    9900012    2    1    2    0    0 -0.77129377985E+01  0.34156201706E+02 -0.20664689132E+02  0.50528869397E+02  0.30000029020E+02 0.  0.
        -12    1    1    2    0    0  0.77129377985E+01 -0.34156201706E+02  0.20664689132E+02  0.40659130603E+02  0.00000000000E+00 0.  1.
         11    1    3    3    0    0 -0.63739162914E+01  0.21182801977E+01 -0.14409791468E+02  0.15898302120E+02  0.51100000000E-03 0. -1.
        -11    1    3    3    0    0  0.27642405436E+01  0.48026473449E+01  0.19779983688E+01  0.58837849307E+01  0.51100000000E-03 0.  1.
        -12    1    3    3    0    0 -0.41032620508E+01  0.27235274163E+02 -0.82328960323E+01  0.28746782347E+02  0.00000000000E+00 0.  1.
</event>
<event>
 7    1  0.2903212E-011  0.5052885E+02  0.7816164E-02  0.1300439E+00
        -11   -1    0    0    0    0  0.00000000000E+00  0.00000000000E+00  0.45593999997E+02  0.45594000000E+02  0.51100000000E-03 0. -1.
         11   -1    0    0    0    0 -0.00000000000E+00 -0.00000000000E+00 -0.45593999997E+02  0.45594000000E+02  0.51100000000E-03 0.  1.
    9900012    2    1    2    0    0  0.18413239840E+02  0.29017467167E+02  0.21727994886E+02  0.50528848952E+02  0.29999966875E+02 0.  0.
        -12    1    1    2    0    0 -0.18413239840E+02 -0.29017467167E+02 -0.21727994886E+02  0.40659151048E+02  0.00000000000E+00 0.  1.
         11    1    3    3    0    0  0.81223389724E+01  0.84674801160E+01  0.11392442933E+02  0.16354154400E+02  0.51100000000E-03 0. -1.
        -11    1    3    3    0    0  0.31424792534E+01 -0.51533195730E+00  0.11466812135E+02  0.11900778280E+02  0.51100000000E-03 0.  1.
        -12    1    3    3    0    0  0.71484216144E+01  0.21065319008E+02 -0.11312601822E+01  0.22273916272E+02  0.00000000000E+00 0.  1.
</event>
<event>
 7    1  0.2903212E-011  0.5052885E+02  0.7816164E-02  0.1300439E+00
        -11   -1    0    0    0    0  0.00000000000E+00  0.00000000000E+00  0.45593999997E+02  0.45594000000E+02  0.51100000000E-03 0. -1.
         11   -1    0    0    0    0 -0.00000000000E+00 -0.00000000000E+00 -0.45593999997E+02  0.45594000000E+02  0.51100000000E-03 0.  1.
    9900012    2    1    2    0    0  0.13042240608E+02 -0.36910859320E+02  0.10984305443E+02  0.50528849224E+02  0.29999967700E+02 0.  0.
        -12    1    1    2    0    0 -0.13042240608E+02  0.36910859320E+02 -0.10984305443E+02  0.40659150776E+02  0.00000000000E+00 0.  1.
         11    1    3    3    0    0  0.14771806271E+02 -0.21937180241E+02  0.61465970032E+01  0.27151920602E+02  0.51100000000E-03 0. -1.
        -11    1    3    3    0    0  0.64036211885E+01 -0.95120262241E+01  0.68760004677E+01  0.13370280098E+02  0.51100000000E-03 0.  1.
        -12    1    3    3    0    0 -0.81331868516E+01 -0.54616528549E+01 -0.20382920282E+01  0.10006648523E+02  0.00000000000E+00 0.  1.
</event>
<event>
 7    1  0.2903212E-011  0.5052886E+02  0.7816164E-02  0.1300439E+00
        -11   -1    0    0    0    0  0.00000000000E+00  0.00000000000E+00  0.45593999997E+02  0.45594000000E+02  0.51100000000E-03 0.  1.
         11   -1    0    0    0    0 -0.00000000000E+00 -0.00000000000E+00 -0.45593999997E+02  0.45594000000E+02  0.51100000000E-03 0. -1.
    9900012    2    1    2    0    0 -0.23652861253E+02 -0.26232007169E+02 -0.20139246401E+02  0.50528864604E+02  0.30000014451E+02 0.  0.
        -12    1    1    2    0    0  0.23652861253E+02  0.26232007169E+02  0.20139246401E+02  0.40659135396E+02  0.00000000000E+00 0.  1.
         11    1    3    3    0    0 -0.73971344710E+00 -0.16322931045E+02 -0.11257052786E+02  0.19842038494E+02  0.51100000000E-03 0. -1.
        -11    1    3    3    0    0 -0.19171665787E+02 -0.12204134923E+02 -0.11608628117E+02  0.25519677217E+02  0.51100000000E-03 0.  1.
        -12    1    3    3    0    0 -0.37414820188E+01  0.22950587998E+01  0.27264345020E+01  0.51671488933E+01  0.00000000000E+00 0.  1.
</event>
<event>
 7    1  0.2903212E-011  0.5052886E+02  0.7816164E-02  0.1300439E+00
        -11   -1    0    0    0    0  0.00000000000E+00  0.00000000000E+00  0.45593999997E+02  0.45594000000E+02  0.51100000000E-03 0.  1.
         11   -1    0    0    0    0 -0.00000000000E+00 -0.00000000000E+00 -0.45593999997E+02  0.45594000000E+02  0.51100000000E-03 0. -1.
    9900012    2    1    2    0    0 -0.19360293322E+01  0.23943000013E+02 -0.32804724358E+02  0.50528863273E+02  0.30000010405E+02 0.  0.
        -12    1    1    2    0    0  0.19360293322E+01 -0.23943000013E+02  0.32804724358E+02  0.40659136727E+02  0.00000000000E+00 0.  1.
         11    1    3    3    0    0  0.29270998896E+01 -0.14378979102E+01 -0.12981621448E+01  0.35100839562E+01  0.51100000000E-03 0. -1.
        -11    1    3    3    0    0  0.65008842689E+01  0.12060416137E+02 -0.37565114496E+01  0.14206565813E+02  0.51100000000E-03 0.  1.
         12    1    3    3    0    0 -0.11364013491E+02  0.13320481786E+02 -0.27750050764E+02  0.32812213504E+02  0.00000000000E+00 0. -1.
</event>
<event>
 7    1  0.2903212E-011  0.5052887E+02  0.7816164E-02  0.1300439E+00
        -11   -1    0    0    0    0  0.00000000000E+00  0.00000000000E+00  0.45593999997E+02  0.45594000000E+02  0.51100000000E-03 0. -1.
         11   -1    0    0    0    0 -0.00000000000E+00 -0.00000000000E+00 -0.45593999997E+02  0.45594000000E+02  0.51100000000E-03 0.  1.
    9900012    2    1    2    0    0 -0.11854245306E+02 -0.14963829494E+02  0.35898827929E+02  0.50528866075E+02  0.30000018921E+02 0.  0.
        -12    1    1    2    0    0  0.11854245306E+02  0.14963829494E+02 -0.35898827929E+02  0.40659133925E+02  0.00000000000E+00 0.  1.
         11    1    3    3    0    0  0.58708288033E+01  0.32949455766E+01  0.55313836642E+01  0.87131798266E+01  0.51100000000E-03 0. -1.
        -11    1    3    3    0    0  0.14258169282E+01 -0.42276067229E+01  0.21900045420E+01  0.49700837691E+01  0.51100000000E-03 0.  1.
         12    1    3    3    0    0 -0.19150891037E+02 -0.14031168347E+02  0.28177439723E+02  0.36845602479E+02  0.00000000000E+00 0. -1.
</event>
<event>
 7    1  0.2903212E-011  0.5052886E+02  0.7816164E-02  0.1300439E+00
        -11   -1    0    0    0    0  0.00000000000E+00  0.00000000000E+00  0.45593999997E+02  0.45594000000E+02  0.51100000000E-03 0.  1.
         11   -1    0    0    0    0 -0.00000000000E+00 -0.00000000000E+00 -0.45593999997E+02  0.45594000000E+02  0.51100000000E-03 0. -1.
    9900012    2    1    2    0    0 -0.33250619251E+02 -0.66579182236E+01 -0.22432882250E+02  0.50528858817E+02  0.29999996861E+02 0.  0.
        -12    1    1    2    0    0  0.33250619251E+02  0.66579182236E+01  0.22432882250E+02  0.40659141183E+02  0.00000000000E+00 0.  1.
         11    1    3    3    0    0 -0.12979904395E+02 -0.15000768734E+02 -0.65785137548E+01  0.20899230230E+02  0.51100000000E-03 0.  1.
        -11    1    3    3    0    0 -0.11861823336E+02 -0.11026784396E+01 -0.10561079005E+02  0.15920274577E+02  0.51100000000E-03 0. -1.
         12    1    3    3    0    0 -0.84088915199E+01  0.94455289501E+01 -0.52932894904E+01  0.13709354010E+02  0.00000000000E+00 0. -1.
</event>
<event>
 7    1  0.2903212E-011  0.5052885E+02  0.7816164E-02  0.1300439E+00
        -11   -1    0    0    0    0  0.00000000000E+00  0.00000000000E+00  0.45593999997E+02  0.45594000000E+02  0.51100000000E-03 0. -1.
         11   -1    0    0    0    0 -0.00000000000E+00 -0.00000000000E+00 -0.45593999997E+02  0.45594000000E+02  0.51100000000E-03 0.  1.
    9900012    2    1    2    0    0 -0.28133903291E+02  0.83883337109E+01  0.28129802475E+02  0.50528850425E+02  0.29999971352E+02 0.  0.
        -12    1    1    2    0    0  0.28133903291E+02 -0.83883337109E+01 -0.28129802475E+02  0.40659149575E+02  0.00000000000E+00 0.  1.
         11    1    3    3    0    0 -0.16421027987E+02  0.12635378760E+02  0.16336253381E+02  0.26385149827E+02  0.51100000000E-03 0. -1.
        -11    1    3    3    0    0 -0.85304430093E+01  0.45202401929E+01  0.74223918188E+00  0.96825589903E+01  0.51100000000E-03 0.  1.
        -12    1    3    3    0    0 -0.31824322951E+01 -0.87672852424E+01  0.11051309912E+02  0.14461141608E+02  0.00000000000E+00 0.  1.
</event>
<event>
 7    1  0.2903212E-011  0.5052886E+02  0.7816164E-02  0.1300439E+00
        -11   -1    0    0    0    0  0.00000000000E+00  0.00000000000E+00  0.45593999997E+02  0.45594000000E+02  0.51100000000E-03 0.  1.
         11   -1    0    0    0    0 -0.00000000000E+00 -0.00000000000E+00 -0.45593999997E+02  0.45594000000E+02  0.51100000000E-03 0. -1.
    9900012    2    1    2    0    0  0.32908188466E+02 -0.23815900803E+01  0.23760155766E+02  0.50528857837E+02  0.29999993882E+02 0.  0.
        -12    1    1    2    0    0 -0.32908188466E+02  0.23815900803E+01 -0.23760155766E+02  0.40659142163E+02  0.00000000000E+00 0.  1.
         11    1    3    3    0    0  0.23266432711E+02 -0.79937982708E+01  0.84261599623E+01  0.26004381821E+02  0.51100000000E-03 0. -1.
        -11    1    3    3    0    0  0.10251627478E+02  0.16216648026E+01  0.17190780421E+02  0.20081050630E+02  0.51100000000E-03 0.  1.
         12    1    3    3    0    0 -0.60987172323E+00  0.39905433879E+01 -0.18567846172E+01  0.44434253863E+01  0.00000000000E+00 0. -1.
</event>
<event>
 7    1  0.2903212E-011  0.5052886E+02  0.7816164E-02  0.1300439E+00
        -11   -1    0    0    0    0  0.00000000000E+00  0.00000000000E+00  0.45593999997E+02  0.45594000000E+02  0.51100000000E-03 0. -1.
         11   -1    0    0    0    0 -0.00000000000E+00 -0.00000000000E+00 -0.45593999997E+02  0.45594000000E+02  0.51100000000E-03 0.  1.
    9900012    2    1    2    0    0 -0.39504690197E+02  0.77613288798E+00  0.95886812183E+01  0.50528859117E+02  0.29999997772E+02 0.  0.
        -12    1    1    2    0    0  0.39504690197E+02 -0.77613288798E+00 -0.95886812183E+01  0.40659140883E+02  0.00000000000E+00 0.  1.
         11    1    3    3    0    0 -0.14249415498E+02  0.53396314265E+01 -0.21316782834E+01  0.15365596583E+02  0.51100000000E-03 0. -1.
        -11    1    3    3    0    0 -0.21744258353E+02  0.55536528575E+01  0.77965396534E+01  0.23757985231E+02  0.51100000000E-03 0.  1.
        -12    1    3    3    0    0 -0.35110163465E+01 -0.10117151396E+02  0.39238198483E+01  0.11405277303E+02  0.00000000000E+00 0.  1.
</event>
<event>
 7    1  0.2903212E-011  0.5052886E+02  0.7816164E-02  0.1300439E+00
        -11   -1    0    0    0    0  0.00000000000E+00  0.00000000000E+00  0.45593999997E+02  0.45594000000E+02  0.51100000000E-03 0.  1.
         11   -1    0    0    0    0 -0.00000000000E+00 -0.00000000000E+00 -0.45593999997E+02  0.45594000000E+02  0.51100000000E-03 0. -1.
    9900012    2    1    2    0    0  0.23099524959E+01 -0.36101232653E+02 -0.18561537671E+02  0.50528861294E+02  0.30000004390E+02 0.  0.
        -12    1    1    2    0    0 -0.23099524959E+01  0.36101232653E+02  0.18561537671E+02  0.40659138706E+02  0.00000000000E+00 0.  1.
         11    1    3    3    0    0 -0.57654876816E+01 -0.39918871268E+01 -0.26372476314E+01  0.74920682305E+01  0.51100000000E-03 0. -1.
        -11    1    3    3    0    0 -0.48382984460E+01  0.54315069291E+00 -0.18949345785E+01  0.52244542151E+01  0.51100000000E-03 0.  1.
        -12    1    3    3    0    0  0.12913738623E+02 -0.32652496219E+02 -0.14029355461E+02  0.37812338849E+02  0.00000000000E+00 0.  1.
</event>
<event>
 7    1  0.2903212E-011  0.5052886E+02  0.7816164E-02  0.1300439E+00
        -11   -1    0    0    0    0  0.00000000000E+00  0.00000000000E+00  0.45593999997E+02  0.45594000000E+02  0.51100000000E-03 0. -1.
         11   -1    0    0    0    0 -0.00000000000E+00 -0.00000000000E+00 -0.45593999997E+02  0.45594000000E+02  0.51100000000E-03 0.  1.
    9900012    2    1    2    0    0 -0.30318838955E+02  0.24506664227E+02 -0.11548022735E+02  0.50528863067E+02  0.30000009778E+02 0.  0.
        -12    1    1    2    0    0  0.30318838955E+02 -0.24506664227E+02  0.11548022735E+02  0.40659136933E+02  0.00000000000E+00 0.  1.
         11    1    3    3    0    0 -0.16426953375E+02  0.95427486329E+01  0.20047316882E+01  0.19103083470E+02  0.51100000000E-03 0. -1.
        -11    1    3    3    0    0 -0.14956552820E+02  0.18501518445E+02 -0.14153970154E+02  0.27682838157E+02  0.51100000000E-03 0.  1.
        -12    1    3    3    0    0  0.10646672406E+01 -0.35376028514E+01  0.60121573067E+00  0.37429414399E+01  0.00000000000E+00 0.  1.
</event>
<event>
 7    1  0.2903212E-011  0.5052885E+02  0.7816164E-02  0.1300439E+00
        -11   -1    0    0    0    0  0.00000000000E+00  0.00000000000E+00  0.45593999997E+02  0.45594000000E+02  0.51100000000E-03 0.  1.
         11   -1    0    0    0    0 -0.00000000000E+00 -0.00000000000E+00 -0.45593999997E+02  0.45594000000E+02  0.51100000000E-03 0. -1.
    9900012    2    1    2    0    0 -0.29474293952E+02 -0.10739060552E+02 -0.25867064952E+02  0.50528850049E+02  0.29999970209E+02 0.  0.
        -12    1    1    2    0    0  0.29474293952E+02  0.10739060552E+02  0.25867064952E+02  0.40659149951E+02  0.00000000000E+00 0.  1.
         11    1    3    3    0    0  0.76604228810E+00  0.26734642994E+01 -0.54602243981E+01  0.61276653699E+01  0.51100000000E-03 0. -1.
        -11    1    3    3    0    0 -0.15462010017E+02 -0.64633041972E+01  0.17793561757E+01  0.16852719768E+02  0.51100000000E-03 0.  1.
         12    1    3    3    0    0 -0.14778326223E+02 -0.69492206538E+01 -0.22186196730E+02  0.27548464912E+02  0.00000000000E+00 0. -1.
</event>
<event>
 7    1  0.2903212E-011  0.5052886E+02  0.7816164E-02  0.1300439E+00
        -11   -1    0    0    0    0  0.00000000000E+00  0.00000000000E+00  0.45593999997E+02  0.45594000000E+02  0.51100000000E-03 0. -1.
         11   -1    0    0    0    0 -0.00000000000E+00 -0.00000000000E+00 -0.45593999997E+02  0.45594000000E+02  0.51100000000E-03 0.  1.
    9900012    2    1    2    0    0 -0.17127805687E+02 -0.36594302432E+02  0.45454109036E+01  0.50528862547E+02  0.30000008199E+02 0.  0.
        -12    1    1    2    0    0  0.17127805687E+02  0.36594302432E+02 -0.45454109036E+01  0.40659137453E+02  0.00000000000E+00 0.  1.
         11    1    3    3    0    0 -0.41400801061E+01 -0.28550370485E+02  0.56473543097E+01  0.29396539406E+02  0.51100000000E-03 0. -1.
        -11    1    3    3    0    0 -0.26527711251E+01 -0.66622771519E+01  0.52820000492E+01  0.89063267552E+01  0.51100000000E-03 0.  1.
        -12    1    3    3    0    0 -0.10334954456E+02 -0.13816547949E+01 -0.63839434553E+01  0.12225996386E+02  0.00000000000E+00 0.  1.
</event>
<event>
 7    1  0.2903212E-011  0.5052886E+02  0.7816164E-02  0.1300439E+00
        -11   -1    0    0    0    0  0.00000000000E+00  0.00000000000E+00  0.45593999997E+02  0.45594000000E+02  0.51100000000E-03 0. -1.
         11   -1    0    0    0    0 -0.00000000000E+00 -0.00000000000E+00 -0.45593999997E+02  0.45594000000E+02  0.51100000000E-03 0.  1.
    9900012    2    1    2    0    0 -0.29677128007E+02 -0.83123279863E+01  0.26520538773E+02  0.50528859575E+02  0.29999999163E+02 0.  0.
        -12    1    1    2    0    0  0.29677128007E+02  0.83123279863E+01 -0.26520538773E+02  0.40659140425E+02  0.00000000000E+00 0.  1.
         11    1    3    3    0    0 -0.37538440260E+01  0.32254923268E+01  0.11328001406E+02  0.12361988588E+02  0.51100000000E-03 0. -1.
        -11    1    3    3    0    0 -0.15108657884E+01  0.51940704036E+01  0.20648565974E+01  0.57900531792E+01  0.51100000000E-03 0.  1.
         12    1    3    3    0    0 -0.24412418193E+02 -0.16731890717E+02  0.13127680769E+02  0.32376817808E+02  0.00000000000E+00 0. -1.
</event>
<event>
 7    1  0.2903212E-011  0.5052885E+02  0.7816164E-02  0.1300439E+00
        -11   -1    0    0    0    0  0.00000000000E+00  0.00000000000E+00  0.45593999997E+02  0.45594000000E+02  0.51100000000E-03 0. -1.
         11   -1    0    0    0    0 -0.00000000000E+00 -0.00000000000E+00 -0.45593999997E+02  0.45594000000E+02  0.51100000000E-03 0.  1.
    9900012    2    1    2    0    0 -0.26745615986E+00  0.23844991405E+02  0.32931915926E+02  0.50528853003E+02  0.29999979189E+02 0.  0.
        -12    1    1    2    0    0  0.26745615986E+00 -0.23844991405E+02 -0.32931915926E+02  0.40659146997E+02  0.00000000000E+00 0.  1.
         11    1    3    3    0    0  0.18965845400E+01  0.47880146812E+01  0.55842057761E+01  0.75964117790E+01  0.51100000000E-03 0.  1.
        -11    1    3    3    0    0  0.73444040934E+00  0.19098997331E+02  0.41553203924E+01  0.19559595845E+02  0.51100000000E-03 0. -1.
         12    1    3    3    0    0 -0.28984811092E+01 -0.42020607625E-01  0.23192389758E+02  0.23372845380E+02  0.00000000000E+00 0. -1.
</event>
<event>
 7    1  0.2903212E-011  0.5052876E+02  0.7816164E-02  0.1300439E+00
        -11   -1    0    0    0    0  0.00000000000E+00  0.00000000000E+00  0.45593999997E+02  0.45594000000E+02  0.51100000000E-03 0. -1.
         11   -1    0    0    0    0 -0.00000000000E+00 -0.00000000000E+00 -0.45593999997E+02  0.45594000000E+02  0.51100000000E-03 0.  1.
    9900012    2    1    2    0    0 -0.39804104898E+02 -0.82266325577E+01 -0.10627106448E+01  0.50528762379E+02  0.29999703727E+02 0.  0.
        -12    1    1    2    0    0  0.39804104898E+02  0.82266325577E+01  0.10627106448E+01  0.40659237621E+02  0.00000000000E+00 0.  1.
         11    1    3    3    0    0 -0.11279066195E+02  0.39473412419E+01  0.96451452855E+01  0.15356681443E+02  0.51100000000E-03 0. -1.
        -11    1    3    3    0    0  0.10297159367E+01 -0.13834035911E+01  0.46165944936E+00  0.17852871239E+01  0.51100000000E-03 0.  1.
        -12    1    3    3    0    0 -0.29554754640E+02 -0.10790570208E+02 -0.11169515380E+02  0.33386793812E+02  0.00000000000E+00 0.  1.
</event>
<event>
 7    1  0.2903212E-011  0.5052887E+02  0.7816164E-02  0.1300439E+00
        -11   -1    0    0    0    0  0.00000000000E+00  0.00000000000E+00  0.45593999997E+02  0.45594000000E+02  0.51100000000E-03 0. -1.
         11   -1    0    0    0    0 -0.00000000000E+00 -0.00000000000E+00 -0.45593999997E+02  0.45594000000E+02  0.51100000000E-03 0.  1.
    9900012    2    1    2    0    0 -0.31567159979E+02 -0.13562196626E+02  0.21742729325E+02  0.50528867631E+02  0.30000023652E+02 0.  0.
        -12    1    1    2    0    0  0.31567159979E+02  0.13562196626E+02 -0.21742729325E+02  0.40659132369E+02  0.00000000000E+00 0.  1.
         11    1    3    3    0    0 -0.70247863527E+01  0.39896490672E+01  0.56142625489E+00  0.80981555111E+01  0.51100000000E-03 0. -1.
        -11    1    3    3    0    0 -0.12173941432E+02 -0.23375984597E+01  0.19021983764E+02  0.22704737019E+02  0.51100000000E-03 0.  1.
        -12    1    3    3    0    0 -0.12368432194E+02 -0.15214247233E+02  0.21593193067E+01  0.19725975101E+02  0.00000000000E+00 0.  1.
</event>
<event>
 7    1  0.2903212E-011  0.5052885E+02  0.7816164E-02  0.1300439E+00
        -11   -1    0    0    0    0  0.00000000000E+00  0.00000000000E+00  0.45593999997E+02  0.45594000000E+02  0.51100000000E-03 0.  1.
         11   -1    0    0    0    0 -0.00000000000E+00 -0.00000000000E+00 -0.45593999997E+02  0.45594000000E+02  0.51100000000E-03 0. -1.
    9900012    2    1    2    0    0  0.32382941810E+02 -0.81792178827E+01 -0.23186456195E+02  0.50528852489E+02  0.29999977627E+02 0.  0.
        -12    1    1    2    0    0 -0.32382941810E+02  0.81792178827E+01  0.23186456195E+02  0.40659147511E+02  0.00000000000E+00 0.  1.
         11    1    3    3    0    0  0.12493087320E+02  0.55099750402E+01 -0.82172102513E+01  0.15936109949E+02  0.51100000000E-03 0. -1.
        -11    1    3    3    0    0  0.84339831190E+00  0.46562776699E+01 -0.19698658093E+01  0.51256818102E+01  0.51100000000E-03 0.  1.
         12    1    3    3    0    0  0.19046456178E+02 -0.18345470593E+02 -0.12999380134E+02  0.29467060730E+02  0.00000000000E+00 0. -1.
</event>
<event>
 7    1  0.2903212E-011  0.5052885E+02  0.7816164E-02  0.1300439E+00
        -11   -1    0    0    0    0  0.00000000000E+00  0.00000000000E+00  0.45593999997E+02  0.45594000000E+02  0.51100000000E-03 0.  1.
         11   -1    0    0    0    0 -0.00000000000E+00 -0.00000000000E+00 -0.45593999997E+02  0.45594000000E+02  0.51100000000E-03 0. -1.
    9900012    2    1    2    0    0 -0.25193826471E+02 -0.28669234933E+02 -0.14018306118E+02  0.50528845677E+02  0.29999956919E+02 0.  0.
        -12    1    1    2    0    0  0.25193826471E+02  0.28669234933E+02  0.14018306118E+02  0.40659154323E+02  0.00000000000E+00 0.  1.
         11    1    3    3    0    0 -0.13606954182E+02 -0.14447829073E+02 -0.26782490155E+01  0.20026532029E+02  0.51100000000E-03 0. -1.
        -11    1    3    3    0    0 -0.48176921619E+01 -0.18603646934E+02 -0.40667892912E+01  0.19642927796E+02  0.51100000000E-03 0.  1.
         12    1    3    3    0    0 -0.67691801266E+01  0.43822410746E+01 -0.72732678111E+01  0.10859385852E+02  0.00000000000E+00 0. -1.
</event>
<event>
 7    1  0.2903212E-011  0.5052886E+02  0.7816164E-02  0.1300439E+00
        -11   -1    0    0    0    0  0.00000000000E+00  0.00000000000E+00  0.45593999997E+02  0.45594000000E+02  0.51100000000E-03 0. -1.
         11   -1    0    0    0    0 -0.00000000000E+00 -0.00000000000E+00 -0.45593999997E+02  0.45594000000E+02  0.51100000000E-03 0.  1.
    9900012    2    1    2    0    0 -0.23047175777E+01  0.33926840989E+02 -0.22289534842E+02  0.50528860485E+02  0.30000001929E+02 0.  0.
        -12    1    1    2    0    0  0.23047175777E+01 -0.33926840989E+02  0.22289534842E+02  0.40659139515E+02  0.00000000000E+00 0.  1.
         11    1    3    3    0    0  0.30449762412E+01  0.65596236231E+01 -0.13055096572E+02  0.14924345518E+02  0.51100000000E-03 0. -1.
        -11    1    3    3    0    0 -0.19321190501E+01  0.10993200342E+02 -0.14287988582E+02  0.18130917124E+02  0.51100000000E-03 0.  1.
         12    1    3    3    0    0 -0.34175747687E+01  0.16374017024E+02  0.50535503113E+01  0.17473597842E+02  0.00000000000E+00 0. -1.
</event>
<event>
 7    1  0.2903212E-011  0.5052885E+02  0.7816164E-02  0.1300439E+00
        -11   -1    0    0    0    0  0.00000000000E+00  0.00000000000E+00  0.45593999997E+02  0.45594000000E+02  0.51100000000E-03 0.  1.
         11   -1    0    0    0    0 -0.00000000000E+00 -0.00000000000E+00 -0.45593999997E+02  0.45594000000E+02  0.51100000000E-03 0. -1.
    9900012    2    1    2    0    0 -0.28906622675E+02  0.12824963712E+02 -0.25555708632E+02  0.50528846389E+02  0.29999959084E+02 0.  0.
        -12    1    1    2    0    0  0.28906622675E+02 -0.12824963712E+02  0.25555708632E+02  0.40659153611E+02  0.00000000000E+00 0.  1.
         11    1    3    3    0    0  0.80976012753E+00  0.10988298831E+01  0.23509577442E+01  0.27184814055E+01  0.51100000000E-03 0. -1.
        -11    1    3    3    0    0 -0.11387447225E+00  0.87150563589E+01 -0.91496234633E+01  0.12636486241E+02  0.51100000000E-03 0.  1.
         12    1    3    3    0    0 -0.29602508330E+02  0.30110774699E+01 -0.18757042913E+02  0.35173878743E+02  0.00000000000E+00 0. -1.
</event>
<event>
 7    1  0.2903212E-011  0.5052885E+02  0.7816164E-02  0.1300439E+00
        -11   -1    0    0    0    0  0.00000000000E+00  0.00000000000E+00  0.45593999997E+02  0.45594000000E+02  0.51100000000E-03 0. -1.
         11   -1    0    0    0    0 -0.00000000000E+00 -0.00000000000E+00 -0.45593999997E+02  0.45594000000E+02  0.51100000000E-03 0.  1.
    9900012    2    1    2    0    0 -0.36307328489E+02 -0.16892702314E+02  0.70413584701E+01  0.50528853150E+02  0.29999979635E+02 0.  0.
        -12    1    1    2    0    0  0.36307328489E+02  0.16892702314E+02 -0.70413584701E+01  0.40659146850E+02  0.00000000000E+00 0.  1.
         11    1    3    3    0    0 -0.21375166544E+02 -0.70520932654E+01  0.20894574198E+01  0.22605211717E+02  0.51100000000E-03 0. -1.
        -11    1    3    3    0    0 -0.20226350212E+01  0.59954964559E+01 -0.14905592968E+01  0.65006766924E+01  0.51100000000E-03 0.  1.
         12    1    3    3    0    0 -0.12909526924E+02 -0.15836105505E+02  0.64424603471E+01  0.21422964741E+02  0.00000000000E+00 0. -1.
</event>
<event>
 7    1  0.2903212E-011  0.5052886E+02  0.7816164E-02  0.1300439E+00
        -11   -1    0    0    0    0  0.00000000000E+00  0.00000000000E+00  0.45593999997E+02  0.45594000000E+02  0.51100000000E-03 0. -1.
         11   -1    0    0    0    0 -0.00000000000E+00 -0.00000000000E+00 -0.45593999997E+02  0.45594000000E+02  0.51100000000E-03 0.  1.
    9900012    2    1    2    0    0 -0.30516498992E+02  0.68062361598E+01  0.25991999873E+02  0.50528860575E+02  0.30000002203E+02 0.  0.
        -12    1    1    2    0    0  0.30516498992E+02 -0.68062361598E+01 -0.25991999873E+02  0.40659139425E+02  0.00000000000E+00 0.  1.
         11    1    3    3    0    0 -0.16760158841E+02 -0.19550981603E+01  0.17040506020E+02  0.23981329798E+02  0.51100000000E-03 0. -1.
        -11    1    3    3    0    0 -0.50746883255E+01 -0.38129936252E+01 -0.31213511829E+01  0.70734867961E+01  0.51100000000E-03 0.  1.
         12    1    3    3    0    0 -0.86816518258E+01  0.12574327945E+02  0.12072845035E+02  0.19474043980E+02  0.00000000000E+00 0. -1.
</event>
<event>
 7    1  0.2903212E-011  0.5052885E+02  0.7816164E-02  0.1300439E+00
        -11   -1    0    0    0    0  0.00000000000E+00  0.00000000000E+00  0.45593999997E+02  0.45594000000E+02  0.51100000000E-03 0.  1.
         11   -1    0    0    0    0 -0.00000000000E+00 -0.00000000000E+00 -0.45593999997E+02  0.45594000000E+02  0.51100000000E-03 0. -1.
    9900012    2    1    2    0    0 -0.12536616689E+02 -0.38177496208E+02 -0.62030831287E+01  0.50528853243E+02  0.29999979918E+02 0.  0.
        -12    1    1    2    0    0  0.12536616689E+02  0.38177496208E+02  0.62030831287E+01  0.40659146757E+02  0.00000000000E+00 0.  1.
         11    1    3    3    0    0  0.41362814326E+01 -0.24910977363E+02 -0.48238372748E+01  0.25708656588E+02  0.51100000000E-03 0. -1.
        -11    1    3    3    0    0 -0.42795273393E+01 -0.11489832190E+02 -0.58066278192E+00  0.12274679936E+02  0.51100000000E-03 0.  1.
        -12    1    3    3    0    0 -0.12393370783E+02 -0.17766866552E+01 -0.79858307206E+00  0.12545516719E+02  0.00000000000E+00 0.  1.
</event>
<event>
 7    1  0.2903212E-011  0.5052886E+02  0.7816164E-02  0.1300439E+00
        -11   -1    0    0    0    0  0.00000000000E+00  0.00000000000E+00  0.45593999997E+02  0.45594000000E+02  0.51100000000E-03 0. -1.
         11   -1    0    0    0    0 -0.00000000000E+00 -0.00000000000E+00 -0.45593999997E+02  0.45594000000E+02  0.51100000000E-03 0.  1.
    9900012    2    1    2    0    0  0.15400254107E+02  0.31107414442E+02  0.21173730234E+02  0.50528856970E+02  0.29999991247E+02 0.  0.
        -12    1    1    2    0    0 -0.15400254107E+02 -0.31107414442E+02 -0.21173730234E+02  0.40659143030E+02  0.00000000000E+00 0.  1.
         11    1    3    3    0    0 -0.20008099157E+01 -0.26720581239E+01  0.16616061096E+01  0.37288161742E+01  0.51100000000E-03 0.  1.
        -11    1    3    3    0    0 -0.81797246388E+00  0.13469266809E+01 -0.29502652282E+01  0.33447504560E+01  0.51100000000E-03 0. -1.
         12    1    3    3    0    0  0.18219036487E+02  0.32432545885E+02  0.22462389353E+02  0.43455290340E+02  0.00000000000E+00 0. -1.
</event>
<event>
 7    1  0.2903212E-011  0.5052885E+02  0.7816164E-02  0.1300439E+00
        -11   -1    0    0    0    0  0.00000000000E+00  0.00000000000E+00  0.45593999997E+02  0.45594000000E+02  0.51100000000E-03 0. -1.
         11   -1    0    0    0    0 -0.00000000000E+00 -0.00000000000E+00 -0.45593999997E+02  0.45594000000E+02  0.51100000000E-03 0.  1.
    9900012    2    1    2    0    0  0.16449087202E+02 -0.17379634003E+02  0.32871607624E+02  0.50528846840E+02  0.29999960455E+02 0.  0.
        -12    1    1    2    0    0 -0.16449087202E+02  0.17379634003E+02 -0.32871607624E+02  0.40659153160E+02  0.00000000000E+00 0.  1.
         11    1    3    3    0    0  0.99709508468E+01 -0.21427202367E+01  0.27504621180E+02  0.29334541028E+02  0.51100000000E-03 0. -1.
        -11    1    3    3    0    0  0.16033220620E+01 -0.35765214425E+01  0.74187460949E+01  0.83904672781E+01  0.51100000000E-03 0.  1.
        -12    1    3    3    0    0  0.48748142935E+01 -0.11660392324E+02 -0.20517596504E+01  0.12803838534E+02  0.00000000000E+00 0.  1.
</event>
<event>
 7    1  0.2903212E-011  0.5052886E+02  0.7816164E-02  0.1300439E+00
        -11   -1    0    0    0    0  0.00000000000E+00  0.00000000000E+00  0.45593999997E+02  0.45594000000E+02  0.51100000000E-03 0. -1.
         11   -1    0    0    0    0 -0.00000000000E+00 -0.00000000000E+00 -0.45593999997E+02  0.45594000000E+02  0.51100000000E-03 0.  1.
    9900012    2    1    2    0    0  0.31279126902E+02  0.25483188364E+02  0.50387443595E+01  0.50528860638E+02  0.30000002396E+02 0.  0.
        -12    1    1    2    0    0 -0.31279126902E+02 -0.25483188364E+02 -0.50387443595E+01  0.40659139362E+02  0.00000000000E+00 0.  1.
         11    1    3    3    0    0  0.22430952784E+02  0.16661985985E+00  0.63385974369E+00  0.22440525471E+02  0.51100000000E-03 0.  1.
        -11    1    3    3    0    0  0.47043164205E+01  0.10429328855E+02  0.53000987725E+01  0.12609224426E+02  0.51100000000E-03 0. -1.
        -12    1    3    3    0    0  0.41438576969E+01  0.14887239648E+02 -0.89521415674E+00  0.15479110741E+02  0.00000000000E+00 0.  1.
</event>
<event>
 7    1  0.2903212E-011  0.5052886E+02  0.7816164E-02  0.1300439E+00
        -11   -1    0    0    0    0  0.00000000000E+00  0.00000000000E+00  0.45593999997E+02  0.45594000000E+02  0.51100000000E-03 0.  1.
         11   -1    0    0    0    0 -0.00000000000E+00 -0.00000000000E+00 -0.45593999997E+02  0.45594000000E+02  0.51100000000E-03 0. -1.
    9900012    2    1    2    0    0  0.12874690557E+02 -0.61262102050E+01 -0.38077261931E+02  0.50528856077E+02  0.29999988532E+02 0.  0.
        -12    1    1    2    0    0 -0.12874690557E+02  0.61262102050E+01  0.38077261931E+02  0.40659143923E+02  0.00000000000E+00 0.  1.
         11    1    3    3    0    0  0.11434544265E+01 -0.75809670325E+01 -0.11940578096E+02  0.14189994880E+02  0.51100000000E-03 0. -1.
        -11    1    3    3    0    0  0.61134546097E+01 -0.10171212337E+02 -0.16014125489E+02  0.19931886592E+02  0.51100000000E-03 0.  1.
        -12    1    3    3    0    0  0.56177815210E+01  0.11625969165E+02 -0.10122558346E+02  0.16406974605E+02  0.00000000000E+00 0.  1.
</event>
<event>
 7    1  0.2903212E-011  0.5052887E+02  0.7816164E-02  0.1300439E+00
        -11   -1    0    0    0    0  0.00000000000E+00  0.00000000000E+00  0.45593999997E+02  0.45594000000E+02  0.51100000000E-03 0. -1.
         11   -1    0    0    0    0 -0.00000000000E+00 -0.00000000000E+00 -0.45593999997E+02  0.45594000000E+02  0.51100000000E-03 0.  1.
    9900012    2    1    2    0    0 -0.21976998558E+02  0.21586327518E+02  0.26536893791E+02  0.50528871463E+02  0.30000035298E+02 0.  0.
        -12    1    1    2    0    0  0.21976998558E+02 -0.21586327518E+02 -0.26536893791E+02  0.40659128537E+02  0.00000000000E+00 0.  1.
         11    1    3    3    0    0 -0.73238520980E+01  0.10929266174E+02  0.19791708324E+02  0.23765508354E+02  0.51100000000E-03 0. -1.
        -11    1    3    3    0    0 -0.42367440412E+01  0.75236612890E+00  0.10968213550E+02  0.11782095043E+02  0.51100000000E-03 0.  1.
         12    1    3    3    0    0 -0.10416402418E+02  0.99046952159E+01 -0.42230280839E+01  0.14981268066E+02  0.00000000000E+00 0. -1.
</event>
<event>
 7    1  0.2903212E-011  0.5052887E+02  0.7816164E-02  0.1300439E+00
        -11   -1    0    0    0    0  0.00000000000E+00  0.00000000000E+00  0.45593999997E+02  0.45594000000E+02  0.51100000000E-03 0.  1.
         11   -1    0    0    0    0 -0.00000000000E+00 -0.00000000000E+00 -0.45593999997E+02  0.45594000000E+02  0.51100000000E-03 0. -1.
    9900012    2    1    2    0    0  0.33569736537E+02  0.21435197725E+02 -0.81713040761E+01  0.50528866672E+02  0.30000020736E+02 0.  0.
        -12    1    1    2    0    0 -0.33569736537E+02 -0.21435197725E+02  0.81713040761E+01  0.40659133328E+02  0.00000000000E+00 0.  1.
         11    1    3    3    0    0  0.21963040363E+02  0.13955408519E+02 -0.97322902800E+01  0.27782117329E+02  0.51100000000E-03 0. -1.
        -11    1    3    3    0    0  0.94637978657E+01  0.97154619114E+01  0.78969684624E+01  0.15694450655E+02  0.51100000000E-03 0.  1.
        -12    1    3    3    0    0  0.21428983085E+01 -0.22356727059E+01 -0.63359822585E+01  0.70522986883E+01  0.00000000000E+00 0.  1.
</event>
<event>
 7    1  0.2903212E-011  0.5052886E+02  0.7816164E-02  0.1300439E+00
        -11   -1    0    0    0    0  0.00000000000E+00  0.00000000000E+00  0.45593999997E+02  0.45594000000E+02  0.51100000000E-03 0.  1.
         11   -1    0    0    0    0 -0.00000000000E+00 -0.00000000000E+00 -0.45593999997E+02  0.45594000000E+02  0.51100000000E-03 0. -1.
    9900012    2    1    2    0    0 -0.29379793560E+02 -0.23772847708E+01 -0.28006103908E+02  0.50528860700E+02  0.30000002583E+02 0.  0.
        -12    1    1    2    0    0  0.29379793560E+02  0.23772847708E+01  0.28006103908E+02  0.40659139300E+02  0.00000000000E+00 0.  1.
         11    1    3    3    0    0 -0.26128055190E+02  0.33082998927E+01 -0.22201157199E+02  0.34445776191E+02  0.51100000000E-03 0. -1.
        -11    1    3    3    0    0 -0.80000347016E+01 -0.59183223049E+00 -0.34457965307E+01  0.87306548785E+01  0.51100000000E-03 0.  1.
        -12    1    3    3    0    0  0.47482963312E+01 -0.50937524330E+01 -0.23591501786E+01  0.73524296299E+01  0.00000000000E+00 0.  1.
</event>
<event>
 7    1  0.2903212E-011  0.5052887E+02  0.7816164E-02  0.1300439E+00
        -11   -1    0    0    0    0  0.00000000000E+00  0.00000000000E+00  0.45593999997E+02  0.45594000000E+02  0.51100000000E-03 0.  1.
         11   -1    0    0    0    0 -0.00000000000E+00 -0.00000000000E+00 -0.45593999997E+02  0.45594000000E+02  0.51100000000E-03 0. -1.
    9900012    2    1    2    0    0 -0.15424558651E+02  0.37143574161E+02  0.59668222522E+01  0.50528867215E+02  0.30000022386E+02 0.  0.
        -12    1    1    2    0    0  0.15424558651E+02 -0.37143574161E+02 -0.59668222522E+01  0.40659132785E+02  0.00000000000E+00 0.  1.
         11    1    3    3    0    0 -0.59347274423E+01  0.19820862572E+02  0.57438085150E+01  0.21472748297E+02  0.51100000000E-03 0. -1.
        -11    1    3    3    0    0  0.12104449045E+00  0.18735092998E+02  0.29504730784E+01  0.18966382182E+02  0.51100000000E-03 0.  1.
         12    1    3    3    0    0 -0.96108756993E+01 -0.14123814086E+01 -0.27274593412E+01  0.10089736736E+02  0.00000000000E+00 0. -1.
</event>
<event>
 7    1  0.2903212E-011  0.5052886E+02  0.7816164E-02  0.1300439E+00
        -11   -1    0    0    0    0  0.00000000000E+00  0.00000000000E+00  0.45593999997E+02  0.45594000000E+02  0.51100000000E-03 0. -1.
         11   -1    0    0    0    0 -0.00000000000E+00 -0.00000000000E+00 -0.45593999997E+02  0.45594000000E+02  0.51100000000E-03 0.  1.
    9900012    2    1    2    0    0  0.59398218422E+01 -0.35361661614E+02  0.19168658255E+02  0.50528855212E+02  0.29999985901E+02 0.  0.
        -12    1    1    2    0    0 -0.59398218422E+01  0.35361661614E+02 -0.19168658255E+02  0.40659144788E+02  0.00000000000E+00 0.  1.
         11    1    3    3    0    0  0.29781763264E+01 -0.27490558934E+01 -0.46779430076E+01  0.61895067315E+01  0.51100000000E-03 0. -1.
        -11    1    3    3    0    0  0.15859315356E+01 -0.25915541757E+01 -0.28319869359E+01  0.41534903572E+01  0.51100000000E-03 0.  1.
         12    1    3    3    0    0  0.13757139803E+01 -0.30021051545E+02  0.26678588198E+02  0.40185858123E+02  0.00000000000E+00 0. -1.
</event>
<event>
 7    1  0.2903212E-011  0.5052886E+02  0.7816164E-02  0.1300439E+00
        -11   -1    0    0    0    0  0.00000000000E+00  0.00000000000E+00  0.45593999997E+02  0.45594000000E+02  0.51100000000E-03 0.  1.
         11   -1    0    0    0    0 -0.00000000000E+00 -0.00000000000E+00 -0.45593999997E+02  0.45594000000E+02  0.51100000000E-03 0. -1.
    9900012    2    1    2    0    0 -0.66900139468E+01  0.36579922347E+02 -0.16441369147E+02  0.50528860499E+02  0.30000001973E+02 0.  0.
        -12    1    1    2    0    0  0.66900139468E+01 -0.36579922347E+02  0.16441369147E+02  0.40659139501E+02  0.00000000000E+00 0.  1.
         11    1    3    3    0    0  0.61167971747E+01  0.14368779006E+02  0.19572649695E+01  0.15738738965E+02  0.51100000000E-03 0. -1.
        -11    1    3    3    0    0 -0.26882219337E+01  0.12458661949E+02 -0.15336181492E+01  0.12837319798E+02  0.51100000000E-03 0.  1.
        -12    1    3    3    0    0 -0.10118589188E+02  0.97524813923E+01 -0.16865015967E+02  0.21952801735E+02  0.00000000000E+00 0.  1.
</event>
<event>
 7    1  0.2903212E-011  0.5052886E+02  0.7816164E-02  0.1300439E+00
        -11   -1    0    0    0    0  0.00000000000E+00  0.00000000000E+00  0.45593999997E+02  0.45594000000E+02  0.51100000000E-03 0. -1.
         11   -1    0    0    0    0 -0.00000000000E+00 -0.00000000000E+00 -0.45593999997E+02  0.45594000000E+02  0.51100000000E-03 0.  1.
    9900012    2    1    2    0    0  0.47828460450E+01 -0.40309515184E+02  0.23309011743E+01  0.50528859196E+02  0.29999998012E+02 0.  0.
        -12    1    1    2    0    0 -0.47828460450E+01  0.40309515184E+02 -0.23309011743E+01  0.40659140804E+02  0.00000000000E+00 0.  1.
         11    1    3    3    0    0 -0.69184285240E+00 -0.27364121953E+02  0.78105708800E+01  0.28465397144E+02  0.51100000000E-03 0. -1.
        -11    1    3    3    0    0  0.95634458444E+01 -0.14127123683E+02 -0.50176818591E+01  0.17782357872E+02  0.51100000000E-03 0.  1.
        -12    1    3    3    0    0 -0.40887569470E+01  0.11817304528E+01 -0.46198784658E+00  0.42811041806E+01  0.00000000000E+00 0.  1.
</event>
<event>
 7    1  0.2903212E-011  0.5052886E+02  0.7816164E-02  0.1300439E+00
        -11   -1    0    0    0    0  0.00000000000E+00  0.00000000000E+00  0.45593999997E+02  0.45594000000E+02  0.51100000000E-03 0.  1.
         11   -1    0    0    0    0 -0.00000000000E+00 -0.00000000000E+00 -0.45593999997E+02  0.45594000000E+02  0.51100000000E-03 0. -1.
    9900012    2    1    2    0    0 -0.22526175875E+01  0.12105341741E+02 -0.38749867186E+02  0.50528858450E+02  0.29999995744E+02 0.  0.
        -12    1    1    2    0    0  0.22526175875E+01 -0.12105341741E+02  0.38749867186E+02  0.40659141550E+02  0.00000000000E+00 0.  1.
         11    1    3    3    0    0 -0.16923878179E+00  0.53596718229E+01  0.20195194918E-01  0.53623811802E+01  0.51100000000E-03 0. -1.
        -11    1    3    3    0    0  0.29510745759E+01  0.10901940169E+02 -0.83291493534E+01  0.14033384118E+02  0.51100000000E-03 0.  1.
        -12    1    3    3    0    0 -0.50344533816E+01 -0.41562702503E+01 -0.30440913027E+02  0.31133093151E+02  0.00000000000E+00 0.  1.
</event>
<event>
 7    1  0.2903212E-011  0.5052884E+02  0.7816164E-02  0.1300439E+00
        -11   -1    0    0    0    0  0.00000000000E+00  0.00000000000E+00  0.45593999997E+02  0.45594000000E+02  0.51100000000E-03 0.  1.
         11   -1    0    0    0    0 -0.00000000000E+00 -0.00000000000E+00 -0.45593999997E+02  0.45594000000E+02  0.51100000000E-03 0. -1.
    9900012    2    1    2    0    0 -0.47108448284E+01 -0.29116685505E+02 -0.27985603778E+02  0.50528838024E+02  0.29999933657E+02 0.  0.
        -12    1    1    2    0    0  0.47108448284E+01  0.29116685505E+02  0.27985603778E+02  0.40659161976E+02  0.00000000000E+00 0.  1.
         11    1    3    3    0    0 -0.53688856698E+01 -0.80842960744E+01 -0.33750498931E+01  0.10274810869E+02  0.51100000000E-03 0. -1.
        -11    1    3    3    0    0 -0.10589714778E+02 -0.49007704908E+01 -0.57606589825E+01  0.13013254883E+02  0.51100000000E-03 0.  1.
         12    1    3    3    0    0  0.11247755620E+02 -0.16131618939E+02 -0.18849894903E+02  0.27240772271E+02  0.00000000000E+00 0. -1.
</event>
<event>
 7    1  0.2903212E-011  0.5052886E+02  0.7816164E-02  0.1300439E+00
        -11   -1    0    0    0    0  0.00000000000E+00  0.00000000000E+00  0.45593999997E+02  0.45594000000E+02  0.51100000000E-03 0.  1.
         11   -1    0    0    0    0 -0.00000000000E+00 -0.00000000000E+00 -0.45593999997E+02  0.45594000000E+02  0.51100000000E-03 0. -1.
    9900012    2    1    2    0    0 -0.13210504314E+02 -0.32091527381E+02 -0.21184479560E+02  0.50528859231E+02  0.29999998117E+02 0.  0.
        -12    1    1    2    0    0  0.13210504314E+02  0.32091527381E+02  0.21184479560E+02  0.40659140769E+02  0.00000000000E+00 0.  1.
         11    1    3    3    0    0 -0.28533194883E+01 -0.23410638567E+02 -0.51183940430E+01  0.24132910891E+02  0.51100000000E-03 0. -1.
        -11    1    3    3    0    0 -0.82883705692E+01 -0.12080359051E+02 -0.64853451790E+01  0.16021606157E+02  0.51100000000E-03 0.  1.
         12    1    3    3    0    0 -0.20688142569E+01  0.33994702365E+01 -0.95807403377E+01  0.10374342183E+02  0.00000000000E+00 0. -1.
</event>
<event>
 7    1  0.2903212E-011  0.5052884E+02  0.7816164E-02  0.1300439E+00
        -11   -1    0    0    0    0  0.00000000000E+00  0.00000000000E+00  0.45593999997E+02  0.45594000000E+02  0.51100000000E-03 0.  1.
         11   -1    0    0    0    0 -0.00000000000E+00 -0.00000000000E+00 -0.45593999997E+02  0.45594000000E+02  0.51100000000E-03 0. -1.
    9900012    2    1    2    0    0  0.10238057032E+02 -0.28203693336E+02 -0.27439038284E+02  0.50528844186E+02  0.29999952387E+02 0.  0.
        -12    1    1    2    0    0 -0.10238057032E+02  0.28203693336E+02  0.27439038284E+02  0.40659155814E+02  0.00000000000E+00 0.  1.
         11    1    3    3    0    0  0.76503449165E+01 -0.24257243486E+02 -0.16335316140E+02  0.30228863566E+02  0.51100000000E-03 0. -1.
        -11    1    3    3    0    0 -0.66870672978E+01 -0.17081595080E+01 -0.21846281972E+01  0.72392871591E+01  0.51100000000E-03 0.  1.
         12    1    3    3    0    0  0.92747794135E+01 -0.22382903421E+01 -0.89190939471E+01  0.13060693460E+02  0.00000000000E+00 0. -1.
</event>
<event>
 7    1  0.2903212E-011  0.5052886E+02  0.7816164E-02  0.1300439E+00
        -11   -1    0    0    0    0  0.00000000000E+00  0.00000000000E+00  0.45593999997E+02  0.45594000000E+02  0.51100000000E-03 0.  1.
         11   -1    0    0    0    0 -0.00000000000E+00 -0.00000000000E+00 -0.45593999997E+02  0.45594000000E+02  0.51100000000E-03 0. -1.
    9900012    2    1    2    0    0  0.39782812107E+02 -0.13748521053E+01  0.82827131323E+01  0.50528859646E+02  0.29999999381E+02 0.  0.
        -12    1    1    2    0    0 -0.39782812107E+02  0.13748521053E+01 -0.82827131323E+01  0.40659140354E+02  0.00000000000E+00 0.  1.
         11    1    3    3    0    0  0.24074895977E+01  0.69946200271E+01  0.37701001129E+01  0.83026724980E+01  0.51100000000E-03 0.  1.
        -11    1    3    3    0    0  0.45686730615E+01  0.23157081485E+01 -0.42186455700E+01  0.66356799560E+01  0.51100000000E-03 0. -1.
         12    1    3    3    0    0  0.32806649448E+02 -0.10685180281E+02  0.87312585894E+01  0.35590507192E+02  0.00000000000E+00 0. -1.
</event>
<event>
 7    1  0.2903212E-011  0.5052887E+02  0.7816164E-02  0.1300439E+00
        -11   -1    0    0    0    0  0.00000000000E+00  0.00000000000E+00  0.45593999997E+02  0.45594000000E+02  0.51100000000E-03 0. -1.
         11   -1    0    0    0    0 -0.00000000000E+00 -0.00000000000E+00 -0.45593999997E+02  0.45594000000E+02  0.51100000000E-03 0.  1.
    9900012    2    1    2    0    0  0.39448268136E+02 -0.81451965061E+01  0.55366936945E+01  0.50528867421E+02  0.30000023012E+02 0.  0.
        -12    1    1    2    0    0 -0.39448268136E+02  0.81451965061E+01 -0.55366936945E+01  0.40659132579E+02  0.00000000000E+00 0.  1.
         11    1    3    3    0    0  0.97222062317E+01 -0.10506947759E+01 -0.56492512486E+01  0.11293329600E+02  0.51100000000E-03 0. -1.
        -11    1    3    3    0    0 -0.24181702530E+01  0.30356522367E+01  0.73872794639E+00  0.39507532338E+01  0.51100000000E-03 0.  1.
         12    1    3    3    0    0  0.32144232157E+02 -0.10130153967E+02  0.10447216997E+02  0.35284784587E+02  0.00000000000E+00 0. -1.
</event>
<event>
 7    1  0.2903212E-011  0.5052887E+02  0.7816164E-02  0.1300439E+00
        -11   -1    0    0    0    0  0.00000000000E+00  0.00000000000E+00  0.45593999997E+02  0.45594000000E+02  0.51100000000E-03 0.  1.
         11   -1    0    0    0    0 -0.00000000000E+00 -0.00000000000E+00 -0.45593999997E+02  0.45594000000E+02  0.51100000000E-03 0. -1.
    9900012    2    1    2    0    0 -0.12680300002E+02 -0.38622283500E+02  0.83334735422E+00  0.50528865003E+02  0.30000015662E+02 0.  0.
        -12    1    1    2    0    0  0.12680300002E+02  0.38622283500E+02 -0.83334735422E+00  0.40659134997E+02  0.00000000000E+00 0.  1.
         11    1    3    3    0    0 -0.38756919940E+01  0.11258274783E+01  0.27890924199E+01  0.49058651358E+01  0.51100000000E-03 0. -1.
        -11    1    3    3    0    0 -0.92004240195E+01 -0.87581192079E+01  0.53466045101E+01  0.13781822602E+02  0.51100000000E-03 0.  1.
         12    1    3    3    0    0  0.39581601182E+00 -0.30989991771E+02 -0.73023495758E+01  0.31841177265E+02  0.00000000000E+00 0. -1.
</event>
<event>
 7    1  0.2903212E-011  0.5052886E+02  0.7816164E-02  0.1300439E+00
        -11   -1    0    0    0    0  0.00000000000E+00  0.00000000000E+00  0.45593999997E+02  0.45594000000E+02  0.51100000000E-03 0. -1.
         11   -1    0    0    0    0 -0.00000000000E+00 -0.00000000000E+00 -0.45593999997E+02  0.45594000000E+02  0.51100000000E-03 0.  1.
    9900012    2    1    2    0    0 -0.15056670840E+02  0.97825738699E+01  0.36479627473E+02  0.50528864386E+02  0.30000013789E+02 0.  0.
        -12    1    1    2    0    0  0.15056670840E+02 -0.97825738699E+01 -0.36479627473E+02  0.40659135614E+02  0.00000000000E+00 0.  1.
         11    1    3    3    0    0 -0.12176822973E+02  0.14641797434E+01  0.50944838123E+01  0.13280534839E+02  0.51100000000E-03 0. -1.
        -11    1    3    3    0    0 -0.52003569516E+00  0.83140295850E+01  0.31363411414E+01  0.89011325730E+01  0.51100000000E-03 0.  1.
        -12    1    3    3    0    0 -0.23598121718E+01  0.43645414483E-02  0.28248802519E+02  0.28347196974E+02  0.00000000000E+00 0.  1.
</event>
<event>
 7    1  0.2903212E-011  0.5052886E+02  0.7816164E-02  0.1300439E+00
        -11   -1    0    0    0    0  0.00000000000E+00  0.00000000000E+00  0.45593999997E+02  0.45594000000E+02  0.51100000000E-03 0. -1.
         11   -1    0    0    0    0 -0.00000000000E+00 -0.00000000000E+00 -0.45593999997E+02  0.45594000000E+02  0.51100000000E-03 0.  1.
    9900012    2    1    2    0    0  0.15674158768E+02 -0.24914131691E+02  0.28049463632E+02  0.50528860547E+02  0.30000002119E+02 0.  0.
        -12    1    1    2    0    0 -0.15674158768E+02  0.24914131691E+02 -0.28049463632E+02  0.40659139453E+02  0.00000000000E+00 0.  1.
         11    1    3    3    0    0  0.24380547292E+01 -0.11703466619E+01  0.17415024492E+01  0.32166213973E+01  0.51100000000E-03 0. -1.
        -11    1    3    3    0    0  0.50683327897E+01  0.60116841696E+01  0.22294210423E+01  0.81730448590E+01  0.51100000000E-03 0.  1.
         12    1    3    3    0    0  0.81677712485E+01 -0.29755469199E+02  0.24078540141E+02  0.39139194291E+02  0.00000000000E+00 0. -1.
</event>
<event>
 7    1  0.2903212E-011  0.5052882E+02  0.7816164E-02  0.1300439E+00
        -11   -1    0    0    0    0  0.00000000000E+00  0.00000000000E+00  0.45593999997E+02  0.45594000000E+02  0.51100000000E-03 0. -1.
         11   -1    0    0    0    0 -0.00000000000E+00 -0.00000000000E+00 -0.45593999997E+02  0.45594000000E+02  0.51100000000E-03 0.  1.
    9900012    2    1    2    0    0 -0.34720882552E+02  0.45563731244E+01  0.20660793340E+02  0.50528823881E+02  0.29999890668E+02 0.  0.
        -12    1    1    2    0    0  0.34720882552E+02 -0.45563731244E+01 -0.20660793340E+02  0.40659176119E+02  0.00000000000E+00 0.  1.
         11    1    3    3    0    0 -0.17499972869E+02  0.22000707787E+01  0.10060455930E+02  0.20305224343E+02  0.51100000000E-03 0. -1.
        -11    1    3    3    0    0 -0.71608578820E+01  0.13433826243E+01  0.16835725590E+02  0.18344596449E+02  0.51100000000E-03 0.  1.
        -12    1    3    3    0    0 -0.10060051801E+02  0.10129197214E+01 -0.62353881807E+01  0.11879003088E+02  0.00000000000E+00 0.  1.
</event>
<event>
 7    1  0.2903212E-011  0.5052886E+02  0.7816164E-02  0.1300439E+00
        -11   -1    0    0    0    0  0.00000000000E+00  0.00000000000E+00  0.45593999997E+02  0.45594000000E+02  0.51100000000E-03 0.  1.
         11   -1    0    0    0    0 -0.00000000000E+00 -0.00000000000E+00 -0.45593999997E+02  0.45594000000E+02  0.51100000000E-03 0. -1.
    9900012    2    1    2    0    0  0.16241582070E+02 -0.22652454905E+02 -0.29601402586E+02  0.50528859128E+02  0.29999997807E+02 0.  0.
        -12    1    1    2    0    0 -0.16241582070E+02  0.22652454905E+02  0.29601402586E+02  0.40659140872E+02  0.00000000000E+00 0.  1.
         11    1    3    3    0    0  0.18260938605E+01 -0.11122608429E+02 -0.11678333856E+02  0.16230542781E+02  0.51100000000E-03 0. -1.
        -11    1    3    3    0    0 -0.43341101422E+01  0.32094307656E+01 -0.33659005431E+01  0.63572197768E+01  0.51100000000E-03 0.  1.
        -12    1    3    3    0    0  0.18749598351E+02 -0.14739277242E+02 -0.14557168187E+02  0.27941096571E+02  0.00000000000E+00 0.  1.
</event>
<event>
 7    1  0.2903212E-011  0.5052891E+02  0.7816164E-02  0.1300439E+00
        -11   -1    0    0    0    0  0.00000000000E+00  0.00000000000E+00  0.45593999997E+02  0.45594000000E+02  0.51100000000E-03 0. -1.
         11   -1    0    0    0    0 -0.00000000000E+00 -0.00000000000E+00 -0.45593999997E+02  0.45594000000E+02  0.51100000000E-03 0.  1.
    9900012    2    1    2    0    0 -0.17170163932E+02 -0.25081466267E+02  0.27004949694E+02  0.50528907689E+02  0.30000145412E+02 0.  0.
        -12    1    1    2    0    0  0.17170163932E+02  0.25081466267E+02 -0.27004949694E+02  0.40659092311E+02  0.00000000000E+00 0.  1.
         11    1    3    3    0    0 -0.37065273385E+00 -0.18245942649E+02  0.60975885908E+01  0.19241423895E+02  0.51100000000E-03 0. -1.
        -11    1    3    3    0    0  0.72170541298E+00  0.30652539425E+01  0.29780979566E+01  0.43342482780E+01  0.51100000000E-03 0.  1.
         12    1    3    3    0    0 -0.17521216611E+02 -0.99007775599E+01  0.17929263147E+02  0.26953235517E+02  0.00000000000E+00 0. -1.
</event>
<event>
 7    1  0.2903212E-011  0.5052886E+02  0.7816164E-02  0.1300439E+00
        -11   -1    0    0    0    0  0.00000000000E+00  0.00000000000E+00  0.45593999997E+02  0.45594000000E+02  0.51100000000E-03 0. -1.
         11   -1    0    0    0    0 -0.00000000000E+00 -0.00000000000E+00 -0.45593999997E+02  0.45594000000E+02  0.51100000000E-03 0.  1.
    9900012    2    1    2    0    0  0.23271587124E+02 -0.15894649593E+02  0.29308002776E+02  0.50528859826E+02  0.29999999929E+02 0.  0.
        -12    1    1    2    0    0 -0.23271587124E+02  0.15894649593E+02 -0.29308002776E+02  0.40659140174E+02  0.00000000000E+00 0.  1.
         11    1    3    3    0    0 -0.22513480949E+01  0.29645989811E+01  0.35786246956E+01  0.51637167173E+01  0.51100000000E-03 0. -1.
        -11    1    3    3    0    0  0.21350992775E+02 -0.97551644996E+01  0.76351837259E+01  0.24684492251E+02  0.51100000000E-03 0.  1.
         12    1    3    3    0    0  0.41719424435E+01 -0.91040840748E+01  0.18094194354E+02  0.20680650858E+02  0.00000000000E+00 0. -1.
</event>
<event>
 7    1  0.2903212E-011  0.5052886E+02  0.7816164E-02  0.1300439E+00
        -11   -1    0    0    0    0  0.00000000000E+00  0.00000000000E+00  0.45593999997E+02  0.45594000000E+02  0.51100000000E-03 0. -1.
         11   -1    0    0    0    0 -0.00000000000E+00 -0.00000000000E+00 -0.45593999997E+02  0.45594000000E+02  0.51100000000E-03 0.  1.
    9900012    2    1    2    0    0 -0.34751043721E+01  0.20453022230E+02  0.34968031012E+02  0.50528860049E+02  0.30000000604E+02 0.  0.
        -12    1    1    2    0    0  0.34751043721E+01 -0.20453022230E+02 -0.34968031012E+02  0.40659139951E+02  0.00000000000E+00 0.  1.
         11    1    3    3    0    0  0.58242910939E+01  0.88191852605E+01  0.38436943952E+01  0.11246082975E+02  0.51100000000E-03 0.  1.
        -11    1    3    3    0    0  0.40726794843E+01  0.94013394381E+01  0.15699582366E+02  0.18746967438E+02  0.51100000000E-03 0. -1.
        -12    1    3    3    0    0 -0.13372074950E+02  0.22324975315E+01  0.15424754251E+02  0.20535809636E+02  0.00000000000E+00 0.  1.
</event>
<event>
 7    1  0.2903212E-011  0.5052886E+02  0.7816164E-02  0.1300439E+00
        -11   -1    0    0    0    0  0.00000000000E+00  0.00000000000E+00  0.45593999997E+02  0.45594000000E+02  0.51100000000E-03 0. -1.
         11   -1    0    0    0    0 -0.00000000000E+00 -0.00000000000E+00 -0.45593999997E+02  0.45594000000E+02  0.51100000000E-03 0.  1.
    9900012    2    1    2    0    0  0.36037446840E+02  0.93968485159E+01  0.16314632753E+02  0.50528861069E+02  0.30000003704E+02 0.  0.
        -12    1    1    2    0    0 -0.36037446840E+02 -0.93968485159E+01 -0.16314632753E+02  0.40659138931E+02  0.00000000000E+00 0.  1.
         11    1    3    3    0    0  0.13966772883E+02  0.70220786092E+01  0.81763254534E+01  0.17641786501E+02  0.51100000000E-03 0. -1.
        -11    1    3    3    0    0  0.19728975285E+02  0.33437098734E+00  0.15373255880E+02  0.25013621617E+02  0.51100000000E-03 0.  1.
         12    1    3    3    0    0  0.23416986718E+01  0.20403989194E+01 -0.72349485802E+01  0.78734529515E+01  0.00000000000E+00 0. -1.
</event>
<event>
 7    1  0.2903212E-011  0.5052887E+02  0.7816164E-02  0.1300439E+00
        -11   -1    0    0    0    0  0.00000000000E+00  0.00000000000E+00  0.45593999997E+02  0.45594000000E+02  0.51100000000E-03 0.  1.
         11   -1    0    0    0    0 -0.00000000000E+00 -0.00000000000E+00 -0.45593999997E+02  0.45594000000E+02  0.51100000000E-03 0. -1.
    9900012    2    1    2    0    0  0.39487802612E+02  0.89644568701E+01 -0.36765125735E+01  0.50528870806E+02  0.30000033301E+02 0.  0.
        -12    1    1    2    0    0 -0.39487802612E+02 -0.89644568701E+01  0.36765125735E+01  0.40659129194E+02  0.00000000000E+00 0.  1.
         11    1    3    3    0    0  0.25888019466E+02  0.42717089576E+01 -0.52759463945E+01  0.26763270725E+02  0.51100000000E-03 0. -1.
        -11    1    3    3    0    0  0.10167126899E+02  0.56844227861E+01 -0.75920645896E+01  0.13904048935E+02  0.51100000000E-03 0.  1.
        -12    1    3    3    0    0  0.34326562474E+01 -0.99167487349E+00  0.91914984106E+01  0.98615511457E+01  0.00000000000E+00 0.  1.
</event>
<event>
 7    1  0.2903212E-011  0.5052886E+02  0.7816164E-02  0.1300439E+00
        -11   -1    0    0    0    0  0.00000000000E+00  0.00000000000E+00  0.45593999997E+02  0.45594000000E+02  0.51100000000E-03 0.  1.
         11   -1    0    0    0    0 -0.00000000000E+00 -0.00000000000E+00 -0.45593999997E+02  0.45594000000E+02  0.51100000000E-03 0. -1.
    9900012    2    1    2    0    0  0.36843343738E+02  0.14525902751E+02 -0.92049782303E+01  0.50528862617E+02  0.30000008411E+02 0.  0.
        -12    1    1    2    0    0 -0.36843343738E+02 -0.14525902751E+02  0.92049782303E+01  0.40659137383E+02  0.00000000000E+00 0.  1.
         11    1    3    3    0    0  0.49179617797E+01  0.11050663759E+01  0.44631956009E+01  0.67325801143E+01  0.51100000000E-03 0. -1.
        -11    1    3    3    0    0  0.33155151602E+02  0.10425097028E+02 -0.57322466927E+01  0.35225067469E+02  0.51100000000E-03 0.  1.
        -12    1    3    3    0    0 -0.12297696438E+01  0.29957393467E+01 -0.79359271385E+01  0.85712150339E+01  0.00000000000E+00 0.  1.
</event>
<event>
 7    1  0.2903212E-011  0.5052887E+02  0.7816164E-02  0.1300439E+00
        -11   -1    0    0    0    0  0.00000000000E+00  0.00000000000E+00  0.45593999997E+02  0.45594000000E+02  0.51100000000E-03 0.  1.
         11   -1    0    0    0    0 -0.00000000000E+00 -0.00000000000E+00 -0.45593999997E+02  0.45594000000E+02  0.51100000000E-03 0. -1.
    9900012    2    1    2    0    0  0.35160430241E+00  0.14776538244E+02 -0.37877374954E+02  0.50528865215E+02  0.30000016308E+02 0.  0.
        -12    1    1    2    0    0 -0.35160430241E+00 -0.14776538244E+02  0.37877374954E+02  0.40659134785E+02  0.00000000000E+00 0.  1.
         11    1    3    3    0    0  0.47733199523E+01  0.56132131880E+01 -0.89431182684E+01  0.11587584316E+02  0.51100000000E-03 0. -1.
        -11    1    3    3    0    0  0.71515810990E+01 -0.67921463382E+00 -0.20149228914E+02  0.21391537364E+02  0.51100000000E-03 0.  1.
        -12    1    3    3    0    0 -0.11573296749E+02  0.98425396893E+01 -0.87850277722E+01  0.17549743535E+02  0.00000000000E+00 0.  1.
</event>
<event>
 7    1  0.2903212E-011  0.5052886E+02  0.7816164E-02  0.1300439E+00
        -11   -1    0    0    0    0  0.00000000000E+00  0.00000000000E+00  0.45593999997E+02  0.45594000000E+02  0.51100000000E-03 0.  1.
         11   -1    0    0    0    0 -0.00000000000E+00 -0.00000000000E+00 -0.45593999997E+02  0.45594000000E+02  0.51100000000E-03 0. -1.
    9900012    2    1    2    0    0 -0.13816103824E+02  0.26294072342E+02 -0.27765135117E+02  0.50528859659E+02  0.29999999421E+02 0.  0.
        -12    1    1    2    0    0  0.13816103824E+02 -0.26294072342E+02  0.27765135117E+02  0.40659140341E+02  0.00000000000E+00 0.  1.
         11    1    3    3    0    0 -0.89483901447E+01 -0.11111171625E+01 -0.47885525076E+01  0.10209725898E+02  0.51100000000E-03 0. -1.
        -11    1    3    3    0    0  0.17276669736E+01  0.70686790421E+01 -0.16415033596E+02  0.17955622651E+02  0.51100000000E-03 0.  1.
         12    1    3    3    0    0 -0.65953806524E+01  0.20336510462E+02 -0.65615490135E+01  0.22363511111E+02  0.00000000000E+00 0. -1.
</event>
<event>
 7    1  0.2903212E-011  0.5052886E+02  0.7816164E-02  0.1300439E+00
        -11   -1    0    0    0    0  0.00000000000E+00  0.00000000000E+00  0.45593999997E+02  0.45594000000E+02  0.51100000000E-03 0. -1.
         11   -1    0    0    0    0 -0.00000000000E+00 -0.00000000000E+00 -0.45593999997E+02  0.45594000000E+02  0.51100000000E-03 0.  1.
    9900012    2    1    2    0    0 -0.23663141911E+02  0.32304846140E+02 -0.70440227989E+01  0.50528860481E+02  0.30000001917E+02 0.  0.
        -12    1    1    2    0    0  0.23663141911E+02 -0.32304846140E+02  0.70440227989E+01  0.40659139519E+02  0.00000000000E+00 0.  1.
         11    1    3    3    0    0 -0.13258571438E+02  0.10146326832E+01  0.33462058703E+00  0.13301547551E+02  0.51100000000E-03 0.  1.
        -11    1    3    3    0    0 -0.62374827501E+01  0.19470603631E+01  0.52090874271E+00  0.65550424327E+01  0.51100000000E-03 0. -1.
        -12    1    3    3    0    0 -0.41670877235E+01  0.29343153094E+02 -0.78995521287E+01  0.30672270497E+02  0.00000000000E+00 0.  1.
</event>
<event>
 7    1  0.2903212E-011  0.5052886E+02  0.7816164E-02  0.1300439E+00
        -11   -1    0    0    0    0  0.00000000000E+00  0.00000000000E+00  0.45593999997E+02  0.45594000000E+02  0.51100000000E-03 0.  1.
         11   -1    0    0    0    0 -0.00000000000E+00 -0.00000000000E+00 -0.45593999997E+02  0.45594000000E+02  0.51100000000E-03 0. -1.
    9900012    2    1    2    0    0  0.24871971610E+02  0.89947640104E+01 -0.30881146676E+02  0.50528856238E+02  0.29999989022E+02 0.  0.
        -12    1    1    2    0    0 -0.24871971610E+02 -0.89947640104E+01  0.30881146676E+02  0.40659143762E+02  0.00000000000E+00 0.  1.
         11    1    3    3    0    0  0.57558788557E+01 -0.51870022250E+01 -0.85949252334E+01  0.11571856960E+02  0.51100000000E-03 0.  1.
        -11    1    3    3    0    0  0.40418368422E+01 -0.30068530252E+01 -0.13595254276E+02  0.14498570594E+02  0.51100000000E-03 0. -1.
        -12    1    3    3    0    0  0.15074255912E+02  0.17188619261E+02 -0.86909671666E+01  0.24458428684E+02  0.00000000000E+00 0.  1.
</event>
<event>
 7    1  0.2903212E-011  0.5052884E+02  0.7816164E-02  0.1300439E+00
        -11   -1    0    0    0    0  0.00000000000E+00  0.00000000000E+00  0.45593999997E+02  0.45594000000E+02  0.51100000000E-03 0. -1.
         11   -1    0    0    0    0 -0.00000000000E+00 -0.00000000000E+00 -0.45593999997E+02  0.45594000000E+02  0.51100000000E-03 0.  1.
    9900012    2    1    2    0    0 -0.58531142744E+01  0.40124581330E+02  0.29876678716E+01  0.50528841955E+02  0.29999945607E+02 0.  0.
        -12    1    1    2    0    0  0.58531142744E+01 -0.40124581330E+02 -0.29876678716E+01  0.40659158045E+02  0.00000000000E+00 0.  1.
         11    1    3    3    0    0  0.49076669244E+01  0.33564725837E+02  0.98312816811E+00  0.33935859447E+02  0.51100000000E-03 0.  1.
        -11    1    3    3    0    0  0.21177121083E+01  0.13478467357E+01  0.85686821293E+00  0.26524740888E+01  0.51100000000E-03 0. -1.
        -12    1    3    3    0    0 -0.12878493307E+02  0.52120087572E+01  0.11476714906E+01  0.13940508420E+02  0.00000000000E+00 0.  1.
</event>
<event>
 7    1  0.2903212E-011  0.5052886E+02  0.7816164E-02  0.1300439E+00
        -11   -1    0    0    0    0  0.00000000000E+00  0.00000000000E+00  0.45593999997E+02  0.45594000000E+02  0.51100000000E-03 0.  1.
         11   -1    0    0    0    0 -0.00000000000E+00 -0.00000000000E+00 -0.45593999997E+02  0.45594000000E+02  0.51100000000E-03 0. -1.
    9900012    2    1    2    0    0 -0.63293517514E+01 -0.17326422265E+02 -0.36233961038E+02  0.50528861610E+02  0.30000005351E+02 0.  0.
        -12    1    1    2    0    0  0.63293517514E+01  0.17326422265E+02  0.36233961038E+02  0.40659138390E+02  0.00000000000E+00 0.  1.
         11    1    3    3    0    0 -0.18514124867E+01 -0.89276437943E+01 -0.25215894884E+02  0.26813651504E+02  0.51100000000E-03 0. -1.
        -11    1    3    3    0    0 -0.30378100385E+01 -0.10150078969E+02 -0.15451843067E+02  0.18735310174E+02  0.51100000000E-03 0.  1.
        -12    1    3    3    0    0 -0.14401292263E+01  0.17513004976E+01  0.44337769132E+01  0.49798999324E+01  0.00000000000E+00 0.  1.
</event>
<event>
 7    1  0.2903212E-011  0.5052886E+02  0.7816164E-02  0.1300439E+00
        -11   -1    0    0    0    0  0.00000000000E+00  0.00000000000E+00  0.45593999997E+02  0.45594000000E+02  0.51100000000E-03 0. -1.
         11   -1    0    0    0    0 -0.00000000000E+00 -0.00000000000E+00 -0.45593999997E+02  0.45594000000E+02  0.51100000000E-03 0.  1.
    9900012    2    1    2    0    0  0.98579755066E+00 -0.39875993199E+02  0.78802909605E+01  0.50528860609E+02  0.30000002307E+02 0.  0.
        -12    1    1    2    0    0 -0.98579755066E+00  0.39875993199E+02 -0.78802909605E+01  0.40659139391E+02  0.00000000000E+00 0.  1.
         11    1    3    3    0    0  0.19130177013E+00 -0.22536604858E+02 -0.43829311342E+01  0.22959643736E+02  0.51100000000E-03 0. -1.
        -11    1    3    3    0    0  0.72412220186E+01 -0.10588817432E+02  0.89416706705E+00  0.12859155724E+02  0.51100000000E-03 0.  1.
         12    1    3    3    0    0 -0.64467262380E+01 -0.67505709085E+01  0.11369055028E+02  0.14710061149E+02  0.00000000000E+00 0. -1.
</event>
<event>
 7    1  0.2903212E-011  0.5052884E+02  0.7816164E-02  0.1300439E+00
        -11   -1    0    0    0    0  0.00000000000E+00  0.00000000000E+00  0.45593999997E+02  0.45594000000E+02  0.51100000000E-03 0.  1.
         11   -1    0    0    0    0 -0.00000000000E+00 -0.00000000000E+00 -0.45593999997E+02  0.45594000000E+02  0.51100000000E-03 0. -1.
    9900012    2    1    2    0    0  0.26946202791E+02  0.30194089862E+02 -0.39225159832E+01  0.50528843109E+02  0.29999949115E+02 0.  0.
        -12    1    1    2    0    0 -0.26946202791E+02 -0.30194089862E+02  0.39225159832E+01  0.40659156891E+02  0.00000000000E+00 0.  1.
         11    1    3    3    0    0  0.58570934372E+00 -0.13929069564E+00 -0.40899410065E+01  0.41340143965E+01  0.51100000000E-03 0. -1.
        -11    1    3    3    0    0  0.17634310898E+02  0.10559566776E+02 -0.95893434120E+01  0.22681024639E+02  0.51100000000E-03 0.  1.
        -12    1    3    3    0    0  0.87261825495E+01  0.19773813781E+02  0.97567684353E+01  0.23713804074E+02  0.00000000000E+00 0.  1.
</event>
<event>
 7    1  0.2903212E-011  0.5052889E+02  0.7816164E-02  0.1300439E+00
        -11   -1    0    0    0    0  0.00000000000E+00  0.00000000000E+00  0.45593999997E+02  0.45594000000E+02  0.51100000000E-03 0. -1.
         11   -1    0    0    0    0 -0.00000000000E+00 -0.00000000000E+00 -0.45593999997E+02  0.45594000000E+02  0.51100000000E-03 0.  1.
    9900012    2    1    2    0    0  0.64001147859E+01 -0.31688450332E+02  0.24658549892E+02  0.50528887411E+02  0.30000083775E+02 0.  0.
        -12    1    1    2    0    0 -0.64001147859E+01  0.31688450332E+02 -0.24658549892E+02  0.40659112589E+02  0.00000000000E+00 0.  1.
         11    1    3    3    0    0  0.20812997690E+01 -0.84449591856E+01  0.12177599022E+02  0.14964727280E+02  0.51100000000E-03 0. -1.
        -11    1    3    3    0    0  0.67822271107E+01  0.36081353961E+00  0.94520439724E+01  0.11639154888E+02  0.51100000000E-03 0.  1.
        -12    1    3    3    0    0 -0.24634120939E+01 -0.23604304686E+02  0.30289068976E+01  0.23925005243E+02  0.00000000000E+00 0.  1.
</event>
<event>
 7    1  0.2903212E-011  0.5052886E+02  0.7816164E-02  0.1300439E+00
        -11   -1    0    0    0    0  0.00000000000E+00  0.00000000000E+00  0.45593999997E+02  0.45594000000E+02  0.51100000000E-03 0.  1.
         11   -1    0    0    0    0 -0.00000000000E+00 -0.00000000000E+00 -0.45593999997E+02  0.45594000000E+02  0.51100000000E-03 0. -1.
    9900012    2    1    2    0    0 -0.10238436784E+02  0.34938072341E+00 -0.39347397793E+02  0.50528863662E+02  0.30000011588E+02 0.  0.
        -12    1    1    2    0    0  0.10238436784E+02 -0.34938072341E+00  0.39347397793E+02  0.40659136338E+02  0.00000000000E+00 0.  1.
         11    1    3    3    0    0 -0.80657068188E+01  0.63976715016E+01 -0.39692576311E+02  0.41005931786E+02  0.51100000000E-03 0. -1.
        -11    1    3    3    0    0  0.22897535911E+00  0.13066816213E+01 -0.10108474378E+01  0.16678307402E+01  0.51100000000E-03 0.  1.
         12    1    3    3    0    0 -0.24017053247E+01 -0.73549723995E+01  0.13560259567E+01  0.78551011361E+01  0.00000000000E+00 0. -1.
</event>
<event>
 7    1  0.2903212E-011  0.5052887E+02  0.7816164E-02  0.1300439E+00
        -11   -1    0    0    0    0  0.00000000000E+00  0.00000000000E+00  0.45593999997E+02  0.45594000000E+02  0.51100000000E-03 0.  1.
         11   -1    0    0    0    0 -0.00000000000E+00 -0.00000000000E+00 -0.45593999997E+02  0.45594000000E+02  0.51100000000E-03 0. -1.
    9900012    2    1    2    0    0 -0.47174029775E+01 -0.74813297461E+01 -0.39685525393E+02  0.50528866816E+02  0.30000021173E+02 0.  0.
        -12    1    1    2    0    0  0.47174029775E+01  0.74813297461E+01  0.39685525393E+02  0.40659133184E+02  0.00000000000E+00 0.  1.
         11    1    3    3    0    0  0.83049511099E+00 -0.51218013227E+01 -0.62718064125E+01  0.81399095115E+01  0.51100000000E-03 0. -1.
        -11    1    3    3    0    0 -0.51350128296E+01 -0.13225625333E+02 -0.12918976551E+02  0.19188159828E+02  0.51100000000E-03 0.  1.
         12    1    3    3    0    0 -0.41288525886E+00  0.10866096909E+02 -0.20494742429E+02  0.23200797476E+02  0.00000000000E+00 0. -1.
</event>
<event>
 7    1  0.2903212E-011  0.5052889E+02  0.7816164E-02  0.1300439E+00
        -11   -1    0    0    0    0  0.00000000000E+00  0.00000000000E+00  0.45593999997E+02  0.45594000000E+02  0.51100000000E-03 0. -1.
         11   -1    0    0    0    0 -0.00000000000E+00 -0.00000000000E+00 -0.45593999997E+02  0.45594000000E+02  0.51100000000E-03 0.  1.
    9900012    2    1    2    0    0  0.37019531496E+02  0.83502277514E+01 -0.14594223470E+02  0.50528888175E+02  0.30000086097E+02 0.  0.
        -12    1    1    2    0    0 -0.37019531496E+02 -0.83502277514E+01  0.14594223470E+02  0.40659111825E+02  0.00000000000E+00 0.  1.
         11    1    3    3    0    0  0.15592480326E+02  0.53710974153E+01 -0.47571059353E+01  0.17164037617E+02  0.51100000000E-03 0. -1.
        -11    1    3    3    0    0  0.17432006796E+02  0.57931398384E+01  0.39048862451E+01  0.18779868662E+02  0.51100000000E-03 0.  1.
        -12    1    3    3    0    0  0.39950443737E+01 -0.28140095023E+01 -0.13742003780E+02  0.14584981896E+02  0.00000000000E+00 0.  1.
</event>
<event>
 7    1  0.2903212E-011  0.5052885E+02  0.7816164E-02  0.1300439E+00
        -11   -1    0    0    0    0  0.00000000000E+00  0.00000000000E+00  0.45593999997E+02  0.45594000000E+02  0.51100000000E-03 0. -1.
         11   -1    0    0    0    0 -0.00000000000E+00 -0.00000000000E+00 -0.45593999997E+02  0.45594000000E+02  0.51100000000E-03 0.  1.
    9900012    2    1    2    0    0 -0.26504995628E+02 -0.30502848817E+02  0.44975550589E+01  0.50528848746E+02  0.29999966249E+02 0.  0.
        -12    1    1    2    0    0  0.26504995628E+02  0.30502848817E+02 -0.44975550589E+01  0.40659151254E+02  0.00000000000E+00 0.  1.
         11    1    3    3    0    0 -0.99730310512E+01 -0.14070508763E+01  0.91051821204E+01  0.13577388638E+02  0.51100000000E-03 0. -1.
        -11    1    3    3    0    0  0.17948652219E+01 -0.63463513810E+00 -0.23508339027E+01  0.30250162351E+01  0.51100000000E-03 0.  1.
        -12    1    3    3    0    0 -0.18326829798E+02 -0.28461162802E+02 -0.22567931588E+01  0.33926443873E+02  0.00000000000E+00 0.  1.
</event>
<event>
 7    1  0.2903212E-011  0.5052886E+02  0.7816164E-02  0.1300439E+00
        -11   -1    0    0    0    0  0.00000000000E+00  0.00000000000E+00  0.45593999997E+02  0.45594000000E+02  0.51100000000E-03 0.  1.
         11   -1    0    0    0    0 -0.00000000000E+00 -0.00000000000E+00 -0.45593999997E+02  0.45594000000E+02  0.51100000000E-03 0. -1.
    9900012    2    1    2    0    0  0.89813672675E+01  0.22473325191E+02 -0.32671854879E+02  0.50528863212E+02  0.30000010218E+02 0.  0.
        -12    1    1    2    0    0 -0.89813672675E+01 -0.22473325191E+02  0.32671854879E+02  0.40659136788E+02  0.00000000000E+00 0.  1.
         11    1    3    3    0    0 -0.67346866022E+00 -0.29888752451E+01 -0.74593881581E+01  0.80640813006E+01  0.51100000000E-03 0.  1.
        -11    1    3    3    0    0  0.11481029327E+02  0.11251326982E+02 -0.22858600558E+02  0.27944981893E+02  0.51100000000E-03 0. -1.
        -12    1    3    3    0    0 -0.18261933998E+01  0.14210873454E+02 -0.23538661634E+01  0.14519800018E+02  0.00000000000E+00 0.  1.
</event>
<event>
 7    1  0.2903212E-011  0.5052886E+02  0.7816164E-02  0.1300439E+00
        -11   -1    0    0    0    0  0.00000000000E+00  0.00000000000E+00  0.45593999997E+02  0.45594000000E+02  0.51100000000E-03 0. -1.
         11   -1    0    0    0    0 -0.00000000000E+00 -0.00000000000E+00 -0.45593999997E+02  0.45594000000E+02  0.51100000000E-03 0.  1.
    9900012    2    1    2    0    0 -0.38765193306E+02 -0.93583044939E+01 -0.79276606572E+01  0.50528857381E+02  0.29999992494E+02 0.  0.
        -12    1    1    2    0    0  0.38765193306E+02  0.93583044939E+01  0.79276606572E+01  0.40659142619E+02  0.00000000000E+00 0.  1.
         11    1    3    3    0    0 -0.12834705954E+02  0.26706384140E+01 -0.48134081616E+01  0.13965345855E+02  0.51100000000E-03 0. -1.
        -11    1    3    3    0    0 -0.71146012173E+00 -0.46806907608E+01 -0.85183203325E+01  0.97456053199E+01  0.51100000000E-03 0.  1.
         12    1    3    3    0    0 -0.25219027230E+02 -0.73482521471E+01  0.54040678368E+01  0.26817906206E+02  0.00000000000E+00 0. -1.
</event>
<event>
 7    1  0.2903212E-011  0.5052887E+02  0.7816164E-02  0.1300439E+00
        -11   -1    0    0    0    0  0.00000000000E+00  0.00000000000E+00  0.45593999997E+02  0.45594000000E+02  0.51100000000E-03 0.  1.
         11   -1    0    0    0    0 -0.00000000000E+00 -0.00000000000E+00 -0.45593999997E+02  0.45594000000E+02  0.51100000000E-03 0. -1.
    9900012    2    1    2    0    0  0.26575781743E+01  0.36410039204E+02 -0.17900024010E+02  0.50528873888E+02  0.30000042671E+02 0.  0.
        -12    1    1    2    0    0 -0.26575781743E+01 -0.36410039204E+02  0.17900024010E+02  0.40659126112E+02  0.00000000000E+00 0.  1.
         11    1    3    3    0    0  0.35352872343E+01  0.73804706924E+01 -0.12345160198E+02  0.14811231686E+02  0.51100000000E-03 0. -1.
        -11    1    3    3    0    0 -0.92618010675E+01  0.19109332054E+02 -0.76292594389E+01  0.22564421783E+02  0.51100000000E-03 0.  1.
         12    1    3    3    0    0  0.83840920075E+01  0.99202364581E+01  0.20743956275E+01  0.13153220419E+02  0.00000000000E+00 0. -1.
</event>
<event>
 7    1  0.2903212E-011  0.5052883E+02  0.7816164E-02  0.1300439E+00
        -11   -1    0    0    0    0  0.00000000000E+00  0.00000000000E+00  0.45593999997E+02  0.45594000000E+02  0.51100000000E-03 0. -1.
         11   -1    0    0    0    0 -0.00000000000E+00 -0.00000000000E+00 -0.45593999997E+02  0.45594000000E+02  0.51100000000E-03 0.  1.
    9900012    2    1    2    0    0 -0.14069262054E+01 -0.39403824864E+02 -0.99260696112E+01  0.50528834820E+02  0.29999923918E+02 0.  0.
        -12    1    1    2    0    0  0.14069262054E+01  0.39403824864E+02  0.99260696112E+01  0.40659165180E+02  0.00000000000E+00 0.  1.
         11    1    3    3    0    0  0.61302227645E+01 -0.16360947888E+02  0.50835926748E+01  0.18196240317E+02  0.51100000000E-03 0. -1.
        -11    1    3    3    0    0  0.87768355263E+00  0.19893085430E+01 -0.16970057803E+01  0.27581707302E+01  0.51100000000E-03 0.  1.
        -12    1    3    3    0    0 -0.84148325225E+01 -0.25032185519E+02 -0.13312656506E+02  0.29574423772E+02  0.00000000000E+00 0.  1.
</event>
<event>
 7    1  0.2903212E-011  0.5052887E+02  0.7816164E-02  0.1300439E+00
        -11   -1    0    0    0    0  0.00000000000E+00  0.00000000000E+00  0.45593999997E+02  0.45594000000E+02  0.51100000000E-03 0. -1.
         11   -1    0    0    0    0 -0.00000000000E+00 -0.00000000000E+00 -0.45593999997E+02  0.45594000000E+02  0.51100000000E-03 0.  1.
    9900012    2    1    2    0    0  0.26370624029E+02  0.24701931692E+02  0.18643223833E+02  0.50528867743E+02  0.30000023992E+02 0.  0.
        -12    1    1    2    0    0 -0.26370624029E+02 -0.24701931692E+02 -0.18643223833E+02  0.40659132257E+02  0.00000000000E+00 0.  1.
         11    1    3    3    0    0  0.34440692976E+01  0.49044075771E+01  0.13271390545E+02  0.14561752445E+02  0.51100000000E-03 0. -1.
        -11    1    3    3    0    0  0.11494635162E+02  0.19623096317E+01  0.86653691100E+01  0.14528107883E+02  0.51100000000E-03 0.  1.
        -12    1    3    3    0    0  0.11431919569E+02  0.17835214483E+02 -0.32935358221E+01  0.21439007414E+02  0.00000000000E+00 0.  1.
</event>
<event>
 7    1  0.2903212E-011  0.5052886E+02  0.7816164E-02  0.1300439E+00
        -11   -1    0    0    0    0  0.00000000000E+00  0.00000000000E+00  0.45593999997E+02  0.45594000000E+02  0.51100000000E-03 0.  1.
         11   -1    0    0    0    0 -0.00000000000E+00 -0.00000000000E+00 -0.45593999997E+02  0.45594000000E+02  0.51100000000E-03 0. -1.
    9900012    2    1    2    0    0 -0.21895096565E+02 -0.13740762812E+02 -0.31384103419E+02  0.50528858794E+02  0.29999996790E+02 0.  0.
        -12    1    1    2    0    0  0.21895096565E+02  0.13740762812E+02  0.31384103419E+02  0.40659141206E+02  0.00000000000E+00 0.  1.
         11    1    3    3    0    0  0.51742271829E+01 -0.18056663942E+01 -0.64851239746E+01  0.84905766173E+01  0.51100000000E-03 0. -1.
        -11    1    3    3    0    0 -0.12144699917E-01  0.13102445818E+01 -0.67338265270E+01  0.68601245116E+01  0.51100000000E-03 0.  1.
        -12    1    3    3    0    0 -0.27057179048E+02 -0.13245340999E+02 -0.18165152917E+02  0.35178157665E+02  0.00000000000E+00 0.  1.
</event>
<event>
 7    1  0.2903212E-011  0.5052885E+02  0.7816164E-02  0.1300439E+00
        -11   -1    0    0    0    0  0.00000000000E+00  0.00000000000E+00  0.45593999997E+02  0.45594000000E+02  0.51100000000E-03 0.  1.
         11   -1    0    0    0    0 -0.00000000000E+00 -0.00000000000E+00 -0.45593999997E+02  0.45594000000E+02  0.51100000000E-03 0. -1.
    9900012    2    1    2    0    0 -0.21886802888E+02  0.21283330747E+02 -0.26854309753E+02  0.50528852682E+02  0.29999978212E+02 0.  0.
        -12    1    1    2    0    0  0.21886802888E+02 -0.21283330747E+02  0.26854309753E+02  0.40659147318E+02  0.00000000000E+00 0.  1.
         11    1    3    3    0    0  0.13225533273E+01 -0.26278542695E+00 -0.53493790894E+00  0.14506420343E+01  0.51100000000E-03 0. -1.
        -11    1    3    3    0    0 -0.13935166889E+02 -0.21594703926E+00 -0.33803461965E+00  0.13940938885E+02  0.51100000000E-03 0.  1.
         12    1    3    3    0    0 -0.92741893262E+01  0.21762063213E+02 -0.25981337224E+02  0.35137271763E+02  0.00000000000E+00 0. -1.
</event>
<event>
 7    1  0.2903212E-011  0.5052885E+02  0.7816164E-02  0.1300439E+00
        -11   -1    0    0    0    0  0.00000000000E+00  0.00000000000E+00  0.45593999997E+02  0.45594000000E+02  0.51100000000E-03 0.  1.
         11   -1    0    0    0    0 -0.00000000000E+00 -0.00000000000E+00 -0.45593999997E+02  0.45594000000E+02  0.51100000000E-03 0. -1.
    9900012    2    1    2    0    0  0.19013369472E+02  0.99959631798E+01 -0.34521566993E+02  0.50528854826E+02  0.29999984730E+02 0.  0.
        -12    1    1    2    0    0 -0.19013369472E+02 -0.99959631798E+01  0.34521566993E+02  0.40659145174E+02  0.00000000000E+00 0.  1.
         11    1    3    3    0    0  0.19961328377E+02  0.41812371321E+01 -0.17795577127E+02  0.27066952915E+02  0.51100000000E-03 0. -1.
        -11    1    3    3    0    0  0.65659895645E+01  0.34707856059E+01 -0.38367327031E+01  0.83593713746E+01  0.51100000000E-03 0.  1.
        -12    1    3    3    0    0 -0.75139484698E+01  0.23439404417E+01 -0.12889257163E+02  0.15102530537E+02  0.00000000000E+00 0.  1.
</event>
<event>
 7    1  0.2903212E-011  0.5052886E+02  0.7816164E-02  0.1300439E+00
        -11   -1    0    0    0    0  0.00000000000E+00  0.00000000000E+00  0.45593999997E+02  0.45594000000E+02  0.51100000000E-03 0.  1.
         11   -1    0    0    0    0 -0.00000000000E+00 -0.00000000000E+00 -0.45593999997E+02  0.45594000000E+02  0.51100000000E-03 0. -1.
    9900012    2    1    2    0    0  0.33927247687E+02 -0.22126015698E+02 -0.35421403315E+01  0.50528862473E+02  0.30000007974E+02 0.  0.
        -12    1    1    2    0    0 -0.33927247687E+02  0.22126015698E+02  0.35421403315E+01  0.40659137527E+02  0.00000000000E+00 0.  1.
         11    1    3    3    0    0  0.17778964781E+02  0.47879268396E+00 -0.69045642742E+00  0.17798807866E+02  0.51100000000E-03 0. -1.
        -11    1    3    3    0    0  0.46091019974E+01 -0.37248595084E+01 -0.80544147606E+01  0.99995998408E+01  0.51100000000E-03 0.  1.
         12    1    3    3    0    0  0.11539180908E+02 -0.18879948874E+02  0.52027308565E+01  0.22730454766E+02  0.00000000000E+00 0. -1.
</event>
<event>
 7    1  0.2903212E-011  0.5052886E+02  0.7816164E-02  0.1300439E+00
        -11   -1    0    0    0    0  0.00000000000E+00  0.00000000000E+00  0.45593999997E+02  0.45594000000E+02  0.51100000000E-03 0.  1.
         11   -1    0    0    0    0 -0.00000000000E+00 -0.00000000000E+00 -0.45593999997E+02  0.45594000000E+02  0.51100000000E-03 0. -1.
    9900012    2    1    2    0    0  0.28925703521E+02 -0.20260558310E+02  0.20148918786E+02  0.50528862338E+02  0.30000007562E+02 0.  0.
        -12    1    1    2    0    0 -0.28925703521E+02  0.20260558310E+02 -0.20148918786E+02  0.40659137662E+02  0.00000000000E+00 0.  1.
         11    1    3    3    0    0 -0.30158175034E+01 -0.51173820879E+00  0.93923316631E+01  0.98779008670E+01  0.51100000000E-03 0. -1.
        -11    1    3    3    0    0  0.51231544044E+01 -0.88850542625E+00  0.52800908246E+01  0.74105001398E+01  0.51100000000E-03 0.  1.
         12    1    3    3    0    0  0.26818366619E+02 -0.18860314675E+02  0.54764962981E+01  0.33240461331E+02  0.00000000000E+00 0. -1.
</event>
<event>
 7    1  0.2903212E-011  0.5052886E+02  0.7816164E-02  0.1300439E+00
        -11   -1    0    0    0    0  0.00000000000E+00  0.00000000000E+00  0.45593999997E+02  0.45594000000E+02  0.51100000000E-03 0. -1.
         11   -1    0    0    0    0 -0.00000000000E+00 -0.00000000000E+00 -0.45593999997E+02  0.45594000000E+02  0.51100000000E-03 0.  1.
    9900012    2    1    2    0    0 -0.15018881528E+02 -0.16601782215E+02  0.33940823079E+02  0.50528862696E+02  0.30000008650E+02 0.  0.
        -12    1    1    2    0    0  0.15018881528E+02  0.16601782215E+02 -0.33940823079E+02  0.40659137304E+02  0.00000000000E+00 0.  1.
         11    1    3    3    0    0 -0.61701732287E+01  0.19486348303E+01  0.22681285449E+01  0.68565751459E+01  0.51100000000E-03 0. -1.
        -11    1    3    3    0    0 -0.37394229963E+01  0.13753944582E+01 -0.18094891744E+01  0.43759850999E+01  0.51100000000E-03 0.  1.
         12    1    3    3    0    0 -0.51092853027E+01 -0.19925811503E+02  0.33482183708E+02  0.39296302450E+02  0.00000000000E+00 0. -1.
</event>
<event>
 7    1  0.2903212E-011  0.5052886E+02  0.7816164E-02  0.1300439E+00
        -11   -1    0    0    0    0  0.00000000000E+00  0.00000000000E+00  0.45593999997E+02  0.45594000000E+02  0.51100000000E-03 0.  1.
         11   -1    0    0    0    0 -0.00000000000E+00 -0.00000000000E+00 -0.45593999997E+02  0.45594000000E+02  0.51100000000E-03 0. -1.
    9900012    2    1    2    0    0 -0.27683990202E+02 -0.99310713459E+01 -0.28073761218E+02  0.50528861291E+02  0.30000004382E+02 0.  0.
        -12    1    1    2    0    0  0.27683990202E+02  0.99310713459E+01  0.28073761218E+02  0.40659138709E+02  0.00000000000E+00 0.  1.
         11    1    3    3    0    0 -0.36249914688E+01 -0.45601779279E+01 -0.63649000551E+01  0.86283103129E+01  0.51100000000E-03 0. -1.
        -11    1    3    3    0    0 -0.83665507108E+01 -0.83321292241E+01 -0.23025897609E+02  0.25876930057E+02  0.51100000000E-03 0.  1.
        -12    1    3    3    0    0 -0.15692448023E+02  0.29612358061E+01  0.13170364462E+01  0.16023620922E+02  0.00000000000E+00 0.  1.
</event>
<event>
 7    1  0.2903212E-011  0.5052887E+02  0.7816164E-02  0.1300439E+00
        -11   -1    0    0    0    0  0.00000000000E+00  0.00000000000E+00  0.45593999997E+02  0.45594000000E+02  0.51100000000E-03 0.  1.
         11   -1    0    0    0    0 -0.00000000000E+00 -0.00000000000E+00 -0.45593999997E+02  0.45594000000E+02  0.51100000000E-03 0. -1.
    9900012    2    1    2    0    0  0.78421778176E+01  0.27468374529E+02 -0.28933600715E+02  0.50528873072E+02  0.30000040189E+02 0.  0.
        -12    1    1    2    0    0 -0.78421778176E+01 -0.27468374529E+02  0.28933600715E+02  0.40659126928E+02  0.00000000000E+00 0.  1.
         11    1    3    3    0    0 -0.24148005519E+01  0.15755085967E+01 -0.21386814992E+01  0.35899091715E+01  0.51100000000E-03 0. -1.
        -11    1    3    3    0    0 -0.81987629560E+01  0.10434279224E+02 -0.41914421569E+01  0.13916252533E+02  0.51100000000E-03 0.  1.
         12    1    3    3    0    0  0.18455741325E+02  0.15458586708E+02 -0.22603477059E+02  0.33022711367E+02  0.00000000000E+00 0. -1.
</event>
<event>
 7    1  0.2903212E-011  0.5052886E+02  0.7816164E-02  0.1300439E+00
        -11   -1    0    0    0    0  0.00000000000E+00  0.00000000000E+00  0.45593999997E+02  0.45594000000E+02  0.51100000000E-03 0. -1.
         11   -1    0    0    0    0 -0.00000000000E+00 -0.00000000000E+00 -0.45593999997E+02  0.45594000000E+02  0.51100000000E-03 0.  1.
    9900012    2    1    2    0    0 -0.25959003502E+02 -0.65542424597E+01  0.30599632749E+02  0.50528862265E+02  0.30000007339E+02 0.  0.
        -12    1    1    2    0    0  0.25959003502E+02  0.65542424597E+01 -0.30599632749E+02  0.40659137735E+02  0.00000000000E+00 0.  1.
         11    1    3    3    0    0 -0.10744933511E+01 -0.25237286359E+01  0.11557414604E+02  0.11878450016E+02  0.51100000000E-03 0. -1.
        -11    1    3    3    0    0  0.34045047277E+01  0.29287063586E+01  0.28798247578E+01  0.53349193315E+01  0.51100000000E-03 0.  1.
        -12    1    3    3    0    0 -0.28289014878E+02 -0.69592201824E+01  0.16162393387E+02  0.33315492918E+02  0.00000000000E+00 0.  1.
</event>
<event>
 7    1  0.2903212E-011  0.5052884E+02  0.7816164E-02  0.1300439E+00
        -11   -1    0    0    0    0  0.00000000000E+00  0.00000000000E+00  0.45593999997E+02  0.45594000000E+02  0.51100000000E-03 0.  1.
         11   -1    0    0    0    0 -0.00000000000E+00 -0.00000000000E+00 -0.45593999997E+02  0.45594000000E+02  0.51100000000E-03 0. -1.
    9900012    2    1    2    0    0  0.18316820541E+02 -0.60386758558E+01 -0.35793789574E+02  0.50528844906E+02  0.29999954578E+02 0.  0.
        -12    1    1    2    0    0 -0.18316820541E+02  0.60386758558E+01  0.35793789574E+02  0.40659155094E+02  0.00000000000E+00 0.  1.
         11    1    3    3    0    0  0.13148525317E+01  0.36161901134E+01  0.38010120513E+00  0.38665417758E+01  0.51100000000E-03 0. -1.
        -11    1    3    3    0    0  0.63004411299E+01  0.17475440884E+00  0.13301539773E+01  0.64416928986E+01  0.51100000000E-03 0.  1.
         12    1    3    3    0    0  0.10701526879E+02 -0.98296203780E+01 -0.37504044757E+02  0.40220610232E+02  0.00000000000E+00 0. -1.
</event>
<event>
 7    1  0.2903212E-011  0.5052894E+02  0.7816164E-02  0.1300439E+00
        -11   -1    0    0    0    0  0.00000000000E+00  0.00000000000E+00  0.45593999997E+02  0.45594000000E+02  0.51100000000E-03 0.  1.
         11   -1    0    0    0    0 -0.00000000000E+00 -0.00000000000E+00 -0.45593999997E+02  0.45594000000E+02  0.51100000000E-03 0. -1.
    9900012    2    1    2    0    0  0.36271919077E+02 -0.18183786041E+02  0.26186535079E+01  0.50528935396E+02  0.30000229629E+02 0.  0.
        -12    1    1    2    0    0 -0.36271919077E+02  0.18183786041E+02 -0.26186535079E+01  0.40659064604E+02  0.00000000000E+00 0.  1.
         11    1    3    3    0    0  0.30519972813E+02 -0.16252315824E+02  0.64482171043E+01  0.35173655116E+02  0.51100000000E-03 0. -1.
        -11    1    3    3    0    0  0.98648794125E+01 -0.32495227780E+01 -0.16467076730E+01  0.10516030170E+02  0.51100000000E-03 0.  1.
        -12    1    3    3    0    0 -0.41129331492E+01  0.13180525611E+01 -0.21828559234E+01  0.48392501098E+01  0.00000000000E+00 0.  1.
</event>
<event>
 7    1  0.2903212E-011  0.5052886E+02  0.7816164E-02  0.1300439E+00
        -11   -1    0    0    0    0  0.00000000000E+00  0.00000000000E+00  0.45593999997E+02  0.45594000000E+02  0.51100000000E-03 0.  1.
         11   -1    0    0    0    0 -0.00000000000E+00 -0.00000000000E+00 -0.45593999997E+02  0.45594000000E+02  0.51100000000E-03 0. -1.
    9900012    2    1    2    0    0 -0.40676685718E+01  0.40449670134E+02 -0.66618278456E+00  0.50528861531E+02  0.30000005109E+02 0.  0.
        -12    1    1    2    0    0  0.40676685718E+01 -0.40449670134E+02  0.66618278456E+00  0.40659138469E+02  0.00000000000E+00 0.  1.
         11    1    3    3    0    0  0.82456852266E+01  0.26790116469E+02  0.44931998534E+01  0.28388210765E+02  0.51100000000E-03 0. -1.
        -11    1    3    3    0    0 -0.17723722936E+01  0.71784861437E+01  0.22364394929E+01  0.77248707904E+01  0.51100000000E-03 0.  1.
        -12    1    3    3    0    0 -0.10540981505E+02  0.64810675212E+01 -0.73958221309E+01  0.14415779975E+02  0.00000000000E+00 0.  1.
</event>
<event>
 7    1  0.2903212E-011  0.5052886E+02  0.7816164E-02  0.1300439E+00
        -11   -1    0    0    0    0  0.00000000000E+00  0.00000000000E+00  0.45593999997E+02  0.45594000000E+02  0.51100000000E-03 0.  1.
         11   -1    0    0    0    0 -0.00000000000E+00 -0.00000000000E+00 -0.45593999997E+02  0.45594000000E+02  0.51100000000E-03 0. -1.
    9900012    2    1    2    0    0 -0.34627403926E+02  0.78871036563E+01 -0.19796523271E+02  0.50528857851E+02  0.29999993922E+02 0.  0.
        -12    1    1    2    0    0  0.34627403926E+02 -0.78871036563E+01  0.19796523271E+02  0.40659142149E+02  0.00000000000E+00 0.  1.
         11    1    3    3    0    0 -0.92565313911E+01  0.85065477736E+01 -0.14363816953E+02  0.19088320149E+02  0.51100000000E-03 0. -1.
        -11    1    3    3    0    0 -0.57420413131E+01 -0.25054735906E+01 -0.94289056956E+01  0.11320454904E+02  0.51100000000E-03 0.  1.
         12    1    3    3    0    0 -0.19628831222E+02  0.18860294733E+01  0.39961993774E+01  0.20120082797E+02  0.00000000000E+00 0. -1.
</event>
<event>
 7    1  0.2903212E-011  0.5052885E+02  0.7816164E-02  0.1300439E+00
        -11   -1    0    0    0    0  0.00000000000E+00  0.00000000000E+00  0.45593999997E+02  0.45594000000E+02  0.51100000000E-03 0.  1.
         11   -1    0    0    0    0 -0.00000000000E+00 -0.00000000000E+00 -0.45593999997E+02  0.45594000000E+02  0.51100000000E-03 0. -1.
    9900012    2    1    2    0    0  0.38343572530E+02  0.81564284336E+01  0.10789309991E+02  0.50528854790E+02  0.29999984619E+02 0.  0.
        -12    1    1    2    0    0 -0.38343572530E+02 -0.81564284336E+01 -0.10789309991E+02  0.40659145210E+02  0.00000000000E+00 0.  1.
         11    1    3    3    0    0  0.10478191267E+02 -0.31901910228E+01  0.84715109037E+01  0.13846888035E+02  0.51100000000E-03 0.  1.
        -11    1    3    3    0    0  0.16029325500E+02  0.29648551522E+01 -0.86913931628E+01  0.18473493374E+02  0.51100000000E-03 0. -1.
         12    1    3    3    0    0  0.11836055763E+02  0.83817643043E+01  0.11009192250E+02  0.18208473381E+02  0.00000000000E+00 0. -1.
</event>
<event>
 7    1  0.2903212E-011  0.5052889E+02  0.7816164E-02  0.1300439E+00
        -11   -1    0    0    0    0  0.00000000000E+00  0.00000000000E+00  0.45593999997E+02  0.45594000000E+02  0.51100000000E-03 0.  1.
         11   -1    0    0    0    0 -0.00000000000E+00 -0.00000000000E+00 -0.45593999997E+02  0.45594000000E+02  0.51100000000E-03 0. -1.
    9900012    2    1    2    0    0 -0.21728947777E+02  0.32677949624E+02 -0.10638028927E+02  0.50528890042E+02  0.30000091771E+02 0.  0.
        -12    1    1    2    0    0  0.21728947777E+02 -0.32677949624E+02  0.10638028927E+02  0.40659109958E+02  0.00000000000E+00 0.  1.
         11    1    3    3    0    0 -0.86072968986E+00  0.10120759672E+02 -0.11480831974E+02  0.15329061779E+02  0.51100000000E-03 0. -1.
        -11    1    3    3    0    0 -0.28907663787E+01  0.11259748225E+02 -0.57473680464E+01  0.12968064623E+02  0.51100000000E-03 0.  1.
         12    1    3    3    0    0 -0.17977451709E+02  0.11297441727E+02  0.65901710932E+01  0.22231763640E+02  0.00000000000E+00 0. -1.
</event>
<event>
 7    1  0.2903212E-011  0.5052886E+02  0.7816164E-02  0.1300439E+00
        -11   -1    0    0    0    0  0.00000000000E+00  0.00000000000E+00  0.45593999997E+02  0.45594000000E+02  0.51100000000E-03 0.  1.
         11   -1    0    0    0    0 -0.00000000000E+00 -0.00000000000E+00 -0.45593999997E+02  0.45594000000E+02  0.51100000000E-03 0. -1.
    9900012    2    1    2    0    0 -0.32409153548E+02 -0.18521178530E+02 -0.16117640312E+02  0.50528860596E+02  0.30000002267E+02 0.  0.
        -12    1    1    2    0    0  0.32409153548E+02  0.18521178530E+02  0.16117640312E+02  0.40659139404E+02  0.00000000000E+00 0.  1.
         11    1    3    3    0    0 -0.19948239251E+02 -0.14211368731E+02 -0.10592994033E+02  0.26685328802E+02  0.51100000000E-03 0. -1.
        -11    1    3    3    0    0 -0.12523111270E+02 -0.25371360410E+01 -0.11757087391E+02  0.17363596383E+02  0.51100000000E-03 0.  1.
        -12    1    3    3    0    0  0.62196971908E-01 -0.17726737581E+01  0.62324411124E+01  0.64799354114E+01  0.00000000000E+00 0.  1.
</event>
<event>
 7    1  0.2903212E-011  0.5052888E+02  0.7816164E-02  0.1300439E+00
        -11   -1    0    0    0    0  0.00000000000E+00  0.00000000000E+00  0.45593999997E+02  0.45594000000E+02  0.51100000000E-03 0. -1.
         11   -1    0    0    0    0 -0.00000000000E+00 -0.00000000000E+00 -0.45593999997E+02  0.45594000000E+02  0.51100000000E-03 0.  1.
    9900012    2    1    2    0    0 -0.40500228593E+02 -0.73698515718E+00 -0.35145801238E+01  0.50528881260E+02  0.30000065079E+02 0.  0.
        -12    1    1    2    0    0  0.40500228593E+02  0.73698515718E+00  0.35145801238E+01  0.40659118740E+02  0.00000000000E+00 0.  1.
         11    1    3    3    0    0 -0.21217055601E+02  0.69979946713E+01 -0.73864389904E+01  0.23530721600E+02  0.51100000000E-03 0. -1.
        -11    1    3    3    0    0 -0.91982380198E+01  0.29885288536E+01 -0.38084039897E+01  0.10394365233E+02  0.51100000000E-03 0.  1.
        -12    1    3    3    0    0 -0.10084934973E+02 -0.10723508682E+02  0.76802628563E+01  0.16603794428E+02  0.00000000000E+00 0.  1.
</event>
<event>
 7    1  0.2903212E-011  0.5052886E+02  0.7816164E-02  0.1300439E+00
        -11   -1    0    0    0    0  0.00000000000E+00  0.00000000000E+00  0.45593999997E+02  0.45594000000E+02  0.51100000000E-03 0.  1.
         11   -1    0    0    0    0 -0.00000000000E+00 -0.00000000000E+00 -0.45593999997E+02  0.45594000000E+02  0.51100000000E-03 0. -1.
    9900012    2    1    2    0    0 -0.11150948906E+02 -0.39066266410E+02 -0.16274834924E+01  0.50528861602E+02  0.30000005325E+02 0.  0.
        -12    1    1    2    0    0  0.11150948906E+02  0.39066266410E+02  0.16274834924E+01  0.40659138398E+02  0.00000000000E+00 0.  1.
         11    1    3    3    0    0 -0.71773788183E+01 -0.10289225720E+02  0.42252519164E+01  0.13237661676E+02  0.51100000000E-03 0. -1.
        -11    1    3    3    0    0 -0.40163160475E+01 -0.10159957051E+02  0.84522603160E+01  0.13812900730E+02  0.51100000000E-03 0.  1.
         12    1    3    3    0    0  0.42745959464E-01 -0.18617083639E+02 -0.14304995725E+02  0.23478299196E+02  0.00000000000E+00 0. -1.
</event>
<event>
 7    1  0.2903212E-011  0.5052887E+02  0.7816164E-02  0.1300439E+00
        -11   -1    0    0    0    0  0.00000000000E+00  0.00000000000E+00  0.45593999997E+02  0.45594000000E+02  0.51100000000E-03 0.  1.
         11   -1    0    0    0    0 -0.00000000000E+00 -0.00000000000E+00 -0.45593999997E+02  0.45594000000E+02  0.51100000000E-03 0. -1.
    9900012    2    1    2    0    0 -0.26674891021E+02 -0.29938729290E+02  0.67296254628E+01  0.50528865954E+02  0.30000018554E+02 0.  0.
        -12    1    1    2    0    0  0.26674891021E+02  0.29938729290E+02 -0.67296254628E+01  0.40659134046E+02  0.00000000000E+00 0.  1.
         11    1    3    3    0    0 -0.67203572233E+01 -0.70300231837E+01  0.73354614267E+01  0.12181683865E+02  0.51100000000E-03 0. -1.
        -11    1    3    3    0    0 -0.50826394594E+00 -0.11187360442E+01  0.78473425857E+01  0.79429647169E+01  0.51100000000E-03 0.  1.
         12    1    3    3    0    0 -0.19446269852E+02 -0.21789970062E+02 -0.84531785496E+01  0.30404217373E+02  0.00000000000E+00 0. -1.
</event>
<event>
 7    1  0.2903212E-011  0.5052885E+02  0.7816164E-02  0.1300439E+00
        -11   -1    0    0    0    0  0.00000000000E+00  0.00000000000E+00  0.45593999997E+02  0.45594000000E+02  0.51100000000E-03 0.  1.
         11   -1    0    0    0    0 -0.00000000000E+00 -0.00000000000E+00 -0.45593999997E+02  0.45594000000E+02  0.51100000000E-03 0. -1.
    9900012    2    1    2    0    0  0.38549835856E+02 -0.27243052961E+01 -0.12635464790E+02  0.50528847840E+02  0.29999963496E+02 0.  0.
        -12    1    1    2    0    0 -0.38549835856E+02  0.27243052961E+01  0.12635464790E+02  0.40659152160E+02  0.00000000000E+00 0.  1.
         11    1    3    3    0    0  0.10750504124E+02  0.56484450741E+01 -0.71429394479E+01  0.14088997654E+02  0.51100000000E-03 0. -1.
        -11    1    3    3    0    0  0.15267496338E+02  0.53219957373E+01  0.22545589987E+01  0.16324923265E+02  0.51100000000E-03 0.  1.
         12    1    3    3    0    0  0.12531835394E+02 -0.13694746107E+02 -0.77470843409E+01  0.20114926922E+02  0.00000000000E+00 0. -1.
</event>
<event>
 7    1  0.2903212E-011  0.5052887E+02  0.7816164E-02  0.1300439E+00
        -11   -1    0    0    0    0  0.00000000000E+00  0.00000000000E+00  0.45593999997E+02  0.45594000000E+02  0.51100000000E-03 0.  1.
         11   -1    0    0    0    0 -0.00000000000E+00 -0.00000000000E+00 -0.45593999997E+02  0.45594000000E+02  0.51100000000E-03 0. -1.
    9900012    2    1    2    0    0 -0.21787970623E+02 -0.90757035597E+01 -0.33107115096E+02  0.50528866599E+02  0.30000020515E+02 0.  0.
        -12    1    1    2    0    0  0.21787970623E+02  0.90757035597E+01  0.33107115096E+02  0.40659133401E+02  0.00000000000E+00 0.  1.
         11    1    3    3    0    0 -0.67659953085E+01 -0.43346832988E+01 -0.14916544449E+02  0.16943183596E+02  0.51100000000E-03 0. -1.
        -11    1    3    3    0    0 -0.16564677168E+02 -0.80897194308E+01 -0.21715375887E+02  0.28484901972E+02  0.51100000000E-03 0.  1.
        -12    1    3    3    0    0  0.15427018540E+01  0.33486991699E+01  0.35248052407E+01  0.51007810310E+01  0.00000000000E+00 0.  1.
</event>
<event>
 7    1  0.2903212E-011  0.5052886E+02  0.7816164E-02  0.1300439E+00
        -11   -1    0    0    0    0  0.00000000000E+00  0.00000000000E+00  0.45593999997E+02  0.45594000000E+02  0.51100000000E-03 0.  1.
         11   -1    0    0    0    0 -0.00000000000E+00 -0.00000000000E+00 -0.45593999997E+02  0.45594000000E+02  0.51100000000E-03 0. -1.
    9900012    2    1    2    0    0  0.19916630436E+02  0.20456529564E+02 -0.28948646482E+02  0.50528857081E+02  0.29999991585E+02 0.  0.
        -12    1    1    2    0    0 -0.19916630436E+02 -0.20456529564E+02  0.28948646482E+02  0.40659142919E+02  0.00000000000E+00 0.  1.
         11    1    3    3    0    0  0.22284576131E+02  0.86720266585E+01 -0.26453515318E+02  0.35659428664E+02  0.51100000000E-03 0. -1.
        -11    1    3    3    0    0 -0.75239234563E+00 -0.10211503064E+00 -0.27681722746E+01  0.28704180400E+01  0.51100000000E-03 0.  1.
        -12    1    3    3    0    0 -0.16155533499E+01  0.11886617936E+02  0.27304111015E+00  0.11999010377E+02  0.00000000000E+00 0.  1.
</event>
<event>
 7    1  0.2903212E-011  0.5052886E+02  0.7816164E-02  0.1300439E+00
        -11   -1    0    0    0    0  0.00000000000E+00  0.00000000000E+00  0.45593999997E+02  0.45594000000E+02  0.51100000000E-03 0.  1.
         11   -1    0    0    0    0 -0.00000000000E+00 -0.00000000000E+00 -0.45593999997E+02  0.45594000000E+02  0.51100000000E-03 0. -1.
    9900012    2    1    2    0    0  0.32355354909E+02  0.24592071624E+02 -0.12355391058E+01  0.50528861606E+02  0.30000005337E+02 0.  0.
        -12    1    1    2    0    0 -0.32355354909E+02 -0.24592071624E+02  0.12355391058E+01  0.40659138394E+02  0.00000000000E+00 0.  1.
         11    1    3    3    0    0 -0.27737391808E+00  0.15959966844E+01 -0.25533543634E+01  0.30238651546E+01  0.51100000000E-03 0. -1.
        -11    1    3    3    0    0  0.35765149062E+01 -0.27770647350E+01 -0.64652253262E+01  0.78932050649E+01  0.51100000000E-03 0.  1.
         12    1    3    3    0    0  0.29056213921E+02  0.25773139674E+02  0.77830405838E+01  0.39611791386E+02  0.00000000000E+00 0. -1.
</event>
<event>
 7    1  0.2903212E-011  0.5052886E+02  0.7816164E-02  0.1300439E+00
        -11   -1    0    0    0    0  0.00000000000E+00  0.00000000000E+00  0.45593999997E+02  0.45594000000E+02  0.51100000000E-03 0. -1.
         11   -1    0    0    0    0 -0.00000000000E+00 -0.00000000000E+00 -0.45593999997E+02  0.45594000000E+02  0.51100000000E-03 0.  1.
    9900012    2    1    2    0    0 -0.16097517064E+02  0.15042414101E+02  0.34172526141E+02  0.50528858095E+02  0.29999994664E+02 0.  0.
        -12    1    1    2    0    0  0.16097517064E+02 -0.15042414101E+02 -0.34172526141E+02  0.40659141905E+02  0.00000000000E+00 0.  1.
         11    1    3    3    0    0 -0.56941725761E+01  0.14450963367E+02  0.13566540155E+02  0.20622923061E+02  0.51100000000E-03 0. -1.
        -11    1    3    3    0    0 -0.61846497803E+01  0.56518220496E+00 -0.22940233996E+01  0.66205639826E+01  0.51100000000E-03 0.  1.
         12    1    3    3    0    0 -0.42186947074E+01  0.26268528737E-01  0.22900009386E+02  0.23285371050E+02  0.00000000000E+00 0. -1.
</event>
<event>
 7    1  0.2903212E-011  0.5052883E+02  0.7816164E-02  0.1300439E+00
        -11   -1    0    0    0    0  0.00000000000E+00  0.00000000000E+00  0.45593999997E+02  0.45594000000E+02  0.51100000000E-03 0. -1.
         11   -1    0    0    0    0 -0.00000000000E+00 -0.00000000000E+00 -0.45593999997E+02  0.45594000000E+02  0.51100000000E-03 0.  1.
    9900012    2    1    2    0    0 -0.34045081446E+02  0.19824160592E+02  0.10055004864E+02  0.50528830841E+02  0.29999911825E+02 0.  0.
        -12    1    1    2    0    0  0.34045081446E+02 -0.19824160592E+02 -0.10055004864E+02  0.40659169159E+02  0.00000000000E+00 0.  1.
         11    1    3    3    0    0 -0.19385129849E+02  0.59023100164E+01 -0.16019298933E+01  0.20326994427E+02  0.51100000000E-03 0. -1.
        -11    1    3    3    0    0 -0.12528196244E+02 -0.73526475933E+00  0.25238732590E+01  0.12801025423E+02  0.51100000000E-03 0.  1.
        -12    1    3    3    0    0 -0.21317553534E+01  0.14657115335E+02  0.91330614988E+01  0.17400810992E+02  0.00000000000E+00 0.  1.
</event>
<event>
 7    1  0.2903212E-011  0.5052886E+02  0.7816164E-02  0.1300439E+00
        -11   -1    0    0    0    0  0.00000000000E+00  0.00000000000E+00  0.45593999997E+02  0.45594000000E+02  0.51100000000E-03 0.  1.
         11   -1    0    0    0    0 -0.00000000000E+00 -0.00000000000E+00 -0.45593999997E+02  0.45594000000E+02  0.51100000000E-03 0. -1.
    9900012    2    1    2    0    0 -0.32993342398E+01 -0.32599670732E+02 -0.24073667275E+02  0.50528860875E+02  0.30000003116E+02 0.  0.
        -12    1    1    2    0    0  0.32993342398E+01  0.32599670732E+02  0.24073667275E+02  0.40659139125E+02  0.00000000000E+00 0.  1.
         11    1    3    3    0    0  0.57597910768E+01 -0.40571300777E+01 -0.42265799304E+01  0.82158064659E+01  0.51100000000E-03 0. -1.
        -11    1    3    3    0    0  0.16409728170E+01 -0.20215828248E+01 -0.12524544667E+02  0.12792333965E+02  0.51100000000E-03 0.  1.
        -12    1    3    3    0    0 -0.10700098134E+02 -0.26520957830E+02 -0.73225426784E+01  0.29520720444E+02  0.00000000000E+00 0.  1.
</event>
<event>
 7    1  0.2903212E-011  0.5052886E+02  0.7816164E-02  0.1300439E+00
        -11   -1    0    0    0    0  0.00000000000E+00  0.00000000000E+00  0.45593999997E+02  0.45594000000E+02  0.51100000000E-03 0. -1.
         11   -1    0    0    0    0 -0.00000000000E+00 -0.00000000000E+00 -0.45593999997E+02  0.45594000000E+02  0.51100000000E-03 0.  1.
    9900012    2    1    2    0    0  0.19641721960E+02  0.29605321484E+01  0.35476805861E+02  0.50528859007E+02  0.29999997439E+02 0.  0.
        -12    1    1    2    0    0 -0.19641721960E+02 -0.29605321484E+01 -0.35476805861E+02  0.40659140993E+02  0.00000000000E+00 0.  1.
         11    1    3    3    0    0  0.63230696063E+01  0.52497081247E+01  0.75674615865E+01  0.11171710691E+02  0.51100000000E-03 0. -1.
        -11    1    3    3    0    0  0.30437700740E+01  0.70434779545E+01 -0.55051160107E+00  0.76927356150E+01  0.51100000000E-03 0.  1.
         12    1    3    3    0    0  0.10274882280E+02 -0.93326539307E+01  0.28459855876E+02  0.31664412701E+02  0.00000000000E+00 0. -1.
</event>
<event>
 7    1  0.2903212E-011  0.5052886E+02  0.7816164E-02  0.1300439E+00
        -11   -1    0    0    0    0  0.00000000000E+00  0.00000000000E+00  0.45593999997E+02  0.45594000000E+02  0.51100000000E-03 0.  1.
         11   -1    0    0    0    0 -0.00000000000E+00 -0.00000000000E+00 -0.45593999997E+02  0.45594000000E+02  0.51100000000E-03 0. -1.
    9900012    2    1    2    0    0 -0.33315454454E+02  0.75257711370E+01 -0.22059213684E+02  0.50528860253E+02  0.30000001224E+02 0.  0.
        -12    1    1    2    0    0  0.33315454454E+02 -0.75257711370E+01  0.22059213684E+02  0.40659139747E+02  0.00000000000E+00 0.  1.
         11    1    3    3    0    0 -0.40485490099E+01  0.84428550795E+01 -0.13118798163E+02  0.16117549953E+02  0.51100000000E-03 0. -1.
        -11    1    3    3    0    0  0.77652902302E+00  0.26657108060E+01  0.25588156555E+00  0.27882767189E+01  0.51100000000E-03 0.  1.
        -12    1    3    3    0    0 -0.30043434467E+02 -0.35827947484E+01 -0.91962970866E+01  0.31623033581E+02  0.00000000000E+00 0.  1.
</event>
<event>
 7    1  0.2903212E-011  0.5052886E+02  0.7816164E-02  0.1300439E+00
        -11   -1    0    0    0    0  0.00000000000E+00  0.00000000000E+00  0.45593999997E+02  0.45594000000E+02  0.51100000000E-03 0.  1.
         11   -1    0    0    0    0 -0.00000000000E+00 -0.00000000000E+00 -0.45593999997E+02  0.45594000000E+02  0.51100000000E-03 0. -1.
    9900012    2    1    2    0    0  0.37350092275E+01 -0.26346133356E+02 -0.30742423474E+02  0.50528860341E+02  0.30000001493E+02 0.  0.
        -12    1    1    2    0    0 -0.37350092275E+01  0.26346133356E+02  0.30742423474E+02  0.40659139659E+02  0.00000000000E+00 0.  1.
         11    1    3    3    0    0  0.29578944640E+01 -0.72983922257E+01  0.17857381736E+01  0.80749321871E+01  0.51100000000E-03 0.  1.
        -11    1    3    3    0    0  0.47616197838E+01 -0.13496968881E+02 -0.68216799428E+01  0.15854857598E+02  0.51100000000E-03 0. -1.
         12    1    3    3    0    0 -0.39845050203E+01 -0.55507722488E+01 -0.25706481705E+02  0.26599070556E+02  0.00000000000E+00 0. -1.
</event>
<event>
 7    1  0.2903212E-011  0.5052885E+02  0.7816164E-02  0.1300439E+00
        -11   -1    0    0    0    0  0.00000000000E+00  0.00000000000E+00  0.45593999997E+02  0.45594000000E+02  0.51100000000E-03 0. -1.
         11   -1    0    0    0    0 -0.00000000000E+00 -0.00000000000E+00 -0.45593999997E+02  0.45594000000E+02  0.51100000000E-03 0.  1.
    9900012    2    1    2    0    0  0.15892067888E+02  0.23906068468E+02 -0.28794238255E+02  0.50528854804E+02  0.29999984662E+02 0.  0.
        -12    1    1    2    0    0 -0.15892067888E+02 -0.23906068468E+02  0.28794238255E+02  0.40659145196E+02  0.00000000000E+00 0.  1.
         11    1    3    3    0    0 -0.28298464741E+01  0.83028562798E+00 -0.19047321499E+01  0.35107563451E+01  0.51100000000E-03 0.  1.
        -11    1    3    3    0    0  0.94741096869E+01 -0.15847910904E+01 -0.32629967419E+00  0.96112844562E+01  0.51100000000E-03 0. -1.
         12    1    3    3    0    0  0.92478046756E+01  0.24660573931E+02 -0.26563206431E+02  0.37406814003E+02  0.00000000000E+00 0. -1.
</event>
<event>
 7    1  0.2903212E-011  0.5052886E+02  0.7816164E-02  0.1300439E+00
        -11   -1    0    0    0    0  0.00000000000E+00  0.00000000000E+00  0.45593999997E+02  0.45594000000E+02  0.51100000000E-03 0.  1.
         11   -1    0    0    0    0 -0.00000000000E+00 -0.00000000000E+00 -0.45593999997E+02  0.45594000000E+02  0.51100000000E-03 0. -1.
    9900012    2    1    2    0    0  0.24825188407E+02 -0.31923293842E+02  0.42165363143E+01  0.50528857761E+02  0.29999993650E+02 0.  0.
        -12    1    1    2    0    0 -0.24825188407E+02  0.31923293842E+02 -0.42165363143E+01  0.40659142239E+02  0.00000000000E+00 0.  1.
         11    1    3    3    0    0  0.13674831120E+02 -0.17091910592E+02 -0.71919976216E+01  0.23040382894E+02  0.51100000000E-03 0. -1.
        -11    1    3    3    0    0  0.63930736581E+01 -0.17277303606E+02  0.48978869259E+01  0.19062159040E+02  0.51100000000E-03 0.  1.
        -12    1    3    3    0    0  0.47572836293E+01  0.24459203564E+01  0.65106470101E+01  0.84263158266E+01  0.00000000000E+00 0.  1.
</event>
<event>
 7    1  0.2903212E-011  0.5052887E+02  0.7816164E-02  0.1300439E+00
        -11   -1    0    0    0    0  0.00000000000E+00  0.00000000000E+00  0.45593999997E+02  0.45594000000E+02  0.51100000000E-03 0. -1.
         11   -1    0    0    0    0 -0.00000000000E+00 -0.00000000000E+00 -0.45593999997E+02  0.45594000000E+02  0.51100000000E-03 0.  1.
    9900012    2    1    2    0    0 -0.40037868815E+02  0.63267696508E+01  0.31790389364E+01  0.50528865209E+02  0.30000016288E+02 0.  0.
        -12    1    1    2    0    0  0.40037868815E+02 -0.63267696508E+01 -0.31790389364E+01  0.40659134791E+02  0.00000000000E+00 0.  1.
         11    1    3    3    0    0 -0.23230600370E+02  0.15073797770E+00  0.73001003711E+01  0.24351077618E+02  0.51100000000E-03 0. -1.
        -11    1    3    3    0    0 -0.12168630673E+02  0.99234938432E+01  0.39036952802E+01  0.16179930149E+02  0.51100000000E-03 0.  1.
        -12    1    3    3    0    0 -0.46386377719E+01 -0.37474621701E+01 -0.80247567149E+01  0.99978574419E+01  0.00000000000E+00 0.  1.
</event>
<event>
 7    1  0.2903212E-011  0.5052886E+02  0.7816164E-02  0.1300439E+00
        -11   -1    0    0    0    0  0.00000000000E+00  0.00000000000E+00  0.45593999997E+02  0.45594000000E+02  0.51100000000E-03 0.  1.
         11   -1    0    0    0    0 -0.00000000000E+00 -0.00000000000E+00 -0.45593999997E+02  0.45594000000E+02  0.51100000000E-03 0. -1.
    9900012    2    1    2    0    0  0.15887712622E+02 -0.35768017241E+02 -0.11017960053E+02  0.50528856951E+02  0.29999991190E+02 0.  0.
        -12    1    1    2    0    0 -0.15887712622E+02  0.35768017241E+02  0.11017960053E+02  0.40659143049E+02  0.00000000000E+00 0.  1.
         11    1    3    3    0    0 -0.83772956161E+00 -0.35106646323E+00 -0.48491829709E+01  0.49335194564E+01  0.51100000000E-03 0.  1.
        -11    1    3    3    0    0  0.11923044315E+02 -0.23853641108E+02 -0.14693847355E+02  0.30447731118E+02  0.51100000000E-03 0. -1.
         12    1    3    3    0    0  0.48023978685E+01 -0.11563309670E+02  0.85250702731E+01  0.15147606377E+02  0.00000000000E+00 0. -1.
</event>
<event>
 7    1  0.2903212E-011  0.5052887E+02  0.7816164E-02  0.1300439E+00
        -11   -1    0    0    0    0  0.00000000000E+00  0.00000000000E+00  0.45593999997E+02  0.45594000000E+02  0.51100000000E-03 0.  1.
         11   -1    0    0    0    0 -0.00000000000E+00 -0.00000000000E+00 -0.45593999997E+02  0.45594000000E+02  0.51100000000E-03 0. -1.
    9900012    2    1    2    0    0  0.30438115186E+02 -0.13161306033E+02 -0.23525858907E+02  0.50528869785E+02  0.30000030198E+02 0.  0.
        -12    1    1    2    0    0 -0.30438115186E+02  0.13161306033E+02  0.23525858907E+02  0.40659130215E+02  0.00000000000E+00 0.  1.
         11    1    3    3    0    0  0.77491998862E+01 -0.13847248843E+02 -0.20284051523E+02  0.25753429788E+02  0.51100000000E-03 0. -1.
        -11    1    3    3    0    0  0.56972119511E+01 -0.37517370469E+01 -0.22607377386E+01  0.71864240251E+01  0.51100000000E-03 0.  1.
        -12    1    3    3    0    0  0.16991703348E+02  0.44376798573E+01 -0.98106964497E+00  0.17589015971E+02  0.00000000000E+00 0.  1.
</event>
<event>
 7    1  0.2903212E-011  0.5052884E+02  0.7816164E-02  0.1300439E+00
        -11   -1    0    0    0    0  0.00000000000E+00  0.00000000000E+00  0.45593999997E+02  0.45594000000E+02  0.51100000000E-03 0.  1.
         11   -1    0    0    0    0 -0.00000000000E+00 -0.00000000000E+00 -0.45593999997E+02  0.45594000000E+02  0.51100000000E-03 0. -1.
    9900012    2    1    2    0    0  0.68834193997E+01  0.38666395053E+02 -0.10521190990E+02  0.50528843234E+02  0.29999949495E+02 0.  0.
        -12    1    1    2    0    0 -0.68834193997E+01 -0.38666395053E+02  0.10521190990E+02  0.40659156766E+02  0.00000000000E+00 0.  1.
         11    1    3    3    0    0  0.35078198472E+01  0.34683789581E+02 -0.10423698686E+02  0.36385760324E+02  0.51100000000E-03 0. -1.
        -11    1    3    3    0    0  0.65026313629E+01  0.67421660620E+01  0.18374396155E+01  0.95455331151E+01  0.51100000000E-03 0.  1.
        -12    1    3    3    0    0 -0.31270318105E+01 -0.27595605894E+01 -0.19349319193E+01  0.45975497955E+01  0.00000000000E+00 0.  1.
</event>
<event>
 7    1  0.2903212E-011  0.5052885E+02  0.7816164E-02  0.1300439E+00
        -11   -1    0    0    0    0  0.00000000000E+00  0.00000000000E+00  0.45593999997E+02  0.45594000000E+02  0.51100000000E-03 0.  1.
         11   -1    0    0    0    0 -0.00000000000E+00 -0.00000000000E+00 -0.45593999997E+02  0.45594000000E+02  0.51100000000E-03 0. -1.
    9900012    2    1    2    0    0  0.30116010358E+02  0.47377975376E+01 -0.26902514612E+02  0.50528854684E+02  0.29999984296E+02 0.  0.
        -12    1    1    2    0    0 -0.30116010358E+02 -0.47377975376E+01  0.26902514612E+02  0.40659145316E+02  0.00000000000E+00 0.  1.
         11    1    3    3    0    0  0.27062556771E+02  0.37128172959E+01 -0.18925146156E+02  0.33231433140E+02  0.51100000000E-03 0. -1.
        -11    1    3    3    0    0  0.41011909130E+01  0.46677238682E+01  0.20776870716E+01  0.65516560383E+01  0.51100000000E-03 0.  1.
        -12    1    3    3    0    0 -0.10477373257E+01 -0.36427436265E+01 -0.10055055528E+02  0.10745765505E+02  0.00000000000E+00 0.  1.
</event>
<event>
 7    1  0.2903212E-011  0.5052885E+02  0.7816164E-02  0.1300439E+00
        -11   -1    0    0    0    0  0.00000000000E+00  0.00000000000E+00  0.45593999997E+02  0.45594000000E+02  0.51100000000E-03 0.  1.
         11   -1    0    0    0    0 -0.00000000000E+00 -0.00000000000E+00 -0.45593999997E+02  0.45594000000E+02  0.51100000000E-03 0. -1.
    9900012    2    1    2    0    0  0.30126510046E+02 -0.24766924659E+02  0.11496063009E+02  0.50528848148E+02  0.29999964430E+02 0.  0.
        -12    1    1    2    0    0 -0.30126510046E+02  0.24766924659E+02 -0.11496063009E+02  0.40659151852E+02  0.00000000000E+00 0.  1.
         11    1    3    3    0    0  0.11162969821E+02 -0.25487368008E+01  0.76451068724E+01  0.13767919736E+02  0.51100000000E-03 0. -1.
        -11    1    3    3    0    0  0.16243226267E+02 -0.22584140528E+01  0.22501433899E+01  0.16553125962E+02  0.51100000000E-03 0.  1.
         12    1    3    3    0    0  0.27203139585E+01 -0.19959773805E+02  0.16008127470E+01  0.20207802449E+02  0.00000000000E+00 0. -1.
</event>
<event>
 7    1  0.2903212E-011  0.5052886E+02  0.7816164E-02  0.1300439E+00
        -11   -1    0    0    0    0  0.00000000000E+00  0.00000000000E+00  0.45593999997E+02  0.45594000000E+02  0.51100000000E-03 0.  1.
         11   -1    0    0    0    0 -0.00000000000E+00 -0.00000000000E+00 -0.45593999997E+02  0.45594000000E+02  0.51100000000E-03 0. -1.
    9900012    2    1    2    0    0  0.15272402522E+02  0.12182630918E+01 -0.37662118462E+02  0.50528860673E+02  0.30000002501E+02 0.  0.
        -12    1    1    2    0    0 -0.15272402522E+02 -0.12182630918E+01  0.37662118462E+02  0.40659139327E+02  0.00000000000E+00 0.  1.
         11    1    3    3    0    0  0.52955110230E+01  0.71052646845E+01 -0.13970406513E+02  0.16543865378E+02  0.51100000000E-03 0. -1.
        -11    1    3    3    0    0  0.13702035428E+02  0.33729841282E+01 -0.11329799973E+02  0.18096606436E+02  0.51100000000E-03 0.  1.
         12    1    3    3    0    0 -0.37251439290E+01 -0.92599857209E+01 -0.12361911976E+02  0.15888388859E+02  0.00000000000E+00 0. -1.
</event>
<event>
 7    1  0.2903212E-011  0.5052884E+02  0.7816164E-02  0.1300439E+00
        -11   -1    0    0    0    0  0.00000000000E+00  0.00000000000E+00  0.45593999997E+02  0.45594000000E+02  0.51100000000E-03 0.  1.
         11   -1    0    0    0    0 -0.00000000000E+00 -0.00000000000E+00 -0.45593999997E+02  0.45594000000E+02  0.51100000000E-03 0. -1.
    9900012    2    1    2    0    0  0.21605786219E+02 -0.24995555507E+02 -0.23697660118E+02  0.50528844963E+02  0.29999954750E+02 0.  0.
        -12    1    1    2    0    0 -0.21605786219E+02  0.24995555507E+02  0.23697660118E+02  0.40659155037E+02  0.00000000000E+00 0.  1.
         11    1    3    3    0    0  0.46395863232E+00 -0.76660149816E+01 -0.36536718581E+01  0.85048434212E+01  0.51100000000E-03 0. -1.
        -11    1    3    3    0    0 -0.56619315193E+01 -0.43187218805E+01 -0.44207823078E+01  0.83816551877E+01  0.51100000000E-03 0.  1.
        -12    1    3    3    0    0  0.26803759106E+02 -0.13010818645E+02 -0.15623205952E+02  0.33642346354E+02  0.00000000000E+00 0.  1.
</event>
<event>
 7    1  0.2903212E-011  0.5052887E+02  0.7816164E-02  0.1300439E+00
        -11   -1    0    0    0    0  0.00000000000E+00  0.00000000000E+00  0.45593999997E+02  0.45594000000E+02  0.51100000000E-03 0. -1.
         11   -1    0    0    0    0 -0.00000000000E+00 -0.00000000000E+00 -0.45593999997E+02  0.45594000000E+02  0.51100000000E-03 0.  1.
    9900012    2    1    2    0    0 -0.31836532408E+02  0.84753963825E+01  0.23827870882E+02  0.50528873467E+02  0.30000041392E+02 0.  0.
        -12    1    1    2    0    0  0.31836532408E+02 -0.84753963825E+01 -0.23827870882E+02  0.40659126533E+02  0.00000000000E+00 0.  1.
         11    1    3    3    0    0 -0.48328487432E+01  0.17085635179E+01  0.23367153317E+01  0.56334585356E+01  0.51100000000E-03 0. -1.
        -11    1    3    3    0    0 -0.17585739671E+02 -0.88615400079E+01  0.50388888494E+01  0.20326719661E+02  0.51100000000E-03 0.  1.
        -12    1    3    3    0    0 -0.94179439942E+01  0.15628372872E+02  0.16452266701E+02  0.24568695271E+02  0.00000000000E+00 0.  1.
</event>
<event>
 7    1  0.2903212E-011  0.5052888E+02  0.7816164E-02  0.1300439E+00
        -11   -1    0    0    0    0  0.00000000000E+00  0.00000000000E+00  0.45593999997E+02  0.45594000000E+02  0.51100000000E-03 0.  1.
         11   -1    0    0    0    0 -0.00000000000E+00 -0.00000000000E+00 -0.45593999997E+02  0.45594000000E+02  0.51100000000E-03 0. -1.
    9900012    2    1    2    0    0 -0.41809241778E+01  0.34322114892E+02 -0.21393365923E+02  0.50528882903E+02  0.30000070071E+02 0.  0.
        -12    1    1    2    0    0  0.41809241778E+01 -0.34322114892E+02  0.21393365923E+02  0.40659117097E+02  0.00000000000E+00 0.  1.
         11    1    3    3    0    0  0.14005475196E+01  0.59525616494E+00 -0.89313600203E+01  0.90600803158E+01  0.51100000000E-03 0. -1.
        -11    1    3    3    0    0  0.48395042285E+01  0.18094282952E+01  0.10570400202E+01  0.52737240920E+01  0.51100000000E-03 0.  1.
         12    1    3    3    0    0 -0.10420975926E+02  0.31917430431E+02 -0.13519045923E+02  0.36195078495E+02  0.00000000000E+00 0. -1.
</event>
<event>
 7    1  0.2903212E-011  0.5052886E+02  0.7816164E-02  0.1300439E+00
        -11   -1    0    0    0    0  0.00000000000E+00  0.00000000000E+00  0.45593999997E+02  0.45594000000E+02  0.51100000000E-03 0. -1.
         11   -1    0    0    0    0 -0.00000000000E+00 -0.00000000000E+00 -0.45593999997E+02  0.45594000000E+02  0.51100000000E-03 0.  1.
    9900012    2    1    2    0    0 -0.40326532336E+02 -0.20273108398E+01  0.47777125079E+01  0.50528859130E+02  0.29999997811E+02 0.  0.
        -12    1    1    2    0    0  0.40326532336E+02  0.20273108398E+01 -0.47777125079E+01  0.40659140870E+02  0.00000000000E+00 0.  1.
         11    1    3    3    0    0 -0.18000137240E+02 -0.63560387307E+00  0.75356784391E+01  0.19524225535E+02  0.51100000000E-03 0. -1.
        -11    1    3    3    0    0 -0.26273984812E+02 -0.29643752350E+01 -0.11643396808E+01  0.26466308499E+02  0.51100000000E-03 0.  1.
        -12    1    3    3    0    0  0.39475897157E+01  0.15726682683E+01 -0.15936262504E+01  0.45383250954E+01  0.00000000000E+00 0.  1.
</event>
<event>
 7    1  0.2903212E-011  0.5052886E+02  0.7816164E-02  0.1300439E+00
        -11   -1    0    0    0    0  0.00000000000E+00  0.00000000000E+00  0.45593999997E+02  0.45594000000E+02  0.51100000000E-03 0.  1.
         11   -1    0    0    0    0 -0.00000000000E+00 -0.00000000000E+00 -0.45593999997E+02  0.45594000000E+02  0.51100000000E-03 0. -1.
    9900012    2    1    2    0    0  0.11614495077E+02 -0.38363248124E+02  0.68213016238E+01  0.50528862548E+02  0.30000008201E+02 0.  0.
        -12    1    1    2    0    0 -0.11614495077E+02  0.38363248124E+02 -0.68213016238E+01  0.40659137452E+02  0.00000000000E+00 0.  1.
         11    1    3    3    0    0  0.32318196559E+01 -0.97147480945E+01 -0.34519303069E+01  0.10804481104E+02  0.51100000000E-03 0.  1.
        -11    1    3    3    0    0  0.16035324799E+02 -0.17813215353E+02  0.19114306414E+01  0.24043623895E+02  0.51100000000E-03 0. -1.
        -12    1    3    3    0    0 -0.76526493781E+01 -0.10835284676E+02  0.83618012893E+01  0.15680757549E+02  0.00000000000E+00 0.  1.
</event>
<event>
 7    1  0.2903212E-011  0.5052886E+02  0.7816164E-02  0.1300439E+00
        -11   -1    0    0    0    0  0.00000000000E+00  0.00000000000E+00  0.45593999997E+02  0.45594000000E+02  0.51100000000E-03 0.  1.
         11   -1    0    0    0    0 -0.00000000000E+00 -0.00000000000E+00 -0.45593999997E+02  0.45594000000E+02  0.51100000000E-03 0. -1.
    9900012    2    1    2    0    0 -0.14537085240E+01 -0.34517650310E+02 -0.21437915907E+02  0.50528859701E+02  0.29999999549E+02 0.  0.
        -12    1    1    2    0    0  0.14537085240E+01  0.34517650310E+02  0.21437915907E+02  0.40659140299E+02  0.00000000000E+00 0.  1.
         11    1    3    3    0    0  0.47836831562E+01 -0.10932776431E+02 -0.14646360780E+01  0.12023077149E+02  0.51100000000E-03 0. -1.
        -11    1    3    3    0    0  0.22985691548E+01  0.10573956932E+01 -0.10435082192E+02  0.10737432022E+02  0.51100000000E-03 0.  1.
        -12    1    3    3    0    0 -0.85359608350E+01 -0.24642269572E+02 -0.95381976377E+01  0.27768350531E+02  0.00000000000E+00 0.  1.
</event>
<event>
 7    1  0.2903212E-011  0.5052886E+02  0.7816164E-02  0.1300439E+00
        -11   -1    0    0    0    0  0.00000000000E+00  0.00000000000E+00  0.45593999997E+02  0.45594000000E+02  0.51100000000E-03 0.  1.
         11   -1    0    0    0    0 -0.00000000000E+00 -0.00000000000E+00 -0.45593999997E+02  0.45594000000E+02  0.51100000000E-03 0. -1.
    9900012    2    1    2    0    0 -0.99179115356E+01  0.18787890755E+02 -0.34667213802E+02  0.50528861778E+02  0.30000005859E+02 0.  0.
        -12    1    1    2    0    0  0.99179115356E+01 -0.18787890755E+02  0.34667213802E+02  0.40659138222E+02  0.00000000000E+00 0.  1.
         11    1    3    3    0    0 -0.93333623003E+01 -0.37974690423E+01 -0.68303018563E+01  0.12173144486E+02  0.51100000000E-03 0. -1.
        -11    1    3    3    0    0 -0.60732840183E+01  0.49044129585E+01 -0.70340674389E+01  0.10507908937E+02  0.51100000000E-03 0.  1.
         12    1    3    3    0    0  0.54887347830E+01  0.17680946838E+02 -0.20802844506E+02  0.27847808355E+02  0.00000000000E+00 0. -1.
</event>
<event>
 7    1  0.2903212E-011  0.5052886E+02  0.7816164E-02  0.1300439E+00
        -11   -1    0    0    0    0  0.00000000000E+00  0.00000000000E+00  0.45593999997E+02  0.45594000000E+02  0.51100000000E-03 0. -1.
         11   -1    0    0    0    0 -0.00000000000E+00 -0.00000000000E+00 -0.45593999997E+02  0.45594000000E+02  0.51100000000E-03 0.  1.
    9900012    2    1    2    0    0 -0.37778245196E+02 -0.75390339208E+01  0.13005102163E+02  0.50528861731E+02  0.30000005717E+02 0.  0.
        -12    1    1    2    0    0  0.37778245196E+02  0.75390339208E+01 -0.13005102163E+02  0.40659138269E+02  0.00000000000E+00 0.  1.
         11    1    3    3    0    0 -0.71728086356E+01 -0.83122688439E+01  0.26752660786E+01  0.11300444500E+02  0.51100000000E-03 0. -1.
        -11    1    3    3    0    0 -0.13470858243E+02 -0.74100052981E+01 -0.34625907416E+01  0.15759496668E+02  0.51100000000E-03 0.  1.
        -12    1    3    3    0    0 -0.17134578317E+02  0.81832402212E+01  0.13792426826E+02  0.23468920562E+02  0.00000000000E+00 0.  1.
</event>
<event>
 7    1  0.2903212E-011  0.5052886E+02  0.7816164E-02  0.1300439E+00
        -11   -1    0    0    0    0  0.00000000000E+00  0.00000000000E+00  0.45593999997E+02  0.45594000000E+02  0.51100000000E-03 0.  1.
         11   -1    0    0    0    0 -0.00000000000E+00 -0.00000000000E+00 -0.45593999997E+02  0.45594000000E+02  0.51100000000E-03 0. -1.
    9900012    2    1    2    0    0  0.33557513450E+02  0.94071928733E+01 -0.20941910822E+02  0.50528860614E+02  0.30000002322E+02 0.  0.
        -12    1    1    2    0    0 -0.33557513450E+02 -0.94071928733E+01  0.20941910822E+02  0.40659139386E+02  0.00000000000E+00 0.  1.
         11    1    3    3    0    0 -0.18595149075E+01  0.43910593165E+00 -0.98457860314E+00  0.21494196885E+01  0.51100000000E-03 0. -1.
        -11    1    3    3    0    0  0.12717077617E+01  0.49022702506E+01  0.40138575825E+01  0.64622401066E+01  0.51100000000E-03 0.  1.
         12    1    3    3    0    0  0.34145320596E+02  0.40658166910E+01 -0.23971189801E+02  0.41917200819E+02  0.00000000000E+00 0. -1.
</event>
<event>
 7    1  0.2903212E-011  0.5052885E+02  0.7816164E-02  0.1300439E+00
        -11   -1    0    0    0    0  0.00000000000E+00  0.00000000000E+00  0.45593999997E+02  0.45594000000E+02  0.51100000000E-03 0. -1.
         11   -1    0    0    0    0 -0.00000000000E+00 -0.00000000000E+00 -0.45593999997E+02  0.45594000000E+02  0.51100000000E-03 0.  1.
    9900012    2    1    2    0    0 -0.18146998239E+02 -0.23080354299E+01  0.36311517229E+02  0.50528845359E+02  0.29999955953E+02 0.  0.
        -12    1    1    2    0    0  0.18146998239E+02  0.23080354299E+01 -0.36311517229E+02  0.40659154641E+02  0.00000000000E+00 0.  1.
         11    1    3    3    0    0  0.36729528315E+01 -0.26972909942E+01  0.39117051235E-01  0.45571363392E+01  0.51100000000E-03 0.  1.
        -11    1    3    3    0    0 -0.38976427609E+01 -0.21550446964E+01  0.23248804940E+02  0.23671560323E+02  0.51100000000E-03 0. -1.
         12    1    3    3    0    0 -0.17922308310E+02  0.25443002607E+01  0.13023595238E+02  0.22300148697E+02  0.00000000000E+00 0. -1.
</event>
<event>
 7    1  0.2903212E-011  0.5052886E+02  0.7816164E-02  0.1300439E+00
        -11   -1    0    0    0    0  0.00000000000E+00  0.00000000000E+00  0.45593999997E+02  0.45594000000E+02  0.51100000000E-03 0.  1.
         11   -1    0    0    0    0 -0.00000000000E+00 -0.00000000000E+00 -0.45593999997E+02  0.45594000000E+02  0.51100000000E-03 0. -1.
    9900012    2    1    2    0    0 -0.25827795524E+02 -0.29512269928E+02 -0.10729231940E+02  0.50528861839E+02  0.30000006046E+02 0.  0.
        -12    1    1    2    0    0  0.25827795524E+02  0.29512269928E+02  0.10729231940E+02  0.40659138161E+02  0.00000000000E+00 0.  1.
         11    1    3    3    0    0 -0.17104033445E+02 -0.14462291865E+02 -0.12260373593E+02  0.25534733345E+02  0.51100000000E-03 0. -1.
        -11    1    3    3    0    0 -0.52139559328E+01  0.28240141123E+01  0.31367417732E+01  0.67081697496E+01  0.51100000000E-03 0.  1.
        -12    1    3    3    0    0 -0.35098061469E+01 -0.17873992175E+02 -0.16056001203E+01  0.18285958745E+02  0.00000000000E+00 0.  1.
</event>
<event>
 7    1  0.2903212E-011  0.5052887E+02  0.7816164E-02  0.1300439E+00
        -11   -1    0    0    0    0  0.00000000000E+00  0.00000000000E+00  0.45593999997E+02  0.45594000000E+02  0.51100000000E-03 0.  1.
         11   -1    0    0    0    0 -0.00000000000E+00 -0.00000000000E+00 -0.45593999997E+02  0.45594000000E+02  0.51100000000E-03 0. -1.
    9900012    2    1    2    0    0  0.25030157973E+02  0.51140760739E+01 -0.31630720427E+02  0.50528867484E+02  0.30000023205E+02 0.  0.
        -12    1    1    2    0    0 -0.25030157973E+02 -0.51140760739E+01  0.31630720427E+02  0.40659132516E+02  0.00000000000E+00 0.  1.
         11    1    3    3    0    0  0.82492812011E+01  0.58840795195E+01 -0.16968273750E+02  0.19763485179E+02  0.51100000000E-03 0. -1.
        -11    1    3    3    0    0  0.10306201606E+02  0.24964776623E+01 -0.19395796517E+02  0.22105363943E+02  0.51100000000E-03 0.  1.
        -12    1    3    3    0    0  0.64746751654E+01 -0.32664811079E+01  0.47333498398E+01  0.86600183621E+01  0.00000000000E+00 0.  1.
</event>
<event>
 7    1  0.2903212E-011  0.5052887E+02  0.7816164E-02  0.1300439E+00
        -11   -1    0    0    0    0  0.00000000000E+00  0.00000000000E+00  0.45593999997E+02  0.45594000000E+02  0.51100000000E-03 0.  1.
         11   -1    0    0    0    0 -0.00000000000E+00 -0.00000000000E+00 -0.45593999997E+02  0.45594000000E+02  0.51100000000E-03 0. -1.
    9900012    2    1    2    0    0 -0.24028076154E+02  0.20561506729E+01 -0.32735131944E+02  0.50528867414E+02  0.30000022990E+02 0.  0.
        -12    1    1    2    0    0  0.24028076154E+02 -0.20561506729E+01  0.32735131944E+02  0.40659132586E+02  0.00000000000E+00 0.  1.
         11    1    3    3    0    0 -0.40206210307E+01  0.45399748580E+01 -0.71053736397E+01  0.93414720469E+01  0.51100000000E-03 0. -1.
        -11    1    3    3    0    0  0.12253547768E+01  0.46649444573E+01 -0.16159765049E+02  0.16864198997E+02  0.51100000000E-03 0.  1.
         12    1    3    3    0    0 -0.21232809900E+02 -0.71487686424E+01 -0.94699932561E+01  0.24323196370E+02  0.00000000000E+00 0. -1.
</event>
<event>
 7    1  0.2903212E-011  0.5052886E+02  0.7816164E-02  0.1300439E+00
        -11   -1    0    0    0    0  0.00000000000E+00  0.00000000000E+00  0.45593999997E+02  0.45594000000E+02  0.51100000000E-03 0. -1.
         11   -1    0    0    0    0 -0.00000000000E+00 -0.00000000000E+00 -0.45593999997E+02  0.45594000000E+02  0.51100000000E-03 0.  1.
    9900012    2    1    2    0    0 -0.13225617385E+02  0.38395324016E+02  0.20119367016E+01  0.50528858951E+02  0.29999997269E+02 0.  0.
        -12    1    1    2    0    0  0.13225617385E+02 -0.38395324016E+02 -0.20119367016E+01  0.40659141049E+02  0.00000000000E+00 0.  1.
         11    1    3    3    0    0 -0.93628279818E+01  0.42183856053E+01 -0.46526303941E+01  0.11274054052E+02  0.51100000000E-03 0. -1.
        -11    1    3    3    0    0 -0.64465052231E+01  0.44742923764E+01 -0.22008000031E+01  0.81498615188E+01  0.51100000000E-03 0.  1.
         12    1    3    3    0    0  0.25837158201E+01  0.29702646035E+02  0.88653670988E+01  0.31104943380E+02  0.00000000000E+00 0. -1.
</event>
<event>
 7    1  0.2903212E-011  0.5052885E+02  0.7816164E-02  0.1300439E+00
        -11   -1    0    0    0    0  0.00000000000E+00  0.00000000000E+00  0.45593999997E+02  0.45594000000E+02  0.51100000000E-03 0. -1.
         11   -1    0    0    0    0 -0.00000000000E+00 -0.00000000000E+00 -0.45593999997E+02  0.45594000000E+02  0.51100000000E-03 0.  1.
    9900012    2    1    2    0    0 -0.21916037997E+02 -0.11871265626E+02  0.32123617108E+02  0.50528850413E+02  0.29999971315E+02 0.  0.
        -12    1    1    2    0    0  0.21916037997E+02  0.11871265626E+02 -0.32123617108E+02  0.40659149587E+02  0.00000000000E+00 0.  1.
         11    1    3    3    0    0 -0.16869447989E+02 -0.11917008165E+02  0.13865174893E+02  0.24876423259E+02  0.51100000000E-03 0. -1.
        -11    1    3    3    0    0 -0.62415685295E+01 -0.74480542469E+01  0.13711993014E+02  0.16806232250E+02  0.51100000000E-03 0.  1.
         12    1    3    3    0    0  0.11949785217E+01  0.74937967865E+01  0.45464492011E+01  0.88461949042E+01  0.00000000000E+00 0. -1.
</event>
<event>
 7    1  0.2903212E-011  0.5052885E+02  0.7816164E-02  0.1300439E+00
        -11   -1    0    0    0    0  0.00000000000E+00  0.00000000000E+00  0.45593999997E+02  0.45594000000E+02  0.51100000000E-03 0.  1.
         11   -1    0    0    0    0 -0.00000000000E+00 -0.00000000000E+00 -0.45593999997E+02  0.45594000000E+02  0.51100000000E-03 0. -1.
    9900012    2    1    2    0    0 -0.56051855693E+01  0.18444018639E+02 -0.35798970041E+02  0.50528853614E+02  0.29999981046E+02 0.  0.
        -12    1    1    2    0    0  0.56051855693E+01 -0.18444018639E+02  0.35798970041E+02  0.40659146386E+02  0.00000000000E+00 0.  1.
         11    1    3    3    0    0 -0.32965887023E+01  0.11665534999E+02 -0.10413181522E+02  0.15980818300E+02  0.51100000000E-03 0. -1.
        -11    1    3    3    0    0  0.31989715881E+01  0.13629178941E+02 -0.19357903905E+02  0.23889671025E+02  0.51100000000E-03 0.  1.
         12    1    3    3    0    0 -0.55075684551E+01 -0.68506953008E+01 -0.60278846148E+01  0.10658364289E+02  0.00000000000E+00 0. -1.
</event>
<event>
 7    1  0.2903212E-011  0.5052886E+02  0.7816164E-02  0.1300439E+00
        -11   -1    0    0    0    0  0.00000000000E+00  0.00000000000E+00  0.45593999997E+02  0.45594000000E+02  0.51100000000E-03 0. -1.
         11   -1    0    0    0    0 -0.00000000000E+00 -0.00000000000E+00 -0.45593999997E+02  0.45594000000E+02  0.51100000000E-03 0.  1.
    9900012    2    1    2    0    0  0.37745986293E+02  0.20998146848E+01  0.14966539578E+02  0.50528855765E+02  0.29999987584E+02 0.  0.
        -12    1    1    2    0    0 -0.37745986293E+02 -0.20998146848E+01 -0.14966539578E+02  0.40659144235E+02  0.00000000000E+00 0.  1.
         11    1    3    3    0    0  0.30114326114E+02  0.31027550334E+01  0.80078292420E+01  0.31314933427E+02  0.51100000000E-03 0. -1.
        -11    1    3    3    0    0  0.12338827062E+02 -0.30803816634E+01  0.43176841476E+01  0.13430480301E+02  0.51100000000E-03 0.  1.
         12    1    3    3    0    0 -0.47071668822E+01  0.20774413148E+01  0.26410261886E+01  0.57834420376E+01  0.00000000000E+00 0. -1.
</event>
<event>
 7    1  0.2903212E-011  0.5052886E+02  0.7816164E-02  0.1300439E+00
        -11   -1    0    0    0    0  0.00000000000E+00  0.00000000000E+00  0.45593999997E+02  0.45594000000E+02  0.51100000000E-03 0.  1.
         11   -1    0    0    0    0 -0.00000000000E+00 -0.00000000000E+00 -0.45593999997E+02  0.45594000000E+02  0.51100000000E-03 0. -1.
    9900012    2    1    2    0    0 -0.54607886468E+01 -0.33793836852E+02 -0.21939053196E+02  0.50528859860E+02  0.30000000030E+02 0.  0.
        -12    1    1    2    0    0  0.54607886468E+01  0.33793836852E+02  0.21939053196E+02  0.40659140140E+02  0.00000000000E+00 0.  1.
         11    1    3    3    0    0  0.89391144618E+01 -0.58985759806E+01 -0.40949721934E+00  0.10717679515E+02  0.51100000000E-03 0. -1.
        -11    1    3    3    0    0 -0.81056809423E+00 -0.39750730337E+01 -0.83990196671E+01  0.93274732853E+01  0.51100000000E-03 0.  1.
         12    1    3    3    0    0 -0.13589335014E+02 -0.23920187837E+02 -0.13130536309E+02  0.30483707059E+02  0.00000000000E+00 0. -1.
</event>
<event>
 7    1  0.2903212E-011  0.5052886E+02  0.7816164E-02  0.1300439E+00
        -11   -1    0    0    0    0  0.00000000000E+00  0.00000000000E+00  0.45593999997E+02  0.45594000000E+02  0.51100000000E-03 0. -1.
         11   -1    0    0    0    0 -0.00000000000E+00 -0.00000000000E+00 -0.45593999997E+02  0.45594000000E+02  0.51100000000E-03 0.  1.
    9900012    2    1    2    0    0 -0.96158942375E+01  0.27661144357E+02  0.28205699777E+02  0.50528857989E+02  0.29999994345E+02 0.  0.
        -12    1    1    2    0    0  0.96158942375E+01 -0.27661144357E+02 -0.28205699777E+02  0.40659142011E+02  0.00000000000E+00 0.  1.
         11    1    3    3    0    0 -0.42526048522E+01  0.11978112443E+02  0.21814329208E+02  0.25247272818E+02  0.51100000000E-03 0. -1.
        -11    1    3    3    0    0 -0.45028258152E+01  0.18751588938E+02  0.88869487873E+01  0.21233826482E+02  0.51100000000E-03 0.  1.
        -12    1    3    3    0    0 -0.86046357016E+00 -0.30685570245E+01 -0.24955782177E+01  0.40477586896E+01  0.00000000000E+00 0.  1.
</event>
<event>
 7    1  0.2903212E-011  0.5052886E+02  0.7816164E-02  0.1300439E+00
        -11   -1    0    0    0    0  0.00000000000E+00  0.00000000000E+00  0.45593999997E+02  0.45594000000E+02  0.51100000000E-03 0.  1.
         11   -1    0    0    0    0 -0.00000000000E+00 -0.00000000000E+00 -0.45593999997E+02  0.45594000000E+02  0.51100000000E-03 0. -1.
    9900012    2    1    2    0    0 -0.20798221708E+00 -0.37915922515E+02 -0.14680086549E+02  0.50528863537E+02  0.30000011208E+02 0.  0.
        -12    1    1    2    0    0  0.20798221708E+00  0.37915922515E+02  0.14680086549E+02  0.40659136463E+02  0.00000000000E+00 0.  1.
         11    1    3    3    0    0  0.39322514332E+01 -0.13593922097E+02 -0.13811362817E+02  0.19773999657E+02  0.51100000000E-03 0. -1.
        -11    1    3    3    0    0 -0.10013250070E+02 -0.21989555533E+02 -0.23135094479E+01  0.24272578267E+02  0.51100000000E-03 0.  1.
         12    1    3    3    0    0  0.58730164198E+01 -0.23324448855E+01  0.14447857154E+01  0.64822856135E+01  0.00000000000E+00 0. -1.
</event>
<event>
 7    1  0.2903212E-011  0.5052886E+02  0.7816164E-02  0.1300439E+00
        -11   -1    0    0    0    0  0.00000000000E+00  0.00000000000E+00  0.45593999997E+02  0.45594000000E+02  0.51100000000E-03 0.  1.
         11   -1    0    0    0    0 -0.00000000000E+00 -0.00000000000E+00 -0.45593999997E+02  0.45594000000E+02  0.51100000000E-03 0. -1.
    9900012    2    1    2    0    0 -0.25862995237E+02 -0.12147180821E+02 -0.28926059054E+02  0.50528863057E+02  0.30000009748E+02 0.  0.
        -12    1    1    2    0    0  0.25862995237E+02  0.12147180821E+02  0.28926059054E+02  0.40659136943E+02  0.00000000000E+00 0.  1.
         11    1    3    3    0    0 -0.33164137260E+01 -0.52270151901E+01 -0.91030039126E+01  0.11008404439E+02  0.51100000000E-03 0. -1.
        -11    1    3    3    0    0 -0.18016582292E+02 -0.36433576082E+01 -0.25577463426E+02  0.31497268576E+02  0.51100000000E-03 0.  1.
        -12    1    3    3    0    0 -0.45299992193E+01 -0.32768080231E+01  0.57544082849E+01  0.80231900424E+01  0.00000000000E+00 0.  1.
</event>
<event>
 7    1  0.2903212E-011  0.5052885E+02  0.7816164E-02  0.1300439E+00
        -11   -1    0    0    0    0  0.00000000000E+00  0.00000000000E+00  0.45593999997E+02  0.45594000000E+02  0.51100000000E-03 0.  1.
         11   -1    0    0    0    0 -0.00000000000E+00 -0.00000000000E+00 -0.45593999997E+02  0.45594000000E+02  0.51100000000E-03 0. -1.
    9900012    2    1    2    0    0  0.46234339110E+01 -0.31947402458E+02 -0.24721522060E+02  0.50528851978E+02  0.29999976071E+02 0.  0.
        -12    1    1    2    0    0 -0.46234339110E+01  0.31947402458E+02  0.24721522060E+02  0.40659148022E+02  0.00000000000E+00 0.  1.
         11    1    3    3    0    0  0.66576519151E+00  0.27967336960E+01 -0.63100998456E+01  0.69341418344E+01  0.51100000000E-03 0. -1.
        -11    1    3    3    0    0  0.47858642290E+01 -0.76787035716E+01  0.24941996740E+01  0.93855216815E+01  0.51100000000E-03 0.  1.
         12    1    3    3    0    0 -0.82819550947E+00 -0.27065432583E+02 -0.20905621888E+02  0.34209188462E+02  0.00000000000E+00 0. -1.
</event>
<event>
 7    1  0.2903212E-011  0.5052877E+02  0.7816164E-02  0.1300439E+00
        -11   -1    0    0    0    0  0.00000000000E+00  0.00000000000E+00  0.45593999997E+02  0.45594000000E+02  0.51100000000E-03 0. -1.
         11   -1    0    0    0    0 -0.00000000000E+00 -0.00000000000E+00 -0.45593999997E+02  0.45594000000E+02  0.51100000000E-03 0.  1.
    9900012    2    1    2    0    0  0.22926172675E+02 -0.24345557241E+02  0.23126977958E+02  0.50528773982E+02  0.29999738995E+02 0.  0.
        -12    1    1    2    0    0 -0.22926172675E+02  0.24345557241E+02 -0.23126977958E+02  0.40659226018E+02  0.00000000000E+00 0.  1.
         11    1    3    3    0    0 -0.86054777385E+00 -0.25512359306E+01  0.96804555606E+00  0.28611989977E+01  0.51100000000E-03 0. -1.
        -11    1    3    3    0    0  0.92776754927E+01  0.16424566386E+01 -0.34590112632E+01  0.10036816504E+02  0.51100000000E-03 0.  1.
         12    1    3    3    0    0  0.14509044956E+02 -0.23436777949E+02  0.25617943665E+02  0.37630758480E+02  0.00000000000E+00 0. -1.
</event>
<event>
 7    1  0.2903212E-011  0.5052889E+02  0.7816164E-02  0.1300439E+00
        -11   -1    0    0    0    0  0.00000000000E+00  0.00000000000E+00  0.45593999997E+02  0.45594000000E+02  0.51100000000E-03 0.  1.
         11   -1    0    0    0    0 -0.00000000000E+00 -0.00000000000E+00 -0.45593999997E+02  0.45594000000E+02  0.51100000000E-03 0. -1.
    9900012    2    1    2    0    0 -0.25168584986E+02 -0.17576091183E+02 -0.26660578898E+02  0.50528891320E+02  0.30000095656E+02 0.  0.
        -12    1    1    2    0    0  0.25168584986E+02  0.17576091183E+02  0.26660578898E+02  0.40659108680E+02  0.00000000000E+00 0.  1.
         11    1    3    3    0    0  0.94502285859E+00 -0.73032356963E+01 -0.13034516449E+02  0.14970936483E+02  0.51100000000E-03 0. -1.
        -11    1    3    3    0    0 -0.11392029615E+01  0.49459753579E+00  0.32989127924E+01  0.35249448199E+01  0.51100000000E-03 0.  1.
        -12    1    3    3    0    0 -0.24974404883E+02 -0.10767453023E+02 -0.16924975241E+02  0.32033010018E+02  0.00000000000E+00 0.  1.
</event>
<event>
 7    1  0.2903212E-011  0.5052883E+02  0.7816164E-02  0.1300439E+00
        -11   -1    0    0    0    0  0.00000000000E+00  0.00000000000E+00  0.45593999997E+02  0.45594000000E+02  0.51100000000E-03 0.  1.
         11   -1    0    0    0    0 -0.00000000000E+00 -0.00000000000E+00 -0.45593999997E+02  0.45594000000E+02  0.51100000000E-03 0. -1.
    9900012    2    1    2    0    0 -0.38514147126E+02  0.12499992331E+01 -0.12971752587E+02  0.50528826470E+02  0.29999898539E+02 0.  0.
        -12    1    1    2    0    0  0.38514147126E+02 -0.12499992331E+01  0.12971752587E+02  0.40659173530E+02  0.00000000000E+00 0.  1.
         11    1    3    3    0    0 -0.18235889803E+02  0.58688591997E+01 -0.51015875235E+01  0.19824665968E+02  0.51100000000E-03 0. -1.
        -11    1    3    3    0    0 -0.79281084551E+01  0.65047050506E+01  0.31897242752E+01  0.10739666321E+02  0.51100000000E-03 0.  1.
        -12    1    3    3    0    0 -0.12350148868E+02 -0.11123565017E+02 -0.11059889339E+02  0.19964494182E+02  0.00000000000E+00 0.  1.
</event>
<event>
 7    1  0.2903212E-011  0.5052886E+02  0.7816164E-02  0.1300439E+00
        -11   -1    0    0    0    0  0.00000000000E+00  0.00000000000E+00  0.45593999997E+02  0.45594000000E+02  0.51100000000E-03 0.  1.
         11   -1    0    0    0    0 -0.00000000000E+00 -0.00000000000E+00 -0.45593999997E+02  0.45594000000E+02  0.51100000000E-03 0. -1.
    9900012    2    1    2    0    0 -0.34523986485E+02 -0.19710095586E+02 -0.85306801745E+01  0.50528855701E+02  0.29999987390E+02 0.  0.
        -12    1    1    2    0    0  0.34523986485E+02  0.19710095586E+02  0.85306801745E+01  0.40659144299E+02  0.00000000000E+00 0.  1.
         11    1    3    3    0    0 -0.44077858194E+01  0.41427000313E+01 -0.58598597289E+01  0.84219057037E+01  0.51100000000E-03 0. -1.
        -11    1    3    3    0    0 -0.22551001667E+02 -0.72335253309E+01 -0.22539926223E+00  0.23683799738E+02  0.51100000000E-03 0.  1.
        -12    1    3    3    0    0 -0.75651989982E+01 -0.16619270287E+02 -0.24454211834E+01  0.18423150260E+02  0.00000000000E+00 0.  1.
</event>
<event>
 7    1  0.2903212E-011  0.5052886E+02  0.7816164E-02  0.1300439E+00
        -11   -1    0    0    0    0  0.00000000000E+00  0.00000000000E+00  0.45593999997E+02  0.45594000000E+02  0.51100000000E-03 0.  1.
         11   -1    0    0    0    0 -0.00000000000E+00 -0.00000000000E+00 -0.45593999997E+02  0.45594000000E+02  0.51100000000E-03 0. -1.
    9900012    2    1    2    0    0  0.20726732063E+02  0.14784389192E+02 -0.31701575058E+02  0.50528862688E+02  0.30000008627E+02 0.  0.
        -12    1    1    2    0    0 -0.20726732063E+02 -0.14784389192E+02  0.31701575058E+02  0.40659137312E+02  0.00000000000E+00 0.  1.
         11    1    3    3    0    0 -0.81266507007E+00  0.22632389842E+01  0.98346185870E+00  0.25980517132E+01  0.51100000000E-03 0. -1.
        -11    1    3    3    0    0  0.14101919622E+02  0.55717899533E+01 -0.16299426043E+01  0.15250104703E+02  0.51100000000E-03 0.  1.
         12    1    3    3    0    0  0.74374775109E+01  0.69493602549E+01 -0.31055094312E+02  0.32680706272E+02  0.00000000000E+00 0. -1.
</event>
<event>
 7    1  0.2903212E-011  0.5052886E+02  0.7816164E-02  0.1300439E+00
        -11   -1    0    0    0    0  0.00000000000E+00  0.00000000000E+00  0.45593999997E+02  0.45594000000E+02  0.51100000000E-03 0.  1.
         11   -1    0    0    0    0 -0.00000000000E+00 -0.00000000000E+00 -0.45593999997E+02  0.45594000000E+02  0.51100000000E-03 0. -1.
    9900012    2    1    2    0    0 -0.35069601126E+02  0.20425892279E+02  0.24640511900E+01  0.50528861460E+02  0.30000004894E+02 0.  0.
        -12    1    1    2    0    0  0.35069601126E+02 -0.20425892279E+02 -0.24640511900E+01  0.40659138540E+02  0.00000000000E+00 0.  1.
         11    1    3    3    0    0 -0.16767914753E+02  0.56712687660E+01  0.86977595339E+00  0.17722380344E+02  0.51100000000E-03 0. -1.
        -11    1    3    3    0    0 -0.22026108888E+02  0.14248973141E+02  0.61058108679E+01  0.26934432144E+02  0.51100000000E-03 0.  1.
        -12    1    3    3    0    0  0.37244225156E+01  0.50565037247E+00 -0.45115356313E+01  0.58720489717E+01  0.00000000000E+00 0.  1.
</event>
<event>
 7    1  0.2903212E-011  0.5052886E+02  0.7816164E-02  0.1300439E+00
        -11   -1    0    0    0    0  0.00000000000E+00  0.00000000000E+00  0.45593999997E+02  0.45594000000E+02  0.51100000000E-03 0. -1.
         11   -1    0    0    0    0 -0.00000000000E+00 -0.00000000000E+00 -0.45593999997E+02  0.45594000000E+02  0.51100000000E-03 0.  1.
    9900012    2    1    2    0    0  0.25926241473E+01  0.35944384593E+01  0.40416881781E+02  0.50528855632E+02  0.29999987180E+02 0.  0.
        -12    1    1    2    0    0 -0.25926241473E+01 -0.35944384593E+01 -0.40416881781E+02  0.40659144368E+02  0.00000000000E+00 0.  1.
         11    1    3    3    0    0  0.34116540154E+01  0.53049148968E+01  0.17328358897E+02  0.18440540326E+02  0.51100000000E-03 0. -1.
        -11    1    3    3    0    0  0.29884024489E+00  0.99307237377E+01  0.14506213929E+02  0.17582344049E+02  0.51100000000E-03 0.  1.
        -12    1    3    3    0    0 -0.11178701129E+01 -0.11641200175E+02  0.85823089550E+01  0.14505971257E+02  0.00000000000E+00 0.  1.
</event>
<event>
 7    1  0.2903212E-011  0.5052885E+02  0.7816164E-02  0.1300439E+00
        -11   -1    0    0    0    0  0.00000000000E+00  0.00000000000E+00  0.45593999997E+02  0.45594000000E+02  0.51100000000E-03 0. -1.
         11   -1    0    0    0    0 -0.00000000000E+00 -0.00000000000E+00 -0.45593999997E+02  0.45594000000E+02  0.51100000000E-03 0.  1.
    9900012    2    1    2    0    0 -0.11777468028E+02 -0.36405207157E+02  0.13752029924E+02  0.50528853571E+02  0.29999980913E+02 0.  0.
        -12    1    1    2    0    0  0.11777468028E+02  0.36405207157E+02 -0.13752029924E+02  0.40659146429E+02  0.00000000000E+00 0.  1.
         11    1    3    3    0    0 -0.63512011883E+01 -0.16551978757E+02 -0.41795301642E+01  0.18214670734E+02  0.51100000000E-03 0.  1.
        -11    1    3    3    0    0  0.27105026469E+01 -0.94851943993E+01 -0.23817457815E+00  0.98677487190E+01  0.51100000000E-03 0. -1.
        -12    1    3    3    0    0 -0.81367694867E+01 -0.10368034001E+02  0.18169734666E+02  0.22446434117E+02  0.00000000000E+00 0.  1.
</event>
<event>
 7    1  0.2903212E-011  0.5052887E+02  0.7816164E-02  0.1300439E+00
        -11   -1    0    0    0    0  0.00000000000E+00  0.00000000000E+00  0.45593999997E+02  0.45594000000E+02  0.51100000000E-03 0. -1.
         11   -1    0    0    0    0 -0.00000000000E+00 -0.00000000000E+00 -0.45593999997E+02  0.45594000000E+02  0.51100000000E-03 0.  1.
    9900012    2    1    2    0    0  0.13965978443E+02 -0.23992940485E+02  0.29706149472E+02  0.50528867404E+02  0.30000022961E+02 0.  0.
        -12    1    1    2    0    0 -0.13965978443E+02  0.23992940485E+02 -0.29706149472E+02  0.40659132596E+02  0.00000000000E+00 0.  1.
         11    1    3    3    0    0 -0.67986627350E+00  0.10500136410E+01  0.36383135895E+01  0.38473462065E+01  0.51100000000E-03 0. -1.
        -11    1    3    3    0    0  0.52211562369E+01 -0.90727322773E+01  0.26118044546E+02  0.28137647283E+02  0.51100000000E-03 0.  1.
        -12    1    3    3    0    0  0.94246884797E+01 -0.15970221849E+02 -0.50208663912E-01  0.18543873915E+02  0.00000000000E+00 0.  1.
</event>
<event>
 7    1  0.2903212E-011  0.5052886E+02  0.7816164E-02  0.1300439E+00
        -11   -1    0    0    0    0  0.00000000000E+00  0.00000000000E+00  0.45593999997E+02  0.45594000000E+02  0.51100000000E-03 0.  1.
         11   -1    0    0    0    0 -0.00000000000E+00 -0.00000000000E+00 -0.45593999997E+02  0.45594000000E+02  0.51100000000E-03 0. -1.
    9900012    2    1    2    0    0 -0.73217306392E+01 -0.19621690655E+02 -0.34850358557E+02  0.50528856191E+02  0.29999988879E+02 0.  0.
        -12    1    1    2    0    0  0.73217306392E+01  0.19621690655E+02  0.34850358557E+02  0.40659143809E+02  0.00000000000E+00 0.  1.
         11    1    3    3    0    0 -0.55322955429E+01 -0.57264060064E+01 -0.14508487439E+02  0.16549750081E+02  0.51100000000E-03 0. -1.
        -11    1    3    3    0    0 -0.61009686298E+01 -0.19329187638E+02 -0.15584090352E+02  0.25567619861E+02  0.51100000000E-03 0.  1.
        -12    1    3    3    0    0  0.43115335334E+01  0.54339029894E+01 -0.47577807664E+01  0.84114862497E+01  0.00000000000E+00 0.  1.
</event>
<event>
 7    1  0.2903212E-011  0.5052887E+02  0.7816164E-02  0.1300439E+00
        -11   -1    0    0    0    0  0.00000000000E+00  0.00000000000E+00  0.45593999997E+02  0.45594000000E+02  0.51100000000E-03 0.  1.
         11   -1    0    0    0    0 -0.00000000000E+00 -0.00000000000E+00 -0.45593999997E+02  0.45594000000E+02  0.51100000000E-03 0. -1.
    9900012    2    1    2    0    0 -0.32127950556E+02 -0.24248897474E+02 -0.57402308588E+01  0.50528874505E+02  0.30000044546E+02 0.  0.
        -12    1    1    2    0    0  0.32127950556E+02  0.24248897474E+02  0.57402308588E+01  0.40659125495E+02  0.00000000000E+00 0.  1.
         11    1    3    3    0    0 -0.40993653767E+01  0.35815724336E+01  0.76586816733E-01  0.54441090539E+01  0.51100000000E-03 0. -1.
        -11    1    3    3    0    0 -0.13972777838E+01  0.27292492074E+01  0.21876399817E+01  0.37665574988E+01  0.51100000000E-03 0.  1.
         12    1    3    3    0    0 -0.26631307396E+02 -0.30559719115E+02 -0.80044576572E+01  0.41318207953E+02  0.00000000000E+00 0. -1.
</event>
<event>
 7    1  0.2903212E-011  0.5052887E+02  0.7816164E-02  0.1300439E+00
        -11   -1    0    0    0    0  0.00000000000E+00  0.00000000000E+00  0.45593999997E+02  0.45594000000E+02  0.51100000000E-03 0.  1.
         11   -1    0    0    0    0 -0.00000000000E+00 -0.00000000000E+00 -0.45593999997E+02  0.45594000000E+02  0.51100000000E-03 0. -1.
    9900012    2    1    2    0    0 -0.33234072443E+01  0.17809739259E+02 -0.36399623657E+02  0.50528874941E+02  0.30000045872E+02 0.  0.
        -12    1    1    2    0    0  0.33234072443E+01 -0.17809739259E+02  0.36399623657E+02  0.40659125059E+02  0.00000000000E+00 0.  1.
         11    1    3    3    0    0 -0.49503485195E+01  0.18473797862E+02 -0.17688543973E+02  0.26051329065E+02  0.51100000000E-03 0. -1.
        -11    1    3    3    0    0 -0.21936845821E+01 -0.12339165711E+01  0.21203399631E+01  0.32909943741E+01  0.51100000000E-03 0.  1.
         12    1    3    3    0    0  0.38206258573E+01  0.56985796797E+00 -0.20831419647E+02  0.21186551502E+02  0.00000000000E+00 0. -1.
</event>
<event>
 7    1  0.2903212E-011  0.5052886E+02  0.7816164E-02  0.1300439E+00
        -11   -1    0    0    0    0  0.00000000000E+00  0.00000000000E+00  0.45593999997E+02  0.45594000000E+02  0.51100000000E-03 0.  1.
         11   -1    0    0    0    0 -0.00000000000E+00 -0.00000000000E+00 -0.45593999997E+02  0.45594000000E+02  0.51100000000E-03 0. -1.
    9900012    2    1    2    0    0 -0.43691910660E+01 -0.18418815377E+01 -0.40381716796E+02  0.50528863148E+02  0.30000010025E+02 0.  0.
        -12    1    1    2    0    0  0.43691910660E+01  0.18418815377E+01  0.40381716796E+02  0.40659136852E+02  0.00000000000E+00 0.  1.
         11    1    3    3    0    0  0.39675072827E+00  0.98506424563E+01 -0.24289496505E+02  0.26213969724E+02  0.51100000000E-03 0. -1.
        -11    1    3    3    0    0 -0.17909346434E+01  0.81960133011E+00 -0.98023174991E+01  0.99982309361E+01  0.51100000000E-03 0.  1.
        -12    1    3    3    0    0 -0.29750071509E+01 -0.12512125324E+02 -0.62899027913E+01  0.14316662488E+02  0.00000000000E+00 0.  1.
</event>
<event>
 7    1  0.2903212E-011  0.5052886E+02  0.7816164E-02  0.1300439E+00
        -11   -1    0    0    0    0  0.00000000000E+00  0.00000000000E+00  0.45593999997E+02  0.45594000000E+02  0.51100000000E-03 0.  1.
         11   -1    0    0    0    0 -0.00000000000E+00 -0.00000000000E+00 -0.45593999997E+02  0.45594000000E+02  0.51100000000E-03 0. -1.
    9900012    2    1    2    0    0  0.39123345972E+02 -0.10762038196E+02 -0.25899217925E+01  0.50528863744E+02  0.30000011838E+02 0.  0.
        -12    1    1    2    0    0 -0.39123345972E+02  0.10762038196E+02  0.25899217925E+01  0.40659136256E+02  0.00000000000E+00 0.  1.
         11    1    3    3    0    0  0.37857919826E+02 -0.14623870074E+02 -0.67591004650E+01  0.41143226767E+02  0.51100000000E-03 0. -1.
        -11    1    3    3    0    0  0.28122009199E+01  0.87937969029E+00 -0.10927622428E+01  0.31425964160E+01  0.51100000000E-03 0.  1.
         12    1    3    3    0    0 -0.15467747744E+01  0.29824521869E+01  0.52619409153E+01  0.62430405610E+01  0.00000000000E+00 0. -1.
</event>
<event>
 7    1  0.2903212E-011  0.5052887E+02  0.7816164E-02  0.1300439E+00
        -11   -1    0    0    0    0  0.00000000000E+00  0.00000000000E+00  0.45593999997E+02  0.45594000000E+02  0.51100000000E-03 0. -1.
         11   -1    0    0    0    0 -0.00000000000E+00 -0.00000000000E+00 -0.45593999997E+02  0.45594000000E+02  0.51100000000E-03 0.  1.
    9900012    2    1    2    0    0 -0.15568997714E+02 -0.32769974170E+02 -0.18354842532E+02  0.50528866447E+02  0.30000020052E+02 0.  0.
        -12    1    1    2    0    0  0.15568997714E+02  0.32769974170E+02  0.18354842532E+02  0.40659133553E+02  0.00000000000E+00 0.  1.
         11    1    3    3    0    0 -0.72735153136E+01 -0.14077613317E+02 -0.21005501741E+01  0.15984227632E+02  0.51100000000E-03 0. -1.
        -11    1    3    3    0    0 -0.15669054409E+02 -0.16485469213E+02 -0.12911392679E+02  0.26153279381E+02  0.51100000000E-03 0.  1.
        -12    1    3    3    0    0  0.73735720085E+01 -0.22068916408E+01 -0.33428996795E+01  0.83913594337E+01  0.00000000000E+00 0.  1.
</event>
<event>
 7    1  0.2903212E-011  0.5052887E+02  0.7816164E-02  0.1300439E+00
        -11   -1    0    0    0    0  0.00000000000E+00  0.00000000000E+00  0.45593999997E+02  0.45594000000E+02  0.51100000000E-03 0.  1.
         11   -1    0    0    0    0 -0.00000000000E+00 -0.00000000000E+00 -0.45593999997E+02  0.45594000000E+02  0.51100000000E-03 0. -1.
    9900012    2    1    2    0    0  0.29803238466E+02 -0.18407921948E+02 -0.20641719137E+02  0.50528865941E+02  0.30000018514E+02 0.  0.
        -12    1    1    2    0    0 -0.29803238466E+02  0.18407921948E+02  0.20641719137E+02  0.40659134059E+02  0.00000000000E+00 0.  1.
         11    1    3    3    0    0  0.52001825173E+01 -0.83087201582E+01 -0.15559842607E+02  0.18389818680E+02  0.51100000000E-03 0. -1.
        -11    1    3    3    0    0  0.80041562180E+00 -0.65734280481E+01  0.22347530777E+01  0.69889014194E+01  0.51100000000E-03 0.  1.
        -12    1    3    3    0    0  0.23802640327E+02 -0.35257737414E+01 -0.73166296080E+01  0.25150145841E+02  0.00000000000E+00 0.  1.
</event>
<event>
 7    1  0.2903212E-011  0.5052887E+02  0.7816164E-02  0.1300439E+00
        -11   -1    0    0    0    0  0.00000000000E+00  0.00000000000E+00  0.45593999997E+02  0.45594000000E+02  0.51100000000E-03 0.  1.
         11   -1    0    0    0    0 -0.00000000000E+00 -0.00000000000E+00 -0.45593999997E+02  0.45594000000E+02  0.51100000000E-03 0. -1.
    9900012    2    1    2    0    0 -0.19978998642E+02  0.31115204139E+02 -0.16907064613E+02  0.50528866350E+02  0.30000019757E+02 0.  0.
        -12    1    1    2    0    0  0.19978998642E+02 -0.31115204139E+02  0.16907064613E+02  0.40659133650E+02  0.00000000000E+00 0.  1.
         11    1    3    3    0    0 -0.25341156728E+00  0.11494560029E+02 -0.28437303022E+01  0.11843813996E+02  0.51100000000E-03 0. -1.
        -11    1    3    3    0    0 -0.30726729925E+00  0.12182083668E+02  0.20771318549E+01  0.12361717223E+02  0.51100000000E-03 0.  1.
        -12    1    3    3    0    0 -0.19418319776E+02  0.74385604419E+01 -0.16140466166E+02  0.26323335131E+02  0.00000000000E+00 0.  1.
</event>
<event>
 7    1  0.2903212E-011  0.5052885E+02  0.7816164E-02  0.1300439E+00
        -11   -1    0    0    0    0  0.00000000000E+00  0.00000000000E+00  0.45593999997E+02  0.45594000000E+02  0.51100000000E-03 0.  1.
         11   -1    0    0    0    0 -0.00000000000E+00 -0.00000000000E+00 -0.45593999997E+02  0.45594000000E+02  0.51100000000E-03 0. -1.
    9900012    2    1    2    0    0 -0.17350668978E+02  0.32014443029E+02 -0.18088558222E+02  0.50528853243E+02  0.29999979917E+02 0.  0.
        -12    1    1    2    0    0  0.17350668978E+02 -0.32014443029E+02  0.18088558222E+02  0.40659146757E+02  0.00000000000E+00 0.  1.
         11    1    3    3    0    0  0.13729872280E+01  0.10107398142E+02 -0.14833556907E+02  0.18002194363E+02  0.51100000000E-03 0. -1.
        -11    1    3    3    0    0  0.17636074072E+01  0.29015730968E+01 -0.30748536137E+01  0.45808473594E+01  0.51100000000E-03 0.  1.
        -12    1    3    3    0    0 -0.20487263613E+02  0.19005471790E+02 -0.18014770201E+00  0.27945811520E+02  0.00000000000E+00 0.  1.
</event>
<event>
 7    1  0.2903212E-011  0.5052886E+02  0.7816164E-02  0.1300439E+00
        -11   -1    0    0    0    0  0.00000000000E+00  0.00000000000E+00  0.45593999997E+02  0.45594000000E+02  0.51100000000E-03 0. -1.
         11   -1    0    0    0    0 -0.00000000000E+00 -0.00000000000E+00 -0.45593999997E+02  0.45594000000E+02  0.51100000000E-03 0.  1.
    9900012    2    1    2    0    0 -0.36216582506E+02 -0.94333701438E+01  0.15891390849E+02  0.50528860513E+02  0.30000002017E+02 0.  0.
        -12    1    1    2    0    0  0.36216582506E+02  0.94333701438E+01 -0.15891390849E+02  0.40659139487E+02  0.00000000000E+00 0.  1.
         11    1    3    3    0    0 -0.11294021207E+02 -0.54222702991E+01  0.12270470077E+02  0.17536258620E+02  0.51100000000E-03 0. -1.
        -11    1    3    3    0    0 -0.17079256906E+02  0.54657095361E+01  0.83910552866E+01  0.19798606170E+02  0.51100000000E-03 0.  1.
        -12    1    3    3    0    0 -0.78433043930E+01 -0.94768093808E+01 -0.47701345154E+01  0.13193995723E+02  0.00000000000E+00 0.  1.
</event>
<event>
 7    1  0.2903212E-011  0.5052885E+02  0.7816164E-02  0.1300439E+00
        -11   -1    0    0    0    0  0.00000000000E+00  0.00000000000E+00  0.45593999997E+02  0.45594000000E+02  0.51100000000E-03 0.  1.
         11   -1    0    0    0    0 -0.00000000000E+00 -0.00000000000E+00 -0.45593999997E+02  0.45594000000E+02  0.51100000000E-03 0. -1.
    9900012    2    1    2    0    0 -0.34846805293E+02 -0.16761392203E+02 -0.12566705451E+02  0.50528853506E+02  0.29999980718E+02 0.  0.
        -12    1    1    2    0    0  0.34846805293E+02  0.16761392203E+02  0.12566705451E+02  0.40659146494E+02  0.00000000000E+00 0.  1.
         11    1    3    3    0    0 -0.24108536169E+02 -0.99370047060E+01 -0.13984131897E+01  0.26113619788E+02  0.51100000000E-03 0. -1.
        -11    1    3    3    0    0 -0.10179132752E+02  0.63764410949E+00  0.87498605211E+00  0.10236548952E+02  0.51100000000E-03 0.  1.
         12    1    3    3    0    0 -0.55913637205E+00 -0.74620316065E+01 -0.12043278313E+02  0.14178684767E+02  0.00000000000E+00 0. -1.
</event>
<event>
 7    1  0.2903212E-011  0.5052886E+02  0.7816164E-02  0.1300439E+00
        -11   -1    0    0    0    0  0.00000000000E+00  0.00000000000E+00  0.45593999997E+02  0.45594000000E+02  0.51100000000E-03 0.  1.
         11   -1    0    0    0    0 -0.00000000000E+00 -0.00000000000E+00 -0.45593999997E+02  0.45594000000E+02  0.51100000000E-03 0. -1.
    9900012    2    1    2    0    0  0.30548367640E+02 -0.22076532487E+02  0.15250901053E+02  0.50528855456E+02  0.29999986645E+02 0.  0.
        -12    1    1    2    0    0 -0.30548367640E+02  0.22076532487E+02 -0.15250901053E+02  0.40659144544E+02  0.00000000000E+00 0.  1.
         11    1    3    3    0    0  0.19519560381E+02  0.15712334340E+01  0.44337419559E+01  0.20078348537E+02  0.51100000000E-03 0. -1.
        -11    1    3    3    0    0 -0.32868599396E+00 -0.58713343770E+01  0.67762431408E+01  0.89720718462E+01  0.51100000000E-03 0.  1.
        -12    1    3    3    0    0  0.11357493253E+02 -0.17776431544E+02  0.40409159560E+01  0.21478435073E+02  0.00000000000E+00 0.  1.
</event>
<event>
 7    1  0.2903212E-011  0.5052887E+02  0.7816164E-02  0.1300439E+00
        -11   -1    0    0    0    0  0.00000000000E+00  0.00000000000E+00  0.45593999997E+02  0.45594000000E+02  0.51100000000E-03 0.  1.
         11   -1    0    0    0    0 -0.00000000000E+00 -0.00000000000E+00 -0.45593999997E+02  0.45594000000E+02  0.51100000000E-03 0. -1.
    9900012    2    1    2    0    0 -0.12712195517E+02 -0.38092257908E+02 -0.63674508353E+01  0.50528874856E+02  0.30000045611E+02 0.  0.
        -12    1    1    2    0    0  0.12712195517E+02  0.38092257908E+02  0.63674508353E+01  0.40659125144E+02  0.00000000000E+00 0.  1.
         11    1    3    3    0    0 -0.40572416005E+00 -0.59038562215E+01 -0.66948230501E+01  0.89353671615E+01  0.51100000000E-03 0. -1.
        -11    1    3    3    0    0  0.34485025196E+01 -0.84492121533E+01 -0.77570467294E+01  0.11977192069E+02  0.51100000000E-03 0.  1.
         12    1    3    3    0    0 -0.15754973877E+02 -0.23739189533E+02  0.80844189442E+01  0.29616315625E+02  0.00000000000E+00 0. -1.
</event>
<event>
 7    1  0.2903212E-011  0.5052887E+02  0.7816164E-02  0.1300439E+00
        -11   -1    0    0    0    0  0.00000000000E+00  0.00000000000E+00  0.45593999997E+02  0.45594000000E+02  0.51100000000E-03 0. -1.
         11   -1    0    0    0    0 -0.00000000000E+00 -0.00000000000E+00 -0.45593999997E+02  0.45594000000E+02  0.51100000000E-03 0.  1.
    9900012    2    1    2    0    0 -0.22677286879E+02  0.18832352049E+02  0.28004428905E+02  0.50528869879E+02  0.30000030484E+02 0.  0.
        -12    1    1    2    0    0  0.22677286879E+02 -0.18832352049E+02 -0.28004428905E+02  0.40659130121E+02  0.00000000000E+00 0.  1.
         11    1    3    3    0    0 -0.22342351985E+02  0.90430153639E+01  0.21139752554E+02  0.32060036766E+02  0.51100000000E-03 0. -1.
        -11    1    3    3    0    0 -0.70075720835E+01  0.70017928076E+01  0.42471590376E+01  0.10778196935E+02  0.51100000000E-03 0.  1.
         12    1    3    3    0    0  0.66726371896E+01  0.27875438775E+01  0.26175173135E+01  0.76906361778E+01  0.00000000000E+00 0. -1.
</event>
<event>
 7    1  0.2903212E-011  0.5052881E+02  0.7816164E-02  0.1300439E+00
        -11   -1    0    0    0    0  0.00000000000E+00  0.00000000000E+00  0.45593999997E+02  0.45594000000E+02  0.51100000000E-03 0. -1.
         11   -1    0    0    0    0 -0.00000000000E+00 -0.00000000000E+00 -0.45593999997E+02  0.45594000000E+02  0.51100000000E-03 0.  1.
    9900012    2    1    2    0    0  0.45549788448E+01 -0.29131038139E+02  0.27996507405E+02  0.50528811097E+02  0.29999851811E+02 0.  0.
        -12    1    1    2    0    0 -0.45549788448E+01  0.29131038139E+02 -0.27996507405E+02  0.40659188903E+02  0.00000000000E+00 0.  1.
         11    1    3    3    0    0  0.33358362582E+00 -0.38251684249E+01  0.67407006172E+01  0.77575921900E+01  0.51100000000E-03 0. -1.
        -11    1    3    3    0    0 -0.10254089952E+02 -0.17853601386E+02  0.94132837200E+01  0.22638625264E+02  0.51100000000E-03 0.  1.
         12    1    3    3    0    0  0.14475485171E+02 -0.74522683285E+01  0.11842523068E+02  0.20132593643E+02  0.00000000000E+00 0. -1.
</event>
<event>
 7    1  0.2903212E-011  0.5052887E+02  0.7816164E-02  0.1300439E+00
        -11   -1    0    0    0    0  0.00000000000E+00  0.00000000000E+00  0.45593999997E+02  0.45594000000E+02  0.51100000000E-03 0.  1.
         11   -1    0    0    0    0 -0.00000000000E+00 -0.00000000000E+00 -0.45593999997E+02  0.45594000000E+02  0.51100000000E-03 0. -1.
    9900012    2    1    2    0    0  0.18181206880E+02 -0.12819573194E+02 -0.34033321627E+02  0.50528871609E+02  0.30000035744E+02 0.  0.
        -12    1    1    2    0    0 -0.18181206880E+02  0.12819573194E+02  0.34033321627E+02  0.40659128391E+02  0.00000000000E+00 0.  1.
         11    1    3    3    0    0  0.17245315794E+02 -0.11886781526E+02 -0.27981720015E+02  0.34952441218E+02  0.51100000000E-03 0. -1.
        -11    1    3    3    0    0  0.70377107291E+01 -0.32366311425E+01 -0.24427567532E+01  0.81223281315E+01  0.51100000000E-03 0.  1.
        -12    1    3    3    0    0 -0.61018196430E+01  0.23038394743E+01 -0.36088448594E+01  0.74541022597E+01  0.00000000000E+00 0.  1.
</event>
<event>
 7    1  0.2903212E-011  0.5052873E+02  0.7816164E-02  0.1300439E+00
        -11   -1    0    0    0    0  0.00000000000E+00  0.00000000000E+00  0.45593999997E+02  0.45594000000E+02  0.51100000000E-03 0. -1.
         11   -1    0    0    0    0 -0.00000000000E+00 -0.00000000000E+00 -0.45593999997E+02  0.45594000000E+02  0.51100000000E-03 0.  1.
    9900012    2    1    2    0    0 -0.99817888370E+01 -0.34269390820E+02  0.19471754525E+02  0.50528727013E+02  0.29999596225E+02 0.  0.
        -12    1    1    2    0    0  0.99817888370E+01  0.34269390820E+02 -0.19471754525E+02  0.40659272987E+02  0.00000000000E+00 0.  1.
         11    1    3    3    0    0 -0.89347565624E+01 -0.76566146215E+01  0.49853403636E+01  0.12779172160E+02  0.51100000000E-03 0. -1.
        -11    1    3    3    0    0  0.21139490990E+00 -0.14367014457E+01 -0.54316995922E+01  0.56224691705E+01  0.51100000000E-03 0.  1.
        -12    1    3    3    0    0 -0.12584271845E+01 -0.25176074753E+02  0.19918113754E+02  0.32127085682E+02  0.00000000000E+00 0.  1.
</event>
<event>
 7    1  0.2903212E-011  0.5052885E+02  0.7816164E-02  0.1300439E+00
        -11   -1    0    0    0    0  0.00000000000E+00  0.00000000000E+00  0.45593999997E+02  0.45594000000E+02  0.51100000000E-03 0.  1.
         11   -1    0    0    0    0 -0.00000000000E+00 -0.00000000000E+00 -0.45593999997E+02  0.45594000000E+02  0.51100000000E-03 0. -1.
    9900012    2    1    2    0    0 -0.37769641713E+02 -0.91595608442E+01 -0.11946662621E+02  0.50528854192E+02  0.29999982803E+02 0.  0.
        -12    1    1    2    0    0  0.37769641713E+02  0.91595608442E+01  0.11946662621E+02  0.40659145808E+02  0.00000000000E+00 0.  1.
         11    1    3    3    0    0 -0.33865736309E+01 -0.96594850371E+01 -0.27328569867E+00  0.10239590689E+02  0.51100000000E-03 0. -1.
        -11    1    3    3    0    0 -0.21185157947E+00 -0.37819169294E+01  0.36963370636E+00  0.38058384215E+01  0.51100000000E-03 0.  1.
        -12    1    3    3    0    0 -0.34171216503E+02  0.42818411223E+01 -0.12043010629E+02  0.36483425082E+02  0.00000000000E+00 0.  1.
</event>
<event>
 7    1  0.2903212E-011  0.5052880E+02  0.7816164E-02  0.1300439E+00
        -11   -1    0    0    0    0  0.00000000000E+00  0.00000000000E+00  0.45593999997E+02  0.45594000000E+02  0.51100000000E-03 0.  1.
         11   -1    0    0    0    0 -0.00000000000E+00 -0.00000000000E+00 -0.45593999997E+02  0.45594000000E+02  0.51100000000E-03 0. -1.
    9900012    2    1    2    0    0  0.21306146671E+01  0.38523727886E+02 -0.12827826541E+02  0.50528803465E+02  0.29999828611E+02 0.  0.
        -12    1    1    2    0    0 -0.21306146671E+01 -0.38523727886E+02  0.12827826541E+02  0.40659196535E+02  0.00000000000E+00 0.  1.
         11    1    3    3    0    0  0.12653624877E+02  0.11851634946E+02  0.22777896465E+01  0.17486103035E+02  0.51100000000E-03 0.  1.
        -11    1    3    3    0    0 -0.52961265584E+01  0.12092896356E+02 -0.34103433143E+01  0.13635158253E+02  0.51100000000E-03 0. -1.
        -12    1    3    3    0    0 -0.52268836518E+01  0.14579196584E+02 -0.11695272873E+02  0.19407542177E+02  0.00000000000E+00 0.  1.
</event>
<event>
 7    1  0.2903212E-011  0.5052886E+02  0.7816164E-02  0.1300439E+00
        -11   -1    0    0    0    0  0.00000000000E+00  0.00000000000E+00  0.45593999997E+02  0.45594000000E+02  0.51100000000E-03 0.  1.
         11   -1    0    0    0    0 -0.00000000000E+00 -0.00000000000E+00 -0.45593999997E+02  0.45594000000E+02  0.51100000000E-03 0. -1.
    9900012    2    1    2    0    0  0.30073892383E+02  0.14782025032E+02 -0.23026476821E+02  0.50528857093E+02  0.29999991620E+02 0.  0.
        -12    1    1    2    0    0 -0.30073892383E+02 -0.14782025032E+02  0.23026476821E+02  0.40659142907E+02  0.00000000000E+00 0.  1.
         11    1    3    3    0    0  0.24139024437E+02  0.52711340517E+01 -0.60717894585E+01  0.25442955458E+02  0.51100000000E-03 0. -1.
        -11    1    3    3    0    0  0.94066626953E+01  0.74668627489E+01 -0.60233613052E+01  0.13435781483E+02  0.51100000000E-03 0.  1.
        -12    1    3    3    0    0 -0.34717947489E+01  0.20440282313E+01 -0.10931326058E+02  0.11650120153E+02  0.00000000000E+00 0.  1.
</event>
<event>
 7    1  0.2903212E-011  0.5052885E+02  0.7816164E-02  0.1300439E+00
        -11   -1    0    0    0    0  0.00000000000E+00  0.00000000000E+00  0.45593999997E+02  0.45594000000E+02  0.51100000000E-03 0. -1.
         11   -1    0    0    0    0 -0.00000000000E+00 -0.00000000000E+00 -0.45593999997E+02  0.45594000000E+02  0.51100000000E-03 0.  1.
    9900012    2    1    2    0    0 -0.55896129393E+01 -0.32092582914E+02  0.24330813036E+02  0.50528854486E+02  0.29999983696E+02 0.  0.
        -12    1    1    2    0    0  0.55896129393E+01  0.32092582914E+02 -0.24330813036E+02  0.40659145514E+02  0.00000000000E+00 0.  1.
         11    1    3    3    0    0 -0.88678233624E+01 -0.95550419590E+01  0.89342600663E+01  0.15803737571E+02  0.51100000000E-03 0. -1.
        -11    1    3    3    0    0 -0.81657941876E+01 -0.14170866277E+02  0.48601078464E+01  0.17062071806E+02  0.51100000000E-03 0.  1.
        -12    1    3    3    0    0  0.11444004611E+02 -0.83666746774E+01  0.10536445124E+02  0.17663045109E+02  0.00000000000E+00 0.  1.
</event>
<event>
 7    1  0.2903212E-011  0.5052886E+02  0.7816164E-02  0.1300439E+00
        -11   -1    0    0    0    0  0.00000000000E+00  0.00000000000E+00  0.45593999997E+02  0.45594000000E+02  0.51100000000E-03 0. -1.
         11   -1    0    0    0    0 -0.00000000000E+00 -0.00000000000E+00 -0.45593999997E+02  0.45594000000E+02  0.51100000000E-03 0.  1.
    9900012    2    1    2    0    0 -0.39666322712E+02 -0.55975412773E+01 -0.69581558431E+01  0.50528861315E+02  0.30000004454E+02 0.  0.
        -12    1    1    2    0    0  0.39666322712E+02  0.55975412773E+01  0.69581558431E+01  0.40659138685E+02  0.00000000000E+00 0.  1.
         11    1    3    3    0    0 -0.23350149735E+02 -0.12409007024E+01 -0.28391693761E+01  0.23554834116E+02  0.51100000000E-03 0. -1.
        -11    1    3    3    0    0 -0.40616832230E+01 -0.40830218496E+01 -0.11360703852E+02  0.12737108396E+02  0.51100000000E-03 0.  1.
        -12    1    3    3    0    0 -0.12254489754E+02 -0.27361872530E+00  0.72417173848E+01  0.14236918803E+02  0.00000000000E+00 0.  1.
</event>
<event>
 7    1  0.2903212E-011  0.5052887E+02  0.7816164E-02  0.1300439E+00
        -11   -1    0    0    0    0  0.00000000000E+00  0.00000000000E+00  0.45593999997E+02  0.45594000000E+02  0.51100000000E-03 0. -1.
         11   -1    0    0    0    0 -0.00000000000E+00 -0.00000000000E+00 -0.45593999997E+02  0.45594000000E+02  0.51100000000E-03 0.  1.
    9900012    2    1    2    0    0  0.31214142382E+02 -0.20178611895E+02 -0.16482288638E+02  0.50528869397E+02  0.30000029019E+02 0.  0.
        -12    1    1    2    0    0 -0.31214142382E+02  0.20178611895E+02  0.16482288638E+02  0.40659130603E+02  0.00000000000E+00 0.  1.
         11    1    3    3    0    0  0.43320419653E+01 -0.75716948271E-01 -0.10275849838E+02  0.11151924085E+02  0.51100000000E-03 0.  1.
        -11    1    3    3    0    0  0.68599712645E+00  0.14709660203E+01  0.36866404867E+01  0.40281076735E+01  0.51100000000E-03 0. -1.
         12    1    3    3    0    0  0.26196103290E+02 -0.21573860967E+02 -0.98930792869E+01  0.35348837638E+02  0.00000000000E+00 0. -1.
</event>
<event>
 7    1  0.2903212E-011  0.5052888E+02  0.7816164E-02  0.1300439E+00
        -11   -1    0    0    0    0  0.00000000000E+00  0.00000000000E+00  0.45593999997E+02  0.45594000000E+02  0.51100000000E-03 0. -1.
         11   -1    0    0    0    0 -0.00000000000E+00 -0.00000000000E+00 -0.45593999997E+02  0.45594000000E+02  0.51100000000E-03 0.  1.
    9900012    2    1    2    0    0  0.16155907477E+02  0.29190111009E+02  0.23239792271E+02  0.50528882057E+02  0.30000067499E+02 0.  0.
        -12    1    1    2    0    0 -0.16155907477E+02 -0.29190111009E+02 -0.23239792271E+02  0.40659117943E+02  0.00000000000E+00 0.  1.
         11    1    3    3    0    0 -0.19753478477E+01  0.28838212313E+00 -0.14084780152E+01  0.24431483681E+01  0.51100000000E-03 0.  1.
        -11    1    3    3    0    0  0.13502938159E+02  0.25666347531E+01  0.13004498458E+02  0.18921784622E+02  0.51100000000E-03 0. -1.
        -12    1    3    3    0    0  0.46283171655E+01  0.26335094133E+02  0.11643771829E+02  0.29163949067E+02  0.00000000000E+00 0.  1.
</event>
<event>
 7    1  0.2903212E-011  0.5052886E+02  0.7816164E-02  0.1300439E+00
        -11   -1    0    0    0    0  0.00000000000E+00  0.00000000000E+00  0.45593999997E+02  0.45594000000E+02  0.51100000000E-03 0. -1.
         11   -1    0    0    0    0 -0.00000000000E+00 -0.00000000000E+00 -0.45593999997E+02  0.45594000000E+02  0.51100000000E-03 0.  1.
    9900012    2    1    2    0    0  0.34698114457E+02 -0.11755785117E+02  0.17635416051E+02  0.50528861668E+02  0.30000005525E+02 0.  0.
        -12    1    1    2    0    0 -0.34698114457E+02  0.11755785117E+02 -0.17635416051E+02  0.40659138332E+02  0.00000000000E+00 0.  1.
         11    1    3    3    0    0  0.10493974503E+02 -0.46250833354E+01  0.86690535483E+01  0.14375930802E+02  0.51100000000E-03 0. -1.
        -11    1    3    3    0    0  0.97318074992E+01  0.47714068510E+01  0.13061427538E+02  0.16972780860E+02  0.51100000000E-03 0.  1.
        -12    1    3    3    0    0  0.14472332455E+02 -0.11902108633E+02 -0.40950650351E+01  0.19180150005E+02  0.00000000000E+00 0.  1.
</event>
<event>
 7    1  0.2903212E-011  0.5052886E+02  0.7816164E-02  0.1300439E+00
        -11   -1    0    0    0    0  0.00000000000E+00  0.00000000000E+00  0.45593999997E+02  0.45594000000E+02  0.51100000000E-03 0.  1.
         11   -1    0    0    0    0 -0.00000000000E+00 -0.00000000000E+00 -0.45593999997E+02  0.45594000000E+02  0.51100000000E-03 0. -1.
    9900012    2    1    2    0    0  0.38945143741E+00 -0.73073000838E+01 -0.39995218601E+02  0.50528858127E+02  0.29999994762E+02 0.  0.
        -12    1    1    2    0    0 -0.38945143741E+00  0.73073000838E+01  0.39995218601E+02  0.40659141873E+02  0.00000000000E+00 0.  1.
         11    1    3    3    0    0 -0.37264015201E+01  0.14143060275E+01 -0.25852602456E+02  0.26158046254E+02  0.51100000000E-03 0. -1.
        -11    1    3    3    0    0  0.83325932836E+00  0.10072637781E+01 -0.14041866156E+02  0.14102585112E+02  0.51100000000E-03 0.  1.
        -12    1    3    3    0    0  0.32825936291E+01 -0.97288698894E+01 -0.10074998926E+00  0.10268226761E+02  0.00000000000E+00 0.  1.
</event>
<event>
 7    1  0.2903212E-011  0.5052886E+02  0.7816164E-02  0.1300439E+00
        -11   -1    0    0    0    0  0.00000000000E+00  0.00000000000E+00  0.45593999997E+02  0.45594000000E+02  0.51100000000E-03 0. -1.
         11   -1    0    0    0    0 -0.00000000000E+00 -0.00000000000E+00 -0.45593999997E+02  0.45594000000E+02  0.51100000000E-03 0.  1.
    9900012    2    1    2    0    0 -0.43667382646E+01  0.16602525198E+02  0.36857206609E+02  0.50528856809E+02  0.29999990756E+02 0.  0.
        -12    1    1    2    0    0  0.43667382646E+01 -0.16602525198E+02 -0.36857206609E+02  0.40659143191E+02  0.00000000000E+00 0.  1.
         11    1    3    3    0    0  0.21854679335E+01  0.12647286513E+02  0.49959154938E+01  0.13772773799E+02  0.51100000000E-03 0. -1.
        -11    1    3    3    0    0 -0.74817964725E+01 -0.12982401113E+01  0.43894084734E+01  0.87709527903E+01  0.51100000000E-03 0.  1.
         12    1    3    3    0    0  0.92959027441E+00  0.52534787966E+01  0.27471882642E+02  0.27985130220E+02  0.00000000000E+00 0. -1.
</event>
<event>
 7    1  0.2903212E-011  0.5052886E+02  0.7816164E-02  0.1300439E+00
        -11   -1    0    0    0    0  0.00000000000E+00  0.00000000000E+00  0.45593999997E+02  0.45594000000E+02  0.51100000000E-03 0.  1.
         11   -1    0    0    0    0 -0.00000000000E+00 -0.00000000000E+00 -0.45593999997E+02  0.45594000000E+02  0.51100000000E-03 0. -1.
    9900012    2    1    2    0    0 -0.10648517960E+02  0.37801868088E+02 -0.10525858661E+02  0.50528857532E+02  0.29999992954E+02 0.  0.
        -12    1    1    2    0    0  0.10648517960E+02 -0.37801868088E+02  0.10525858661E+02  0.40659142468E+02  0.00000000000E+00 0.  1.
         11    1    3    3    0    0 -0.45780387411E+01  0.18056236910E+02 -0.29457775675E+01  0.18859049175E+02  0.51100000000E-03 0. -1.
        -11    1    3    3    0    0 -0.59931458360E+01 -0.13291375335E+01 -0.86046857584E+01  0.10570005717E+02  0.51100000000E-03 0.  1.
         12    1    3    3    0    0 -0.77333383175E-01  0.21074768712E+02  0.10246046650E+01  0.21099802640E+02  0.00000000000E+00 0. -1.
</event>
<event>
 7    1  0.2903212E-011  0.5052885E+02  0.7816164E-02  0.1300439E+00
        -11   -1    0    0    0    0  0.00000000000E+00  0.00000000000E+00  0.45593999997E+02  0.45594000000E+02  0.51100000000E-03 0. -1.
         11   -1    0    0    0    0 -0.00000000000E+00 -0.00000000000E+00 -0.45593999997E+02  0.45594000000E+02  0.51100000000E-03 0.  1.
    9900012    2    1    2    0    0 -0.23735362879E+02 -0.32436385191E+02 -0.61383736377E+01  0.50528853843E+02  0.29999981742E+02 0.  0.
        -12    1    1    2    0    0  0.23735362879E+02  0.32436385191E+02  0.61383736377E+01  0.40659146157E+02  0.00000000000E+00 0.  1.
         11    1    3    3    0    0 -0.72745084687E+01 -0.51534041475E+01 -0.69453296034E+00  0.89419474424E+01  0.51100000000E-03 0.  1.
        -11    1    3    3    0    0 -0.15648696188E+02 -0.16483039973E+02 -0.14926822143E+02  0.27191585439E+02  0.51100000000E-03 0. -1.
        -12    1    3    3    0    0 -0.81215822271E+00 -0.10799941071E+02  0.94829814661E+01  0.14395320962E+02  0.00000000000E+00 0.  1.
</event>
<event>
 7    1  0.2903212E-011  0.5052886E+02  0.7816164E-02  0.1300439E+00
        -11   -1    0    0    0    0  0.00000000000E+00  0.00000000000E+00  0.45593999997E+02  0.45594000000E+02  0.51100000000E-03 0.  1.
         11   -1    0    0    0    0 -0.00000000000E+00 -0.00000000000E+00 -0.45593999997E+02  0.45594000000E+02  0.51100000000E-03 0. -1.
    9900012    2    1    2    0    0 -0.19564465886E+02  0.20708939304E+02 -0.29009258742E+02  0.50528860987E+02  0.30000003457E+02 0.  0.
        -12    1    1    2    0    0  0.19564465886E+02 -0.20708939304E+02  0.29009258742E+02  0.40659139013E+02  0.00000000000E+00 0.  1.
         11    1    3    3    0    0 -0.11436141945E+02  0.11014106301E+02 -0.10357139874E+02  0.18956957214E+02  0.51100000000E-03 0. -1.
        -11    1    3    3    0    0  0.31536960121E+00  0.77479165563E+01  0.29500956554E+01  0.82965494988E+01  0.51100000000E-03 0.  1.
         12    1    3    3    0    0 -0.84436935421E+01  0.19469164467E+01 -0.21602214524E+02  0.23275354275E+02  0.00000000000E+00 0. -1.
</event>
<event>
 7    1  0.2903212E-011  0.5052886E+02  0.7816164E-02  0.1300439E+00
        -11   -1    0    0    0    0  0.00000000000E+00  0.00000000000E+00  0.45593999997E+02  0.45594000000E+02  0.51100000000E-03 0.  1.
         11   -1    0    0    0    0 -0.00000000000E+00 -0.00000000000E+00 -0.45593999997E+02  0.45594000000E+02  0.51100000000E-03 0. -1.
    9900012    2    1    2    0    0 -0.16627711133E+02 -0.21350675892E+02 -0.30345242484E+02  0.50528857363E+02  0.29999992440E+02 0.  0.
        -12    1    1    2    0    0  0.16627711133E+02  0.21350675892E+02  0.30345242484E+02  0.40659142637E+02  0.00000000000E+00 0.  1.
         11    1    3    3    0    0  0.65329224861E+01 -0.38582244218E+01 -0.13039744681E+02  0.15086414866E+02  0.51100000000E-03 0. -1.
        -11    1    3    3    0    0 -0.12294298669E+01 -0.24675517053E+01 -0.59047716871E+01  0.65166431660E+01  0.51100000000E-03 0.  1.
        -12    1    3    3    0    0 -0.21931203752E+02 -0.15024899765E+02 -0.11400726116E+02  0.28925799331E+02  0.00000000000E+00 0.  1.
</event>
<event>
 7    1  0.2903212E-011  0.5052885E+02  0.7816164E-02  0.1300439E+00
        -11   -1    0    0    0    0  0.00000000000E+00  0.00000000000E+00  0.45593999997E+02  0.45594000000E+02  0.51100000000E-03 0.  1.
         11   -1    0    0    0    0 -0.00000000000E+00 -0.00000000000E+00 -0.45593999997E+02  0.45594000000E+02  0.51100000000E-03 0. -1.
    9900012    2    1    2    0    0  0.14822210830E+02  0.25131488690E+02 -0.28317434737E+02  0.50528846446E+02  0.29999959257E+02 0.  0.
        -12    1    1    2    0    0 -0.14822210830E+02 -0.25131488690E+02  0.28317434737E+02  0.40659153554E+02  0.00000000000E+00 0.  1.
         11    1    3    3    0    0 -0.85329909793E-01  0.70743325261E+00 -0.47274881224E+01  0.47808877009E+01  0.51100000000E-03 0. -1.
        -11    1    3    3    0    0  0.24675543088E+01 -0.25406078816E+01 -0.14151864508E+02  0.14588309772E+02  0.51100000000E-03 0.  1.
         12    1    3    3    0    0  0.12439986431E+02  0.26964663319E+02 -0.94380821059E+01  0.31159648973E+02  0.00000000000E+00 0. -1.
</event>
<event>
 7    1  0.2903212E-011  0.5052885E+02  0.7816164E-02  0.1300439E+00
        -11   -1    0    0    0    0  0.00000000000E+00  0.00000000000E+00  0.45593999997E+02  0.45594000000E+02  0.51100000000E-03 0.  1.
         11   -1    0    0    0    0 -0.00000000000E+00 -0.00000000000E+00 -0.45593999997E+02  0.45594000000E+02  0.51100000000E-03 0. -1.
    9900012    2    1    2    0    0  0.24088754876E+02 -0.19264702282E+02 -0.26490928959E+02  0.50528853641E+02  0.29999981128E+02 0.  0.
        -12    1    1    2    0    0 -0.24088754876E+02  0.19264702282E+02  0.26490928959E+02  0.40659146359E+02  0.00000000000E+00 0.  1.
         11    1    3    3    0    0  0.17079727601E+02 -0.15081001877E+02 -0.16581133414E+02  0.28179561709E+02  0.51100000000E-03 0. -1.
        -11    1    3    3    0    0 -0.54251780155E+01 -0.44778321557E+01 -0.61823052169E+01  0.93650646218E+01  0.51100000000E-03 0.  1.
         12    1    3    3    0    0  0.12434205291E+02  0.29413175093E+00 -0.37274903280E+01  0.12984227310E+02  0.00000000000E+00 0. -1.
</event>
<event>
 7    1  0.2903212E-011  0.5052886E+02  0.7816164E-02  0.1300439E+00
        -11   -1    0    0    0    0  0.00000000000E+00  0.00000000000E+00  0.45593999997E+02  0.45594000000E+02  0.51100000000E-03 0.  1.
         11   -1    0    0    0    0 -0.00000000000E+00 -0.00000000000E+00 -0.45593999997E+02  0.45594000000E+02  0.51100000000E-03 0. -1.
    9900012    2    1    2    0    0  0.31821837089E+02  0.21071466578E+02  0.14018915273E+02  0.50528855827E+02  0.29999987770E+02 0.  0.
        -12    1    1    2    0    0 -0.31821837089E+02 -0.21071466578E+02 -0.14018915273E+02  0.40659144173E+02  0.00000000000E+00 0.  1.
         11    1    3    3    0    0  0.67959644179E+01  0.42339508794E+01 -0.33797986896E+01  0.86910593060E+01  0.51100000000E-03 0. -1.
        -11    1    3    3    0    0 -0.43252616151E+01  0.44012288438E+01  0.27381892415E+01  0.67510283630E+01  0.51100000000E-03 0.  1.
        -12    1    3    3    0    0  0.29351134286E+02  0.12436286855E+02  0.14660524722E+02  0.35086768157E+02  0.00000000000E+00 0.  1.
</event>
<event>
 7    1  0.2903212E-011  0.5052886E+02  0.7816164E-02  0.1300439E+00
        -11   -1    0    0    0    0  0.00000000000E+00  0.00000000000E+00  0.45593999997E+02  0.45594000000E+02  0.51100000000E-03 0.  1.
         11   -1    0    0    0    0 -0.00000000000E+00 -0.00000000000E+00 -0.45593999997E+02  0.45594000000E+02  0.51100000000E-03 0. -1.
    9900012    2    1    2    0    0  0.12192780623E+00  0.10993837128E+02 -0.39144426705E+02  0.50528862488E+02  0.30000008017E+02 0.  0.
        -12    1    1    2    0    0 -0.12192780623E+00 -0.10993837128E+02  0.39144426705E+02  0.40659137512E+02  0.00000000000E+00 0.  1.
         11    1    3    3    0    0  0.71974803461E+01  0.74437738116E+01 -0.86037824686E+01  0.13462487323E+02  0.51100000000E-03 0. -1.
        -11    1    3    3    0    0 -0.41720452254E+01  0.10865624595E+02 -0.24569748830E+02  0.27187135138E+02  0.51100000000E-03 0.  1.
        -12    1    3    3    0    0 -0.29035073144E+01 -0.73155612787E+01 -0.59708954066E+01  0.98792400266E+01  0.00000000000E+00 0.  1.
</event>
<event>
 7    1  0.2903212E-011  0.5052887E+02  0.7816164E-02  0.1300439E+00
        -11   -1    0    0    0    0  0.00000000000E+00  0.00000000000E+00  0.45593999997E+02  0.45594000000E+02  0.51100000000E-03 0.  1.
         11   -1    0    0    0    0 -0.00000000000E+00 -0.00000000000E+00 -0.45593999997E+02  0.45594000000E+02  0.51100000000E-03 0. -1.
    9900012    2    1    2    0    0 -0.14827014074E+02 -0.14744618820E+02 -0.34870055090E+02  0.50528869753E+02  0.30000030100E+02 0.  0.
        -12    1    1    2    0    0  0.14827014074E+02  0.14744618820E+02  0.34870055090E+02  0.40659130247E+02  0.00000000000E+00 0.  1.
         11    1    3    3    0    0 -0.21949986343E+00 -0.69207328295E+01 -0.11354124876E+02  0.13298905032E+02  0.51100000000E-03 0. -1.
        -11    1    3    3    0    0  0.50890694705E+01 -0.73235602986E+01 -0.51705687677E+01  0.10308634496E+02  0.51100000000E-03 0.  1.
         12    1    3    3    0    0 -0.19696583681E+02 -0.50032569211E+00 -0.18345361447E+02  0.26921330225E+02  0.00000000000E+00 0. -1.
</event>
<event>
 7    1  0.2903212E-011  0.5052886E+02  0.7816164E-02  0.1300439E+00
        -11   -1    0    0    0    0  0.00000000000E+00  0.00000000000E+00  0.45593999997E+02  0.45594000000E+02  0.51100000000E-03 0. -1.
         11   -1    0    0    0    0 -0.00000000000E+00 -0.00000000000E+00 -0.45593999997E+02  0.45594000000E+02  0.51100000000E-03 0.  1.
    9900012    2    1    2    0    0 -0.35077678265E+02 -0.19327580681E+02  0.70118884775E+01  0.50528862436E+02  0.30000007860E+02 0.  0.
        -12    1    1    2    0    0  0.35077678265E+02  0.19327580681E+02 -0.70118884775E+01  0.40659137564E+02  0.00000000000E+00 0.  1.
         11    1    3    3    0    0 -0.25618797452E+02 -0.16257172526E+02  0.14974980497E+02  0.33835905227E+02  0.51100000000E-03 0. -1.
        -11    1    3    3    0    0 -0.61828917525E+01 -0.57961084395E+01 -0.10059780712E+01  0.85343433026E+01  0.51100000000E-03 0.  1.
        -12    1    3    3    0    0 -0.32759890610E+01  0.27257002844E+01 -0.69571139487E+01  0.81586139058E+01  0.00000000000E+00 0.  1.
</event>
<event>
 7    1  0.2903212E-011  0.5052886E+02  0.7816164E-02  0.1300439E+00
        -11   -1    0    0    0    0  0.00000000000E+00  0.00000000000E+00  0.45593999997E+02  0.45594000000E+02  0.51100000000E-03 0.  1.
         11   -1    0    0    0    0 -0.00000000000E+00 -0.00000000000E+00 -0.45593999997E+02  0.45594000000E+02  0.51100000000E-03 0. -1.
    9900012    2    1    2    0    0  0.21949591671E+02 -0.20638346243E+02 -0.27302741778E+02  0.50528860575E+02  0.30000002205E+02 0.  0.
        -12    1    1    2    0    0 -0.21949591671E+02  0.20638346243E+02  0.27302741778E+02  0.40659139425E+02  0.00000000000E+00 0.  1.
         11    1    3    3    0    0  0.18519615197E+02 -0.14188499054E+02 -0.18483824868E+02  0.29764768342E+02  0.51100000000E-03 0. -1.
        -11    1    3    3    0    0  0.85537779847E+01 -0.94815188654E+01 -0.51385698914E+01  0.13764854471E+02  0.51100000000E-03 0.  1.
        -12    1    3    3    0    0 -0.51238015109E+01  0.30316716768E+01 -0.36803470187E+01  0.69992377625E+01  0.00000000000E+00 0.  1.
</event>
<event>
 7    1  0.2903212E-011  0.5052886E+02  0.7816164E-02  0.1300439E+00
        -11   -1    0    0    0    0  0.00000000000E+00  0.00000000000E+00  0.45593999997E+02  0.45594000000E+02  0.51100000000E-03 0.  1.
         11   -1    0    0    0    0 -0.00000000000E+00 -0.00000000000E+00 -0.45593999997E+02  0.45594000000E+02  0.51100000000E-03 0. -1.
    9900012    2    1    2    0    0 -0.32474892329E+02  0.23653551447E+02 -0.62495206852E+01  0.50528860355E+02  0.30000001535E+02 0.  0.
        -12    1    1    2    0    0  0.32474892329E+02 -0.23653551447E+02  0.62495206852E+01  0.40659139645E+02  0.00000000000E+00 0.  1.
         11    1    3    3    0    0 -0.16256284824E+02  0.19737954418E+02  0.91485333948E+00  0.25586922397E+02  0.51100000000E-03 0. -1.
        -11    1    3    3    0    0 -0.15136036377E+02  0.81251864697E+01 -0.75226210527E+00  0.17195468906E+02  0.51100000000E-03 0.  1.
        -12    1    3    3    0    0 -0.10825711288E+01 -0.42095894400E+01 -0.64121119194E+01  0.77464690517E+01  0.00000000000E+00 0.  1.
</event>
<event>
 7    1  0.2903212E-011  0.5052886E+02  0.7816164E-02  0.1300439E+00
        -11   -1    0    0    0    0  0.00000000000E+00  0.00000000000E+00  0.45593999997E+02  0.45594000000E+02  0.51100000000E-03 0. -1.
         11   -1    0    0    0    0 -0.00000000000E+00 -0.00000000000E+00 -0.45593999997E+02  0.45594000000E+02  0.51100000000E-03 0.  1.
    9900012    2    1    2    0    0  0.50292170372E+01 -0.33735762181E+01  0.40205615660E+02  0.50528861162E+02  0.30000003987E+02 0.  0.
        -12    1    1    2    0    0 -0.50292170372E+01  0.33735762181E+01 -0.40205615660E+02  0.40659138838E+02  0.00000000000E+00 0.  1.
         11    1    3    3    0    0  0.64804183028E+01  0.36945991672E+01  0.21425618686E+00  0.74626932377E+01  0.51100000000E-03 0. -1.
        -11    1    3    3    0    0  0.26121588762E+01  0.12518090277E+01  0.11173292782E+01  0.31046456824E+01  0.51100000000E-03 0.  1.
        -12    1    3    3    0    0 -0.40633601418E+01 -0.83199844130E+01  0.38874030195E+02  0.39961522241E+02  0.00000000000E+00 0.  1.
</event>
<event>
 7    1  0.2903212E-011  0.5052885E+02  0.7816164E-02  0.1300439E+00
        -11   -1    0    0    0    0  0.00000000000E+00  0.00000000000E+00  0.45593999997E+02  0.45594000000E+02  0.51100000000E-03 0.  1.
         11   -1    0    0    0    0 -0.00000000000E+00 -0.00000000000E+00 -0.45593999997E+02  0.45594000000E+02  0.51100000000E-03 0. -1.
    9900012    2    1    2    0    0 -0.74981514948E+01  0.37657861021E+02 -0.13372707888E+02  0.50528854795E+02  0.29999984634E+02 0.  0.
        -12    1    1    2    0    0  0.74981514948E+01 -0.37657861021E+02  0.13372707888E+02  0.40659145205E+02  0.00000000000E+00 0.  1.
         11    1    3    3    0    0 -0.35579101641E+01  0.95043699342E+01 -0.69273696146E+00  0.10172101914E+02  0.51100000000E-03 0. -1.
        -11    1    3    3    0    0 -0.48369319063E+01  0.32700745460E+02 -0.85392227262E+01  0.34141660606E+02  0.51100000000E-03 0.  1.
         12    1    3    3    0    0  0.89669057561E+00 -0.45472543732E+01 -0.41407482007E+01  0.62150922749E+01  0.00000000000E+00 0. -1.
</event>
<event>
 7    1  0.2903212E-011  0.5052886E+02  0.7816164E-02  0.1300439E+00
        -11   -1    0    0    0    0  0.00000000000E+00  0.00000000000E+00  0.45593999997E+02  0.45594000000E+02  0.51100000000E-03 0. -1.
         11   -1    0    0    0    0 -0.00000000000E+00 -0.00000000000E+00 -0.45593999997E+02  0.45594000000E+02  0.51100000000E-03 0.  1.
    9900012    2    1    2    0    0 -0.29606647444E+02  0.82186060674E+00  0.27855636063E+02  0.50528862180E+02  0.30000007083E+02 0.  0.
        -12    1    1    2    0    0  0.29606647444E+02 -0.82186060674E+00 -0.27855636063E+02  0.40659137820E+02  0.00000000000E+00 0.  1.
         11    1    3    3    0    0 -0.23043559558E+02  0.93079596547E+01  0.17981217838E+02  0.30675200818E+02  0.51100000000E-03 0. -1.
        -11    1    3    3    0    0 -0.97443071158E+01 -0.54097193146E+01  0.27710878452E+01  0.11484577151E+02  0.51100000000E-03 0.  1.
         12    1    3    3    0    0  0.31812192292E+01 -0.30763797333E+01  0.71033303801E+01  0.83690842113E+01  0.00000000000E+00 0. -1.
</event>
<event>
 7    1  0.2903212E-011  0.5052886E+02  0.7816164E-02  0.1300439E+00
        -11   -1    0    0    0    0  0.00000000000E+00  0.00000000000E+00  0.45593999997E+02  0.45594000000E+02  0.51100000000E-03 0.  1.
         11   -1    0    0    0    0 -0.00000000000E+00 -0.00000000000E+00 -0.45593999997E+02  0.45594000000E+02  0.51100000000E-03 0. -1.
    9900012    2    1    2    0    0  0.72490575334E+01 -0.26716317756E+02 -0.29780114108E+02  0.50528859996E+02  0.30000000444E+02 0.  0.
        -12    1    1    2    0    0 -0.72490575334E+01  0.26716317756E+02  0.29780114108E+02  0.40659140004E+02  0.00000000000E+00 0.  1.
         11    1    3    3    0    0  0.43101187428E+01 -0.17227438285E+01 -0.79993926138E+01  0.92485270355E+01  0.51100000000E-03 0. -1.
        -11    1    3    3    0    0  0.13130318523E+02 -0.12617403418E+02 -0.71103758831E+01  0.19548953399E+02  0.51100000000E-03 0.  1.
        -12    1    3    3    0    0 -0.10191379732E+02 -0.12376170510E+02 -0.14670345611E+02  0.21731379562E+02  0.00000000000E+00 0.  1.
</event>
<event>
 7    1  0.2903212E-011  0.5052886E+02  0.7816164E-02  0.1300439E+00
        -11   -1    0    0    0    0  0.00000000000E+00  0.00000000000E+00  0.45593999997E+02  0.45594000000E+02  0.51100000000E-03 0.  1.
         11   -1    0    0    0    0 -0.00000000000E+00 -0.00000000000E+00 -0.45593999997E+02  0.45594000000E+02  0.51100000000E-03 0. -1.
    9900012    2    1    2    0    0 -0.10554748667E+02  0.21993064582E+02 -0.32527960805E+02  0.50528857814E+02  0.29999993813E+02 0.  0.
        -12    1    1    2    0    0  0.10554748667E+02 -0.21993064582E+02  0.32527960805E+02  0.40659142186E+02  0.00000000000E+00 0.  1.
         11    1    3    3    0    0 -0.42103264777E+01  0.71832839461E+01 -0.65155366640E+01  0.10572541586E+02  0.51100000000E-03 0. -1.
        -11    1    3    3    0    0 -0.17555198102E+00  0.21313366423E+02 -0.17233489906E+02  0.27409552740E+02  0.51100000000E-03 0.  1.
        -12    1    3    3    0    0 -0.61688702084E+01 -0.65035857876E+01 -0.87789342351E+01  0.12546763489E+02  0.00000000000E+00 0.  1.
</event>
<event>
 7    1  0.2903212E-011  0.5052886E+02  0.7816164E-02  0.1300439E+00
        -11   -1    0    0    0    0  0.00000000000E+00  0.00000000000E+00  0.45593999997E+02  0.45594000000E+02  0.51100000000E-03 0. -1.
         11   -1    0    0    0    0 -0.00000000000E+00 -0.00000000000E+00 -0.45593999997E+02  0.45594000000E+02  0.51100000000E-03 0.  1.
    9900012    2    1    2    0    0  0.27287721281E+02 -0.17370753870E+02  0.24633370845E+02  0.50528858569E+02  0.29999996106E+02 0.  0.
        -12    1    1    2    0    0 -0.27287721281E+02  0.17370753870E+02 -0.24633370845E+02  0.40659141431E+02  0.00000000000E+00 0.  1.
         11    1    3    3    0    0 -0.30422982410E+00 -0.64309747475E+01  0.15188655256E+02  0.16496825171E+02  0.51100000000E-03 0. -1.
        -11    1    3    3    0    0  0.69601673807E+01 -0.21805139242E+00  0.81852008587E+01  0.10746580374E+02  0.51100000000E-03 0.  1.
        -12    1    3    3    0    0  0.20631783725E+02 -0.10721727730E+02  0.12595147307E+01  0.23285453024E+02  0.00000000000E+00 0.  1.
</event>
<event>
 7    1  0.2903212E-011  0.5052885E+02  0.7816164E-02  0.1300439E+00
        -11   -1    0    0    0    0  0.00000000000E+00  0.00000000000E+00  0.45593999997E+02  0.45594000000E+02  0.51100000000E-03 0. -1.
         11   -1    0    0    0    0 -0.00000000000E+00 -0.00000000000E+00 -0.45593999997E+02  0.45594000000E+02  0.51100000000E-03 0.  1.
    9900012    2    1    2    0    0  0.72298919738E+01  0.34928131669E+02  0.19517181665E+02  0.50528854657E+02  0.29999984217E+02 0.  0.
        -12    1    1    2    0    0 -0.72298919738E+01 -0.34928131669E+02 -0.19517181665E+02  0.40659145343E+02  0.00000000000E+00 0.  1.
         11    1    3    3    0    0  0.78883995430E+01 -0.57160675797E+00 -0.24566256511E+00  0.79128965615E+01  0.51100000000E-03 0. -1.
        -11    1    3    3    0    0  0.52014316586E+01  0.23514445850E+02  0.99631023317E+01  0.26062376393E+02  0.51100000000E-03 0.  1.
         12    1    3    3    0    0 -0.58599392278E+01  0.11985292577E+02  0.97997418988E+01  0.16553581703E+02  0.00000000000E+00 0. -1.
</event>
<event>
 7    1  0.2903212E-011  0.5052886E+02  0.7816164E-02  0.1300439E+00
        -11   -1    0    0    0    0  0.00000000000E+00  0.00000000000E+00  0.45593999997E+02  0.45594000000E+02  0.51100000000E-03 0.  1.
         11   -1    0    0    0    0 -0.00000000000E+00 -0.00000000000E+00 -0.45593999997E+02  0.45594000000E+02  0.51100000000E-03 0. -1.
    9900012    2    1    2    0    0 -0.28835765806E+02 -0.27900680573E+02 -0.65739005941E+01  0.50528861604E+02  0.30000005333E+02 0.  0.
        -12    1    1    2    0    0  0.28835765806E+02  0.27900680573E+02  0.65739005941E+01  0.40659138396E+02  0.00000000000E+00 0.  1.
         11    1    3    3    0    0 -0.15314529127E+02 -0.20525298357E+02 -0.12377009733E+02  0.28443154628E+02  0.51100000000E-03 0. -1.
        -11    1    3    3    0    0  0.11183088030E+01 -0.17470999924E+01 -0.33395165411E+01  0.39313285225E+01  0.51100000000E-03 0.  1.
        -12    1    3    3    0    0 -0.14639545482E+02 -0.56282822241E+01  0.91426256804E+01  0.18154378454E+02  0.00000000000E+00 0.  1.
</event>
<event>
 7    1  0.2903212E-011  0.5052886E+02  0.7816164E-02  0.1300439E+00
        -11   -1    0    0    0    0  0.00000000000E+00  0.00000000000E+00  0.45593999997E+02  0.45594000000E+02  0.51100000000E-03 0. -1.
         11   -1    0    0    0    0 -0.00000000000E+00 -0.00000000000E+00 -0.45593999997E+02  0.45594000000E+02  0.51100000000E-03 0.  1.
    9900012    2    1    2    0    0  0.14672403088E+02 -0.37872563610E+02  0.18855789052E+01  0.50528857183E+02  0.29999991893E+02 0.  0.
        -12    1    1    2    0    0 -0.14672403088E+02  0.37872563610E+02 -0.18855789052E+01  0.40659142817E+02  0.00000000000E+00 0.  1.
         11    1    3    3    0    0  0.28226915657E+00  0.13422773380E+01  0.49567416097E+01  0.51430216776E+01  0.51100000000E-03 0. -1.
        -11    1    3    3    0    0 -0.26189589229E+01 -0.93397131273E-01 -0.75576436393E-01  0.26217133564E+01  0.51100000000E-03 0.  1.
         12    1    3    3    0    0  0.17009092855E+02 -0.39121443817E+02 -0.29955862682E+01  0.42764122149E+02  0.00000000000E+00 0. -1.
</event>
<event>
 7    1  0.2903212E-011  0.5052885E+02  0.7816164E-02  0.1300439E+00
        -11   -1    0    0    0    0  0.00000000000E+00  0.00000000000E+00  0.45593999997E+02  0.45594000000E+02  0.51100000000E-03 0.  1.
         11   -1    0    0    0    0 -0.00000000000E+00 -0.00000000000E+00 -0.45593999997E+02  0.45594000000E+02  0.51100000000E-03 0. -1.
    9900012    2    1    2    0    0  0.22727648780E+02  0.29906020442E+02 -0.15564389712E+02  0.50528852138E+02  0.29999976560E+02 0.  0.
        -12    1    1    2    0    0 -0.22727648780E+02 -0.29906020442E+02  0.15564389712E+02  0.40659147862E+02  0.00000000000E+00 0.  1.
         11    1    3    3    0    0  0.53817466043E+01  0.64509641830E+01 -0.10211058008E+02  0.13222852994E+02  0.51100000000E-03 0. -1.
        -11    1    3    3    0    0  0.18176323757E+02  0.62916848553E+01  0.23746569557E+00  0.19235915207E+02  0.51100000000E-03 0.  1.
         12    1    3    3    0    0 -0.83042158124E+00  0.17163371404E+02 -0.55907973999E+01  0.18070083938E+02  0.00000000000E+00 0. -1.
</event>
<event>
 7    1  0.2903212E-011  0.5052886E+02  0.7816164E-02  0.1300439E+00
        -11   -1    0    0    0    0  0.00000000000E+00  0.00000000000E+00  0.45593999997E+02  0.45594000000E+02  0.51100000000E-03 0.  1.
         11   -1    0    0    0    0 -0.00000000000E+00 -0.00000000000E+00 -0.45593999997E+02  0.45594000000E+02  0.51100000000E-03 0. -1.
    9900012    2    1    2    0    0  0.22695658725E+02  0.26231823296E+02 -0.21212363904E+02  0.50528857599E+02  0.29999993158E+02 0.  0.
        -12    1    1    2    0    0 -0.22695658725E+02 -0.26231823296E+02  0.21212363904E+02  0.40659142401E+02  0.00000000000E+00 0.  1.
         11    1    3    3    0    0 -0.39043408221E+00  0.13817920620E+01  0.34027380132E+01  0.36932931541E+01  0.51100000000E-03 0. -1.
        -11    1    3    3    0    0  0.53743201063E+01  0.67941065613E+01  0.32049869337E+01  0.92366196239E+01  0.51100000000E-03 0.  1.
         12    1    3    3    0    0  0.17711772701E+02  0.18055924672E+02 -0.27820088851E+02  0.37598944821E+02  0.00000000000E+00 0. -1.
</event>
<event>
 7    1  0.2903212E-011  0.5052886E+02  0.7816164E-02  0.1300439E+00
        -11   -1    0    0    0    0  0.00000000000E+00  0.00000000000E+00  0.45593999997E+02  0.45594000000E+02  0.51100000000E-03 0.  1.
         11   -1    0    0    0    0 -0.00000000000E+00 -0.00000000000E+00 -0.45593999997E+02  0.45594000000E+02  0.51100000000E-03 0. -1.
    9900012    2    1    2    0    0 -0.33358994263E+02  0.51943494571E+01 -0.22657487737E+02  0.50528861850E+02  0.30000006080E+02 0.  0.
        -12    1    1    2    0    0  0.33358994263E+02 -0.51943494571E+01  0.22657487737E+02  0.40659138150E+02  0.00000000000E+00 0.  1.
         11    1    3    3    0    0 -0.25874953825E+02  0.87468153807E+01 -0.21569336221E+02  0.34803107333E+02  0.51100000000E-03 0. -1.
        -11    1    3    3    0    0 -0.10706893150E+02 -0.14560665305E+00  0.64188556160E+00  0.10727104901E+02  0.51100000000E-03 0.  1.
        -12    1    3    3    0    0  0.32228527123E+01 -0.34068592706E+01 -0.17300370778E+01  0.49986496161E+01  0.00000000000E+00 0.  1.
</event>
<event>
 7    1  0.2903212E-011  0.5052886E+02  0.7816164E-02  0.1300439E+00
        -11   -1    0    0    0    0  0.00000000000E+00  0.00000000000E+00  0.45593999997E+02  0.45594000000E+02  0.51100000000E-03 0.  1.
         11   -1    0    0    0    0 -0.00000000000E+00 -0.00000000000E+00 -0.45593999997E+02  0.45594000000E+02  0.51100000000E-03 0. -1.
    9900012    2    1    2    0    0  0.19664159434E+02  0.33086730304E+02 -0.13105512788E+02  0.50528863832E+02  0.30000012104E+02 0.  0.
        -12    1    1    2    0    0 -0.19664159434E+02 -0.33086730304E+02  0.13105512788E+02  0.40659136168E+02  0.00000000000E+00 0.  1.
         11    1    3    3    0    0  0.10132132425E+01  0.16160406708E+02 -0.94177876220E-01  0.16192412291E+02  0.51100000000E-03 0.  1.
        -11    1    3    3    0    0 -0.28801908605E+01  0.73955269556E+01 -0.13135406115E+01  0.80445452042E+01  0.51100000000E-03 0. -1.
        -12    1    3    3    0    0  0.21531137052E+02  0.95307966401E+01 -0.11697794300E+02  0.26291906337E+02  0.00000000000E+00 0.  1.
</event>
<event>
 7    1  0.2903212E-011  0.5052881E+02  0.7816164E-02  0.1300439E+00
        -11   -1    0    0    0    0  0.00000000000E+00  0.00000000000E+00  0.45593999997E+02  0.45594000000E+02  0.51100000000E-03 0.  1.
         11   -1    0    0    0    0 -0.00000000000E+00 -0.00000000000E+00 -0.45593999997E+02  0.45594000000E+02  0.51100000000E-03 0. -1.
    9900012    2    1    2    0    0  0.29786261521E+02  0.31834350939E+01 -0.27492070461E+02  0.50528811953E+02  0.29999854413E+02 0.  0.
        -12    1    1    2    0    0 -0.29786261521E+02 -0.31834350939E+01  0.27492070461E+02  0.40659188047E+02  0.00000000000E+00 0.  1.
         11    1    3    3    0    0  0.14804118880E+02  0.62485735940E+00 -0.13817176366E+02  0.20259978912E+02  0.51100000000E-03 0. -1.
        -11    1    3    3    0    0  0.15683769349E+02 -0.81716631758E+00 -0.18545137369E+02  0.24301656365E+02  0.51100000000E-03 0.  1.
        -12    1    3    3    0    0 -0.70162670816E+00  0.33757440521E+01  0.48702432736E+01  0.59671766764E+01  0.00000000000E+00 0.  1.
</event>
<event>
 7    1  0.2903212E-011  0.5052885E+02  0.7816164E-02  0.1300439E+00
        -11   -1    0    0    0    0  0.00000000000E+00  0.00000000000E+00  0.45593999997E+02  0.45594000000E+02  0.51100000000E-03 0.  1.
         11   -1    0    0    0    0 -0.00000000000E+00 -0.00000000000E+00 -0.45593999997E+02  0.45594000000E+02  0.51100000000E-03 0. -1.
    9900012    2    1    2    0    0 -0.18383587083E+02 -0.18417001658E+02 -0.31241388147E+02  0.50528849032E+02  0.29999967117E+02 0.  0.
        -12    1    1    2    0    0  0.18383587083E+02  0.18417001658E+02  0.31241388147E+02  0.40659150968E+02  0.00000000000E+00 0.  1.
         11    1    3    3    0    0 -0.13150862648E+02 -0.96217705554E+01 -0.22313087802E+02  0.27629649736E+02  0.51100000000E-03 0. -1.
        -11    1    3    3    0    0 -0.35873399098E+01 -0.27231891294E+01 -0.14070643568E+02  0.14773888362E+02  0.51100000000E-03 0.  1.
        -12    1    3    3    0    0 -0.16453845254E+01 -0.60720419730E+01  0.51423432225E+01  0.81253109341E+01  0.00000000000E+00 0.  1.
</event>
<event>
 7    1  0.2903212E-011  0.5052885E+02  0.7816164E-02  0.1300439E+00
        -11   -1    0    0    0    0  0.00000000000E+00  0.00000000000E+00  0.45593999997E+02  0.45594000000E+02  0.51100000000E-03 0. -1.
         11   -1    0    0    0    0 -0.00000000000E+00 -0.00000000000E+00 -0.45593999997E+02  0.45594000000E+02  0.51100000000E-03 0.  1.
    9900012    2    1    2    0    0  0.36961024773E+02  0.11544916704E+02 -0.12400148786E+02  0.50528854118E+02  0.29999982577E+02 0.  0.
        -12    1    1    2    0    0 -0.36961024773E+02 -0.11544916704E+02  0.12400148786E+02  0.40659145882E+02  0.00000000000E+00 0.  1.
         11    1    3    3    0    0  0.45196665796E+01  0.34921689913E+01  0.30206736852E+01  0.64611995811E+01  0.51100000000E-03 0. -1.
        -11    1    3    3    0    0 -0.32813215437E+01  0.38343894967E+01 -0.36189167476E+01  0.62101668715E+01  0.51100000000E-03 0.  1.
         12    1    3    3    0    0  0.35722679737E+02  0.42183582158E+01 -0.11801905723E+02  0.37857487665E+02  0.00000000000E+00 0. -1.
</event>
<event>
 7    1  0.2903212E-011  0.5052886E+02  0.7816164E-02  0.1300439E+00
        -11   -1    0    0    0    0  0.00000000000E+00  0.00000000000E+00  0.45593999997E+02  0.45594000000E+02  0.51100000000E-03 0.  1.
         11   -1    0    0    0    0 -0.00000000000E+00 -0.00000000000E+00 -0.45593999997E+02  0.45594000000E+02  0.51100000000E-03 0. -1.
    9900012    2    1    2    0    0  0.17601094222E+02  0.10448908817E+02 -0.35131008390E+02  0.50528856333E+02  0.29999989309E+02 0.  0.
        -12    1    1    2    0    0 -0.17601094222E+02 -0.10448908817E+02  0.35131008390E+02  0.40659143667E+02  0.00000000000E+00 0.  1.
         11    1    3    3    0    0  0.11111394370E+02 -0.20238879221E+01 -0.24056971417E+02  0.26576250323E+02  0.51100000000E-03 0. -1.
        -11    1    3    3    0    0  0.38570208089E+01 -0.33512201221E+01 -0.17656314240E+01  0.54059911592E+01  0.51100000000E-03 0.  1.
        -12    1    3    3    0    0  0.26326790425E+01  0.15824016861E+02 -0.93084055483E+01  0.18546614851E+02  0.00000000000E+00 0.  1.
</event>
<event>
 7    1  0.2903212E-011  0.5052886E+02  0.7816164E-02  0.1300439E+00
        -11   -1    0    0    0    0  0.00000000000E+00  0.00000000000E+00  0.45593999997E+02  0.45594000000E+02  0.51100000000E-03 0. -1.
         11   -1    0    0    0    0 -0.00000000000E+00 -0.00000000000E+00 -0.45593999997E+02  0.45594000000E+02  0.51100000000E-03 0.  1.
    9900012    2    1    2    0    0  0.63787815712E+01  0.99643613255E+01  0.38899716330E+02  0.50528864722E+02  0.30000014810E+02 0.  0.
        -12    1    1    2    0    0 -0.63787815712E+01 -0.99643613255E+01 -0.38899716330E+02  0.40659135278E+02  0.00000000000E+00 0.  1.
         11    1    3    3    0    0  0.48813505196E+01 -0.80425337366E+00 -0.26505070306E+01  0.56124499253E+01  0.51100000000E-03 0. -1.
        -11    1    3    3    0    0 -0.20784013979E+01 -0.23711692544E+01  0.49932616712E+01  0.59054939151E+01  0.51100000000E-03 0.  1.
        -12    1    3    3    0    0  0.35758324495E+01  0.13139783954E+02  0.36556961690E+02  0.39010920882E+02  0.00000000000E+00 0.  1.
</event>
<event>
 7    1  0.2903212E-011  0.5052886E+02  0.7816164E-02  0.1300439E+00
        -11   -1    0    0    0    0  0.00000000000E+00  0.00000000000E+00  0.45593999997E+02  0.45594000000E+02  0.51100000000E-03 0.  1.
         11   -1    0    0    0    0 -0.00000000000E+00 -0.00000000000E+00 -0.45593999997E+02  0.45594000000E+02  0.51100000000E-03 0. -1.
    9900012    2    1    2    0    0  0.40645013144E+01  0.26292224306E+02 -0.30746783901E+02  0.50528856500E+02  0.29999989819E+02 0.  0.
        -12    1    1    2    0    0 -0.40645013144E+01 -0.26292224306E+02  0.30746783901E+02  0.40659143500E+02  0.00000000000E+00 0.  1.
         11    1    3    3    0    0  0.64576696609E+01  0.10797875960E+01 -0.22739646607E+02  0.23663452132E+02  0.51100000000E-03 0. -1.
        -11    1    3    3    0    0  0.42431864392E+00  0.37452813282E+01 -0.25057780833E+01  0.45261575981E+01  0.51100000000E-03 0.  1.
         12    1    3    3    0    0 -0.28174869905E+01  0.21467155382E+02 -0.55013592100E+01  0.22339246771E+02  0.00000000000E+00 0. -1.
</event>
<event>
 7    1  0.2903212E-011  0.5052887E+02  0.7816164E-02  0.1300439E+00
        -11   -1    0    0    0    0  0.00000000000E+00  0.00000000000E+00  0.45593999997E+02  0.45594000000E+02  0.51100000000E-03 0. -1.
         11   -1    0    0    0    0 -0.00000000000E+00 -0.00000000000E+00 -0.45593999997E+02  0.45594000000E+02  0.51100000000E-03 0.  1.
    9900012    2    1    2    0    0  0.45518561372E+01  0.34366148588E+02  0.21246490807E+02  0.50528868988E+02  0.30000027775E+02 0.  0.
        -12    1    1    2    0    0 -0.45518561372E+01 -0.34366148588E+02 -0.21246490807E+02  0.40659131012E+02  0.00000000000E+00 0.  1.
         11    1    3    3    0    0  0.12842883395E+02  0.20548307086E+02  0.12364590455E+02  0.27203964332E+02  0.51100000000E-03 0. -1.
        -11    1    3    3    0    0 -0.17075822861E+01  0.13214134386E+02  0.14886312135E+01  0.13406908964E+02  0.51100000000E-03 0.  1.
        -12    1    3    3    0    0 -0.65834449716E+01  0.60370711588E+00  0.73932691390E+01  0.99179956915E+01  0.00000000000E+00 0.  1.
</event>
<event>
 7    1  0.3449487E-011  0.5052887E+02  0.7816164E-02  0.1300439E+00
        -11   -1    0    0    0    0  0.00000000000E+00  0.00000000000E+00  0.45593999997E+02  0.45594000000E+02  0.51100000000E-03 0. -1.
         11   -1    0    0    0    0 -0.00000000000E+00 -0.00000000000E+00 -0.45593999997E+02  0.45594000000E+02  0.51100000000E-03 0.  1.
    9900012    2    1    2    0    0  0.56778734137E+00 -0.40308490885E+02  0.52979443413E+01  0.50528867765E+02  0.30000024057E+02 0.  0.
        -12    1    1    2    0    0 -0.56778734137E+00  0.40308490885E+02 -0.52979443413E+01  0.40659132235E+02  0.00000000000E+00 0.  1.
         11    1    3    3    0    0  0.21628720518E+01 -0.29809662023E+00  0.66689600525E+01  0.70172576945E+01  0.51100000000E-03 0. -1.
        -11    1    3    3    0    0  0.30773729419E-01  0.47641682387E+00 -0.29237068097E+01  0.29624283591E+01  0.51100000000E-03 0.  1.
         12    1    3    3    0    0 -0.16258584398E+01 -0.40486811089E+02  0.15526910985E+01  0.40549181711E+02  0.00000000000E+00 0. -1.
</event>
<event>
 7    1  0.2903212E-011  0.5052887E+02  0.7816164E-02  0.1300439E+00
        -11   -1    0    0    0    0  0.00000000000E+00  0.00000000000E+00  0.45593999997E+02  0.45594000000E+02  0.51100000000E-03 0. -1.
         11   -1    0    0    0    0 -0.00000000000E+00 -0.00000000000E+00 -0.45593999997E+02  0.45594000000E+02  0.51100000000E-03 0.  1.
    9900012    2    1    2    0    0  0.12356604305E+02  0.34417347401E+02  0.17774291815E+02  0.50528869149E+02  0.30000028264E+02 0.  0.
        -12    1    1    2    0    0 -0.12356604305E+02 -0.34417347401E+02 -0.17774291815E+02  0.40659130851E+02  0.00000000000E+00 0.  1.
         11    1    3    3    0    0 -0.39598890108E+00  0.21124847869E+02  0.14003017169E+02  0.25347593471E+02  0.51100000000E-03 0. -1.
        -11    1    3    3    0    0  0.11070649301E+01  0.70994922665E+01 -0.55087202088E+01  0.90539704993E+01  0.51100000000E-03 0.  1.
        -12    1    3    3    0    0  0.11645528276E+02  0.61930072659E+01  0.92799948550E+01  0.16127305179E+02  0.00000000000E+00 0.  1.
</event>
