<event>
 7    1  0.2680581E-011  0.5052886E+02  0.7816164E-02  0.1300439E+00
        -11   -1    0    0    0    0  0.00000000000E+00  0.00000000000E+00  0.45593999997E+02  0.45594000000E+02  0.51100000000E-03 0.  1.
         11   -1    0    0    0    0 -0.00000000000E+00 -0.00000000000E+00 -0.45593999997E+02  0.45594000000E+02  0.51100000000E-03 0. -1.
    9900012    2    1    2    0    0  0.25463898769E+02  0.25779773389E+02  0.18443402274E+02  0.50528856576E+02  0.29999990049E+02 0.  0.
         12    1    1    2    0    0 -0.25463898769E+02 -0.25779773389E+02 -0.18443402274E+02  0.40659143424E+02  0.00000000000E+00 0. -1.
         11    1    3    3    0    0  0.70492322499E+01  0.10258163536E+02  0.43040298809E+01  0.13169900073E+02  0.51100000000E-03 0. -1.
        -11    1    3    3    0    0  0.23813295087E+02  0.96045220126E+01  0.14213796452E+02  0.29348796838E+02  0.51100000000E-03 0.  1.
         12    1    3    3    0    0 -0.53986285682E+01  0.59170878400E+01 -0.74424058987E-01  0.80101596653E+01  0.00000000000E+00 0. -1.
</event>
<event>
 7    1  0.2680581E-011  0.5052886E+02  0.7816164E-02  0.1300439E+00
        -11   -1    0    0    0    0  0.00000000000E+00  0.00000000000E+00  0.45593999997E+02  0.45594000000E+02  0.51100000000E-03 0.  1.
         11   -1    0    0    0    0 -0.00000000000E+00 -0.00000000000E+00 -0.45593999997E+02  0.45594000000E+02  0.51100000000E-03 0. -1.
    9900012    2    1    2    0    0  0.32326014304E+02 -0.11332603010E+02  0.21903575212E+02  0.50528859591E+02  0.29999999212E+02 0.  0.
         12    1    1    2    0    0 -0.32326014304E+02  0.11332603010E+02 -0.21903575212E+02  0.40659140409E+02  0.00000000000E+00 0. -1.
         11    1    3    3    0    0 -0.91721935130E-01 -0.64940210470E+00 -0.24512744866E+01  0.25374953945E+01  0.51100000000E-03 0. -1.
        -11    1    3    3    0    0  0.28547425372E+02 -0.18864441595E+01  0.92118957859E+01  0.30056167274E+02  0.51100000000E-03 0.  1.
         12    1    3    3    0    0  0.38703108672E+01 -0.87967567460E+01  0.15142953912E+02  0.17935196922E+02  0.00000000000E+00 0. -1.
</event>
<event>
 7    1  0.2680581E-011  0.5052886E+02  0.7816164E-02  0.1300439E+00
        -11   -1    0    0    0    0  0.00000000000E+00  0.00000000000E+00  0.45593999997E+02  0.45594000000E+02  0.51100000000E-03 0. -1.
         11   -1    0    0    0    0 -0.00000000000E+00 -0.00000000000E+00 -0.45593999997E+02  0.45594000000E+02  0.51100000000E-03 0.  1.
    9900012    2    1    2    0    0  0.19769306873E+02 -0.32171380901E+02 -0.15077870781E+02  0.50528862889E+02  0.30000009237E+02 0.  0.
         12    1    1    2    0    0 -0.19769306873E+02  0.32171380901E+02  0.15077870781E+02  0.40659137111E+02  0.00000000000E+00 0. -1.
         11    1    3    3    0    0  0.74558348874E-01  0.26797917510E+01 -0.35193492980E+01  0.44241001931E+01  0.51100000000E-03 0. -1.
        -11    1    3    3    0    0  0.14413930145E+02 -0.13363092599E+02 -0.13572078809E+02  0.23885873430E+02  0.51100000000E-03 0.  1.
         12    1    3    3    0    0  0.52808183789E+01 -0.21488080053E+02  0.20135573255E+01  0.22218889266E+02  0.00000000000E+00 0. -1.
</event>
<event>
 7    1  0.2680581E-011  0.5052886E+02  0.7816164E-02  0.1300439E+00
        -11   -1    0    0    0    0  0.00000000000E+00  0.00000000000E+00  0.45593999997E+02  0.45594000000E+02  0.51100000000E-03 0.  1.
         11   -1    0    0    0    0 -0.00000000000E+00 -0.00000000000E+00 -0.45593999997E+02  0.45594000000E+02  0.51100000000E-03 0. -1.
    9900012    2    1    2    0    0 -0.56014627759E+00  0.27998481814E+02  0.29477731926E+02  0.50528862931E+02  0.30000009364E+02 0.  0.
         12    1    1    2    0    0  0.56014627759E+00 -0.27998481814E+02 -0.29477731926E+02  0.40659137069E+02  0.00000000000E+00 0. -1.
         11    1    3    3    0    0  0.26924927685E+01  0.28847468583E+02  0.21662698366E+02  0.36175937607E+02  0.51100000000E-03 0. -1.
        -11    1    3    3    0    0  0.43328018558E+01  0.31437719436E+00  0.32301612529E+01  0.54134967371E+01  0.51100000000E-03 0.  1.
         12    1    3    3    0    0 -0.75854409019E+01 -0.11633639640E+01  0.45848723071E+01  0.89394285869E+01  0.00000000000E+00 0. -1.
</event>
<event>
 7    1  0.2680581E-011  0.5052886E+02  0.7816164E-02  0.1300439E+00
        -11   -1    0    0    0    0  0.00000000000E+00  0.00000000000E+00  0.45593999997E+02  0.45594000000E+02  0.51100000000E-03 0.  1.
         11   -1    0    0    0    0 -0.00000000000E+00 -0.00000000000E+00 -0.45593999997E+02  0.45594000000E+02  0.51100000000E-03 0. -1.
    9900012    2    1    2    0    0  0.43576190628E+01  0.37406107843E+02  0.15328394759E+02  0.50528862851E+02  0.30000009121E+02 0.  0.
         12    1    1    2    0    0 -0.43576190628E+01 -0.37406107843E+02 -0.15328394759E+02  0.40659137149E+02  0.00000000000E+00 0. -1.
         11    1    3    3    0    0  0.10978384384E+02  0.82395727252E+01  0.23623994793E+01  0.13928259544E+02  0.51100000000E-03 0.  1.
        -11    1    3    3    0    0  0.45356874950E+01  0.17431710436E+02  0.74990904255E+01  0.19510852038E+02  0.51100000000E-03 0. -1.
         12    1    3    3    0    0 -0.11156452816E+02  0.11734824682E+02  0.54669048539E+01  0.17089751269E+02  0.00000000000E+00 0. -1.
</event>
<event>
 7    1  0.2680581E-011  0.5052883E+02  0.7816164E-02  0.1300439E+00
        -11   -1    0    0    0    0  0.00000000000E+00  0.00000000000E+00  0.45593999997E+02  0.45594000000E+02  0.51100000000E-03 0.  1.
         11   -1    0    0    0    0 -0.00000000000E+00 -0.00000000000E+00 -0.45593999997E+02  0.45594000000E+02  0.51100000000E-03 0. -1.
    9900012    2    1    2    0    0 -0.26105368294E+02 -0.22985038824E+02  0.21056261751E+02  0.50528826097E+02  0.29999897404E+02 0.  0.
         12    1    1    2    0    0  0.26105368294E+02  0.22985038824E+02 -0.21056261751E+02  0.40659173903E+02  0.00000000000E+00 0. -1.
         11    1    3    3    0    0 -0.12717174702E+02  0.16019193413E+01  0.71186377715E+01  0.14661776221E+02  0.51100000000E-03 0. -1.
        -11    1    3    3    0    0 -0.15583749750E+02 -0.11711858639E+02  0.11332695375E+02  0.22548855265E+02  0.51100000000E-03 0.  1.
         12    1    3    3    0    0  0.21955561573E+01 -0.12875099527E+02  0.26049286046E+01  0.13318194611E+02  0.00000000000E+00 0. -1.
</event>
<event>
 7    1  0.2680581E-011  0.5052885E+02  0.7816164E-02  0.1300439E+00
        -11   -1    0    0    0    0  0.00000000000E+00  0.00000000000E+00  0.45593999997E+02  0.45594000000E+02  0.51100000000E-03 0. -1.
         11   -1    0    0    0    0 -0.00000000000E+00 -0.00000000000E+00 -0.45593999997E+02  0.45594000000E+02  0.51100000000E-03 0.  1.
    9900012    2    1    2    0    0  0.18430030175E+02  0.35396969336E+02  0.77817040159E+01  0.50528851363E+02  0.29999974204E+02 0.  0.
         12    1    1    2    0    0 -0.18430030175E+02 -0.35396969336E+02 -0.77817040159E+01  0.40659148637E+02  0.00000000000E+00 0. -1.
         11    1    3    3    0    0  0.11240418080E+02  0.80387266667E+01  0.68801687727E+01  0.15437125627E+02  0.51100000000E-03 0. -1.
        -11    1    3    3    0    0 -0.31281721190E+01  0.12014516152E+01  0.56562307631E+01  0.65743359738E+01  0.51100000000E-03 0.  1.
        -12    1    3    3    0    0  0.10317784214E+02  0.26156791054E+02 -0.47546955200E+01  0.28517389762E+02  0.00000000000E+00 0.  1.
</event>
<event>
 7    1  0.2680581E-011  0.5052890E+02  0.7816164E-02  0.1300439E+00
        -11   -1    0    0    0    0  0.00000000000E+00  0.00000000000E+00  0.45593999997E+02  0.45594000000E+02  0.51100000000E-03 0.  1.
         11   -1    0    0    0    0 -0.00000000000E+00 -0.00000000000E+00 -0.45593999997E+02  0.45594000000E+02  0.51100000000E-03 0. -1.
    9900012    2    1    2    0    0 -0.24318027275E+02 -0.21838271194E+02  0.24184419630E+02  0.50528896565E+02  0.30000111600E+02 0.  0.
         12    1    1    2    0    0  0.24318027275E+02  0.21838271194E+02 -0.24184419630E+02  0.40659103435E+02  0.00000000000E+00 0. -1.
         11    1    3    3    0    0 -0.42688446590E+01 -0.15182758535E+02  0.37858190356E+01  0.16219482652E+02  0.51100000000E-03 0. -1.
        -11    1    3    3    0    0  0.17033684775E+01 -0.41421263098E+01  0.79399221362E+01  0.91159770912E+01  0.51100000000E-03 0.  1.
         12    1    3    3    0    0 -0.21752551093E+02 -0.25133863488E+01  0.12458678459E+02  0.25193436822E+02  0.00000000000E+00 0. -1.
</event>
<event>
 7    1  0.2680581E-011  0.5052886E+02  0.7816164E-02  0.1300439E+00
        -11   -1    0    0    0    0  0.00000000000E+00  0.00000000000E+00  0.45593999997E+02  0.45594000000E+02  0.51100000000E-03 0. -1.
         11   -1    0    0    0    0 -0.00000000000E+00 -0.00000000000E+00 -0.45593999997E+02  0.45594000000E+02  0.51100000000E-03 0.  1.
    9900012    2    1    2    0    0 -0.93689354279E+00 -0.19652403997E+02 -0.35581894182E+02  0.50528856552E+02  0.29999989974E+02 0.  0.
         12    1    1    2    0    0  0.93689354279E+00  0.19652403997E+02  0.35581894182E+02  0.40659143448E+02  0.00000000000E+00 0. -1.
         11    1    3    3    0    0 -0.65647866342E-01  0.63579280977E+00 -0.17809944231E+02  0.17821410043E+02  0.51100000000E-03 0. -1.
        -11    1    3    3    0    0 -0.70082268948E+00 -0.57885989829E+01 -0.17237512740E+02  0.18197001851E+02  0.51100000000E-03 0.  1.
         12    1    3    3    0    0 -0.17042298697E+00 -0.14499597824E+02 -0.53443721079E+00  0.14510444658E+02  0.00000000000E+00 0. -1.
</event>
<event>
 7    1  0.2680581E-011  0.5052886E+02  0.7816164E-02  0.1300439E+00
        -11   -1    0    0    0    0  0.00000000000E+00  0.00000000000E+00  0.45593999997E+02  0.45594000000E+02  0.51100000000E-03 0.  1.
         11   -1    0    0    0    0 -0.00000000000E+00 -0.00000000000E+00 -0.45593999997E+02  0.45594000000E+02  0.51100000000E-03 0. -1.
    9900012    2    1    2    0    0  0.15750947156E+02  0.57717629524E+01  0.37037277171E+02  0.50528862231E+02  0.30000007236E+02 0.  0.
         12    1    1    2    0    0 -0.15750947156E+02 -0.57717629524E+01 -0.37037277171E+02  0.40659137769E+02  0.00000000000E+00 0. -1.
         11    1    3    3    0    0  0.32477946281E+01 -0.53651736505E+01  0.98348708457E+01  0.11664387813E+02  0.51100000000E-03 0.  1.
        -11    1    3    3    0    0  0.18841919365E+02  0.97934250670E+01  0.19906787280E+02  0.29106859672E+02  0.51100000000E-03 0. -1.
         12    1    3    3    0    0 -0.63387668371E+01  0.13435115358E+01  0.72956190459E+01  0.97576147457E+01  0.00000000000E+00 0. -1.
</event>
<event>
 7    1  0.2680581E-011  0.5052887E+02  0.7816164E-02  0.1300439E+00
        -11   -1    0    0    0    0  0.00000000000E+00  0.00000000000E+00  0.45593999997E+02  0.45594000000E+02  0.51100000000E-03 0. -1.
         11   -1    0    0    0    0 -0.00000000000E+00 -0.00000000000E+00 -0.45593999997E+02  0.45594000000E+02  0.51100000000E-03 0.  1.
    9900012    2    1    2    0    0 -0.11099318084E+01  0.36178973005E+02 -0.18520652348E+02  0.50528873107E+02  0.30000040296E+02 0.  0.
         12    1    1    2    0    0  0.11099318084E+01 -0.36178973005E+02  0.18520652348E+02  0.40659126893E+02  0.00000000000E+00 0. -1.
         11    1    3    3    0    0  0.50453724460E+01  0.49735843036E+01 -0.84646676050E+01  0.11038248134E+02  0.51100000000E-03 0. -1.
        -11    1    3    3    0    0 -0.52863631864E+01 -0.25253728770E+00 -0.56027923104E+01  0.77071844895E+01  0.51100000000E-03 0.  1.
         12    1    3    3    0    0 -0.86894106797E+00  0.31457925989E+02 -0.44531924323E+01  0.31783440483E+02  0.00000000000E+00 0. -1.
</event>
<event>
 7    1  0.2680581E-011  0.5052886E+02  0.7816164E-02  0.1300439E+00
        -11   -1    0    0    0    0  0.00000000000E+00  0.00000000000E+00  0.45593999997E+02  0.45594000000E+02  0.51100000000E-03 0.  1.
         11   -1    0    0    0    0 -0.00000000000E+00 -0.00000000000E+00 -0.45593999997E+02  0.45594000000E+02  0.51100000000E-03 0. -1.
    9900012    2    1    2    0    0 -0.27651255278E+02 -0.19634625312E+02  0.22428893135E+02  0.50528859861E+02  0.30000000032E+02 0.  0.
         12    1    1    2    0    0  0.27651255278E+02  0.19634625312E+02 -0.22428893135E+02  0.40659140139E+02  0.00000000000E+00 0. -1.
         11    1    3    3    0    0 -0.19991178441E+01  0.41979484496E+00 -0.33491086726E+01  0.39229107851E+01  0.51100000000E-03 0. -1.
        -11    1    3    3    0    0 -0.50210554540E+01 -0.14950605589E+02  0.42042134698E+01  0.16321979553E+02  0.51100000000E-03 0.  1.
        -12    1    3    3    0    0 -0.20631081980E+02 -0.51038145680E+01  0.21573788338E+02  0.30283969523E+02  0.00000000000E+00 0.  1.
</event>
<event>
 7    1  0.2885131E-011  0.5052887E+02  0.7816164E-02  0.1300439E+00
        -11   -1    0    0    0    0  0.00000000000E+00  0.00000000000E+00  0.45593999997E+02  0.45594000000E+02  0.51100000000E-03 0.  1.
         11   -1    0    0    0    0 -0.00000000000E+00 -0.00000000000E+00 -0.45593999997E+02  0.45594000000E+02  0.51100000000E-03 0. -1.
    9900012    2    1    2    0    0  0.23522752488E+02  0.17264570888E+02  0.28315708243E+02  0.50528872785E+02  0.30000039319E+02 0.  0.
         12    1    1    2    0    0 -0.23522752488E+02 -0.17264570888E+02 -0.28315708243E+02  0.40659127215E+02  0.00000000000E+00 0. -1.
         11    1    3    3    0    0  0.83751665325E+01 -0.19277626376E+01 -0.27657195463E+01  0.90282272958E+01  0.51100000000E-03 0. -1.
        -11    1    3    3    0    0  0.51263462111E+00  0.90926117517E+01  0.66188277399E+01  0.11258208722E+02  0.51100000000E-03 0.  1.
        -12    1    3    3    0    0  0.14634951335E+02  0.10099721774E+02  0.24462600049E+02  0.30242436767E+02  0.00000000000E+00 0.  1.
</event>
<event>
 7    1  0.2680581E-011  0.5052885E+02  0.7816164E-02  0.1300439E+00
        -11   -1    0    0    0    0  0.00000000000E+00  0.00000000000E+00  0.45593999997E+02  0.45594000000E+02  0.51100000000E-03 0. -1.
         11   -1    0    0    0    0 -0.00000000000E+00 -0.00000000000E+00 -0.45593999997E+02  0.45594000000E+02  0.51100000000E-03 0.  1.
    9900012    2    1    2    0    0 -0.13266134646E+02 -0.38419247478E+02  0.10664197709E+01  0.50528853964E+02  0.29999982110E+02 0.  0.
         12    1    1    2    0    0  0.13266134646E+02  0.38419247478E+02 -0.10664197709E+01  0.40659146036E+02  0.00000000000E+00 0. -1.
         11    1    3    3    0    0 -0.73298179377E+01 -0.10415140578E+01 -0.22453946218E+01  0.77364578329E+01  0.51100000000E-03 0. -1.
        -11    1    3    3    0    0 -0.83147720040E+01 -0.85628307279E+01 -0.46403249615E+01  0.12805862703E+02  0.51100000000E-03 0.  1.
         12    1    3    3    0    0  0.23784552957E+01 -0.28814902692E+02  0.79521393542E+01  0.29986533429E+02  0.00000000000E+00 0. -1.
</event>
<event>
 7    1  0.2680581E-011  0.5052892E+02  0.7816164E-02  0.1300439E+00
        -11   -1    0    0    0    0  0.00000000000E+00  0.00000000000E+00  0.45593999997E+02  0.45594000000E+02  0.51100000000E-03 0. -1.
         11   -1    0    0    0    0 -0.00000000000E+00 -0.00000000000E+00 -0.45593999997E+02  0.45594000000E+02  0.51100000000E-03 0.  1.
    9900012    2    1    2    0    0  0.28093187087E+02  0.20732498206E+02 -0.20834990123E+02  0.50528924064E+02  0.30000195184E+02 0.  0.
         12    1    1    2    0    0 -0.28093187087E+02 -0.20732498206E+02  0.20834990123E+02  0.40659075936E+02  0.00000000000E+00 0. -1.
         11    1    3    3    0    0  0.14399886382E+02  0.59263940314E+01 -0.19509211870E+02  0.24961735157E+02  0.51100000000E-03 0. -1.
        -11    1    3    3    0    0  0.97851672763E+01  0.47731498946E+01 -0.74385469477E+01  0.13185766549E+02  0.51100000000E-03 0.  1.
         12    1    3    3    0    0  0.39081334288E+01  0.10032954280E+02  0.61127686943E+01  0.12381422357E+02  0.00000000000E+00 0. -1.
</event>
<event>
 7    1  0.2680581E-011  0.5052886E+02  0.7816164E-02  0.1300439E+00
        -11   -1    0    0    0    0  0.00000000000E+00  0.00000000000E+00  0.45593999997E+02  0.45594000000E+02  0.51100000000E-03 0.  1.
         11   -1    0    0    0    0 -0.00000000000E+00 -0.00000000000E+00 -0.45593999997E+02  0.45594000000E+02  0.51100000000E-03 0. -1.
    9900012    2    1    2    0    0  0.29188369990E+02 -0.27902858138E+02 -0.47576720110E+01  0.50528857388E+02  0.29999992516E+02 0.  0.
         12    1    1    2    0    0 -0.29188369990E+02  0.27902858138E+02  0.47576720110E+01  0.40659142612E+02  0.00000000000E+00 0. -1.
         11    1    3    3    0    0 -0.13281620081E+01  0.22982587888E+01 -0.14113130191E+01  0.30062954744E+01  0.51100000000E-03 0. -1.
        -11    1    3    3    0    0  0.17306202938E+02 -0.83590216387E+01 -0.92396368449E+01  0.21324839793E+02  0.51100000000E-03 0.  1.
        -12    1    3    3    0    0  0.13210329060E+02 -0.21842095289E+02  0.58932778530E+01  0.26197722121E+02  0.00000000000E+00 0.  1.
</event>
<event>
 7    1  0.2680581E-011  0.5052897E+02  0.7816164E-02  0.1300438E+00
        -11   -1    0    0    0    0  0.00000000000E+00  0.00000000000E+00  0.45593999997E+02  0.45594000000E+02  0.51100000000E-03 0.  1.
         11   -1    0    0    0    0 -0.00000000000E+00 -0.00000000000E+00 -0.45593999997E+02  0.45594000000E+02  0.51100000000E-03 0. -1.
    9900012    2    1    2    0    0 -0.17235516826E+02  0.29005108477E+02 -0.22689147842E+02  0.50528969173E+02  0.30000332295E+02 0.  0.
         12    1    1    2    0    0  0.17235516826E+02 -0.29005108477E+02  0.22689147842E+02  0.40659030827E+02  0.00000000000E+00 0. -1.
         11    1    3    3    0    0  0.62582504944E+01  0.52023541692E+01 -0.66162281544E+01  0.10488310798E+02  0.51100000000E-03 0. -1.
        -11    1    3    3    0    0 -0.54679666029E+01  0.14988394913E+02 -0.34141815978E+01  0.16315859680E+02  0.51100000000E-03 0.  1.
         12    1    3    3    0    0 -0.18025800718E+02  0.88143593944E+01 -0.12658738090E+02  0.23724798694E+02  0.00000000000E+00 0. -1.
</event>
<event>
 7    1  0.2680581E-011  0.5052879E+02  0.7816164E-02  0.1300439E+00
        -11   -1    0    0    0    0  0.00000000000E+00  0.00000000000E+00  0.45593999997E+02  0.45594000000E+02  0.51100000000E-03 0. -1.
         11   -1    0    0    0    0 -0.00000000000E+00 -0.00000000000E+00 -0.45593999997E+02  0.45594000000E+02  0.51100000000E-03 0.  1.
    9900012    2    1    2    0    0 -0.13440601596E+02  0.37682550050E+02 -0.72489096618E+01  0.50528793898E+02  0.29999799533E+02 0.  0.
         12    1    1    2    0    0  0.13440601596E+02 -0.37682550050E+02  0.72489096618E+01  0.40659206102E+02  0.00000000000E+00 0. -1.
         11    1    3    3    0    0 -0.15387131542E+02  0.17634050724E+02  0.59826815552E+01  0.24156076687E+02  0.51100000000E-03 0. -1.
        -11    1    3    3    0    0 -0.27429242679E+01  0.16260054187E+02 -0.11488522582E+02  0.20097242276E+02  0.51100000000E-03 0.  1.
        -12    1    3    3    0    0  0.46894542148E+01  0.37884451387E+01 -0.17430686346E+01  0.62754749356E+01  0.00000000000E+00 0.  1.
</event>
<event>
 7    1  0.2680581E-011  0.5052887E+02  0.7816164E-02  0.1300439E+00
        -11   -1    0    0    0    0  0.00000000000E+00  0.00000000000E+00  0.45593999997E+02  0.45594000000E+02  0.51100000000E-03 0.  1.
         11   -1    0    0    0    0 -0.00000000000E+00 -0.00000000000E+00 -0.45593999997E+02  0.45594000000E+02  0.51100000000E-03 0. -1.
    9900012    2    1    2    0    0  0.37894849657E+01 -0.62700259095E+01  0.39993646821E+02  0.50528865636E+02  0.30000017587E+02 0.  0.
         12    1    1    2    0    0 -0.37894849657E+01  0.62700259095E+01 -0.39993646821E+02  0.40659134364E+02  0.00000000000E+00 0. -1.
         11    1    3    3    0    0 -0.22548044948E+01  0.63292858056E+01  0.14228078408E+02  0.15734745552E+02  0.51100000000E-03 0. -1.
        -11    1    3    3    0    0 -0.38300375895E+01 -0.12057258188E+02  0.18945988949E+02  0.22781509178E+02  0.51100000000E-03 0.  1.
        -12    1    3    3    0    0  0.98743270500E+01 -0.54205352742E+00  0.68195794640E+01  0.12012610906E+02  0.00000000000E+00 0.  1.
</event>
<event>
 7    1  0.2680581E-011  0.5052886E+02  0.7816164E-02  0.1300439E+00
        -11   -1    0    0    0    0  0.00000000000E+00  0.00000000000E+00  0.45593999997E+02  0.45594000000E+02  0.51100000000E-03 0. -1.
         11   -1    0    0    0    0 -0.00000000000E+00 -0.00000000000E+00 -0.45593999997E+02  0.45594000000E+02  0.51100000000E-03 0.  1.
    9900012    2    1    2    0    0 -0.15396845663E+02  0.37455466275E+02  0.36318746803E+01  0.50528864201E+02  0.30000013225E+02 0.  0.
         12    1    1    2    0    0  0.15396845663E+02 -0.37455466275E+02 -0.36318746803E+01  0.40659135799E+02  0.00000000000E+00 0. -1.
         11    1    3    3    0    0  0.18657835310E+01  0.13280085922E+02  0.57866400845E+01  0.14605719222E+02  0.51100000000E-03 0. -1.
        -11    1    3    3    0    0 -0.21658756699E+02  0.22084644193E+02 -0.11593101158E+01  0.30954438310E+02  0.51100000000E-03 0.  1.
         12    1    3    3    0    0  0.43961275046E+01  0.20907361600E+01 -0.99545528842E+00  0.49687066686E+01  0.00000000000E+00 0. -1.
</event>
<event>
 7    1  0.2680581E-011  0.5052888E+02  0.7816164E-02  0.1300439E+00
        -11   -1    0    0    0    0  0.00000000000E+00  0.00000000000E+00  0.45593999997E+02  0.45594000000E+02  0.51100000000E-03 0. -1.
         11   -1    0    0    0    0 -0.00000000000E+00 -0.00000000000E+00 -0.45593999997E+02  0.45594000000E+02  0.51100000000E-03 0.  1.
    9900012    2    1    2    0    0  0.10543690862E+02 -0.13727684531E+02 -0.36790558925E+02  0.50528880905E+02  0.30000063999E+02 0.  0.
         12    1    1    2    0    0 -0.10543690862E+02  0.13727684531E+02  0.36790558925E+02  0.40659119095E+02  0.00000000000E+00 0. -1.
         11    1    3    3    0    0  0.11353953734E+02  0.32024559665E+01 -0.49751226408E+01  0.12803118182E+02  0.51100000000E-03 0. -1.
        -11    1    3    3    0    0  0.37514737750E+01 -0.68541887575E+01 -0.20333277133E+02  0.21782920333E+02  0.51100000000E-03 0.  1.
        -12    1    3    3    0    0 -0.45617366475E+01 -0.10075951740E+02 -0.11482159151E+02  0.15942842390E+02  0.00000000000E+00 0.  1.
</event>
<event>
 7    1  0.2680581E-011  0.5052888E+02  0.7816164E-02  0.1300439E+00
        -11   -1    0    0    0    0  0.00000000000E+00  0.00000000000E+00  0.45593999997E+02  0.45594000000E+02  0.51100000000E-03 0. -1.
         11   -1    0    0    0    0 -0.00000000000E+00 -0.00000000000E+00 -0.45593999997E+02  0.45594000000E+02  0.51100000000E-03 0.  1.
    9900012    2    1    2    0    0  0.36841752281E+02 -0.17157362067E+02  0.12140808420E+01  0.50528883230E+02  0.30000071067E+02 0.  0.
         12    1    1    2    0    0 -0.36841752281E+02  0.17157362067E+02 -0.12140808420E+01  0.40659116770E+02  0.00000000000E+00 0. -1.
         11    1    3    3    0    0  0.27469199171E+02 -0.15643772364E+02 -0.51013794425E+01  0.32020440180E+02  0.51100000000E-03 0. -1.
        -11    1    3    3    0    0  0.29016540524E+01  0.60406246193E+00 -0.47012733346E+01  0.55575587199E+01  0.51100000000E-03 0.  1.
        -12    1    3    3    0    0  0.64708990573E+01 -0.21176521646E+01  0.11016733619E+02  0.12950884330E+02  0.00000000000E+00 0.  1.
</event>
<event>
 7    1  0.2680581E-011  0.5052890E+02  0.7816164E-02  0.1300439E+00
        -11   -1    0    0    0    0  0.00000000000E+00  0.00000000000E+00  0.45593999997E+02  0.45594000000E+02  0.51100000000E-03 0. -1.
         11   -1    0    0    0    0 -0.00000000000E+00 -0.00000000000E+00 -0.45593999997E+02  0.45594000000E+02  0.51100000000E-03 0.  1.
    9900012    2    1    2    0    0  0.11814047834E+02  0.34843380081E+02  0.17306931052E+02  0.50528896172E+02  0.30000110403E+02 0.  0.
         12    1    1    2    0    0 -0.11814047834E+02 -0.34843380081E+02 -0.17306931052E+02  0.40659103828E+02  0.00000000000E+00 0. -1.
         11    1    3    3    0    0  0.42253273695E+01  0.92349779504E+01  0.10135779910E+02  0.14348248805E+02  0.51100000000E-03 0. -1.
        -11    1    3    3    0    0  0.62377652697E+01  0.19700770364E+02  0.15534507869E+02  0.25852485442E+02  0.51100000000E-03 0.  1.
         12    1    3    3    0    0  0.13509551945E+01  0.59076317660E+01 -0.83633567264E+01  0.10328161925E+02  0.00000000000E+00 0. -1.
</event>
<event>
 7    1  0.2680581E-011  0.5052892E+02  0.7816164E-02  0.1300439E+00
        -11   -1    0    0    0    0  0.00000000000E+00  0.00000000000E+00  0.45593999997E+02  0.45594000000E+02  0.51100000000E-03 0.  1.
         11   -1    0    0    0    0 -0.00000000000E+00 -0.00000000000E+00 -0.45593999997E+02  0.45594000000E+02  0.51100000000E-03 0. -1.
    9900012    2    1    2    0    0 -0.19438416261E+02 -0.74448210753E+01  0.34926830220E+02  0.50528919135E+02  0.30000180203E+02 0.  0.
         12    1    1    2    0    0  0.19438416261E+02  0.74448210753E+01 -0.34926830220E+02  0.40659080865E+02  0.00000000000E+00 0. -1.
         11    1    3    3    0    0 -0.62344504082E+01  0.55703590778E+01  0.93153771183E+01  0.12516929466E+02  0.51100000000E-03 0. -1.
        -11    1    3    3    0    0 -0.28434787859E+01  0.45558595929E+01  0.12910527836E+02  0.13982952389E+02  0.51100000000E-03 0.  1.
         12    1    3    3    0    0 -0.10360487067E+02 -0.17571039746E+02  0.12700925265E+02  0.24029037280E+02  0.00000000000E+00 0. -1.
</event>
<event>
 7    1  0.2680581E-011  0.5052886E+02  0.7816164E-02  0.1300439E+00
        -11   -1    0    0    0    0  0.00000000000E+00  0.00000000000E+00  0.45593999997E+02  0.45594000000E+02  0.51100000000E-03 0. -1.
         11   -1    0    0    0    0 -0.00000000000E+00 -0.00000000000E+00 -0.45593999997E+02  0.45594000000E+02  0.51100000000E-03 0.  1.
    9900012    2    1    2    0    0  0.99395625573E+01 -0.28546645117E+02 -0.27193013065E+02  0.50528858214E+02  0.29999995027E+02 0.  0.
         12    1    1    2    0    0 -0.99395625573E+01  0.28546645117E+02  0.27193013065E+02  0.40659141786E+02  0.00000000000E+00 0. -1.
         11    1    3    3    0    0 -0.42475889501E+00 -0.15882007564E+01  0.29576425341E+01  0.33838515603E+01  0.51100000000E-03 0. -1.
        -11    1    3    3    0    0  0.12215569238E+02 -0.35419667077E+01 -0.11591650620E+02  0.17208486986E+02  0.51100000000E-03 0.  1.
         12    1    3    3    0    0 -0.18512477860E+01 -0.23416477653E+02 -0.18559004979E+02  0.29936519668E+02  0.00000000000E+00 0. -1.
</event>
<event>
 7    1  0.2680581E-011  0.5052885E+02  0.7816164E-02  0.1300439E+00
        -11   -1    0    0    0    0  0.00000000000E+00  0.00000000000E+00  0.45593999997E+02  0.45594000000E+02  0.51100000000E-03 0.  1.
         11   -1    0    0    0    0 -0.00000000000E+00 -0.00000000000E+00 -0.45593999997E+02  0.45594000000E+02  0.51100000000E-03 0. -1.
    9900012    2    1    2    0    0  0.12361554340E+01 -0.40141000858E+02  0.63512333196E+01  0.50528853491E+02  0.29999980671E+02 0.  0.
         12    1    1    2    0    0 -0.12361554340E+01  0.40141000858E+02 -0.63512333196E+01  0.40659146509E+02  0.00000000000E+00 0. -1.
         11    1    3    3    0    0 -0.21971158145E+01 -0.23108633266E+02 -0.20153709579E+01  0.23300171022E+02  0.51100000000E-03 0. -1.
        -11    1    3    3    0    0 -0.63483420015E+01 -0.28905504745E+00  0.76520725119E+00  0.64008234929E+01  0.51100000000E-03 0.  1.
         12    1    3    3    0    0  0.97816132500E+01 -0.16743312545E+02  0.76013970263E+01  0.20827858976E+02  0.00000000000E+00 0. -1.
</event>
<event>
 7    1  0.2680581E-011  0.5052887E+02  0.7816164E-02  0.1300439E+00
        -11   -1    0    0    0    0  0.00000000000E+00  0.00000000000E+00  0.45593999997E+02  0.45594000000E+02  0.51100000000E-03 0. -1.
         11   -1    0    0    0    0 -0.00000000000E+00 -0.00000000000E+00 -0.45593999997E+02  0.45594000000E+02  0.51100000000E-03 0.  1.
    9900012    2    1    2    0    0 -0.35145068636E+01 -0.40227219175E+02 -0.47522892486E+01  0.50528866043E+02  0.30000018823E+02 0.  0.
         12    1    1    2    0    0  0.35145068636E+01  0.40227219175E+02  0.47522892486E+01  0.40659133957E+02  0.00000000000E+00 0. -1.
         11    1    3    3    0    0  0.55844149879E+01 -0.42823625496E+01  0.30075343135E+01  0.76530766801E+01  0.51100000000E-03 0. -1.
        -11    1    3    3    0    0 -0.23131740207E+01 -0.23487949647E+02  0.46183695281E+01  0.24049197285E+02  0.51100000000E-03 0.  1.
        -12    1    3    3    0    0 -0.67857478308E+01 -0.12456906978E+02 -0.12378193090E+02  0.18826592078E+02  0.00000000000E+00 0.  1.
</event>
<event>
 7    1  0.2680581E-011  0.5052887E+02  0.7816164E-02  0.1300439E+00
        -11   -1    0    0    0    0  0.00000000000E+00  0.00000000000E+00  0.45593999997E+02  0.45594000000E+02  0.51100000000E-03 0. -1.
         11   -1    0    0    0    0 -0.00000000000E+00 -0.00000000000E+00 -0.45593999997E+02  0.45594000000E+02  0.51100000000E-03 0.  1.
    9900012    2    1    2    0    0  0.88828864471E+01  0.28755396726E+02 -0.27338373526E+02  0.50528865977E+02  0.30000018624E+02 0.  0.
         12    1    1    2    0    0 -0.88828864471E+01 -0.28755396726E+02  0.27338373526E+02  0.40659134023E+02  0.00000000000E+00 0. -1.
         11    1    3    3    0    0 -0.48925145954E+01  0.50887925713E+01 -0.81750608636E+01  0.10801117039E+02  0.51100000000E-03 0. -1.
        -11    1    3    3    0    0  0.82162417688E+01  0.21144719876E+02 -0.23169770337E+02  0.32425978246E+02  0.51100000000E-03 0.  1.
         12    1    3    3    0    0  0.55591592737E+01  0.25218842782E+01  0.40064576753E+01  0.73017706925E+01  0.00000000000E+00 0. -1.
</event>
<event>
 7    1  0.2680581E-011  0.5052885E+02  0.7816164E-02  0.1300439E+00
        -11   -1    0    0    0    0  0.00000000000E+00  0.00000000000E+00  0.45593999997E+02  0.45594000000E+02  0.51100000000E-03 0.  1.
         11   -1    0    0    0    0 -0.00000000000E+00 -0.00000000000E+00 -0.45593999997E+02  0.45594000000E+02  0.51100000000E-03 0. -1.
    9900012    2    1    2    0    0  0.11682721965E+02  0.16934876555E+02  0.35069791941E+02  0.50528851666E+02  0.29999975125E+02 0.  0.
         12    1    1    2    0    0 -0.11682721965E+02 -0.16934876555E+02 -0.35069791941E+02  0.40659148334E+02  0.00000000000E+00 0. -1.
         11    1    3    3    0    0 -0.55811535391E+01  0.19962387435E+01  0.66465352751E+01  0.89056541238E+01  0.51100000000E-03 0. -1.
        -11    1    3    3    0    0  0.59559333790E+01  0.16938441114E+01 -0.20516393034E+01  0.65231491153E+01  0.51100000000E-03 0.  1.
        -12    1    3    3    0    0  0.11307942125E+02  0.13244793700E+02  0.30474895969E+02  0.35100048427E+02  0.00000000000E+00 0.  1.
</event>
<event>
 7    1  0.2680581E-011  0.5052885E+02  0.7816164E-02  0.1300439E+00
        -11   -1    0    0    0    0  0.00000000000E+00  0.00000000000E+00  0.45593999997E+02  0.45594000000E+02  0.51100000000E-03 0.  1.
         11   -1    0    0    0    0 -0.00000000000E+00 -0.00000000000E+00 -0.45593999997E+02  0.45594000000E+02  0.51100000000E-03 0. -1.
    9900012    2    1    2    0    0 -0.42373637769E+01  0.19892492224E+02  0.35206528069E+02  0.50528854444E+02  0.29999983569E+02 0.  0.
         12    1    1    2    0    0  0.42373637769E+01 -0.19892492224E+02 -0.35206528069E+02  0.40659145556E+02  0.00000000000E+00 0. -1.
         11    1    3    3    0    0  0.58409275831E+01 -0.84061693198E+00  0.60811323774E+01  0.84736794317E+01  0.51100000000E-03 0. -1.
        -11    1    3    3    0    0  0.19207279129E+01  0.15898278582E+02  0.97196274913E+01  0.18732741829E+02  0.51100000000E-03 0.  1.
         12    1    3    3    0    0 -0.11999019273E+02  0.48348305735E+01  0.19405768200E+02  0.23322433184E+02  0.00000000000E+00 0. -1.
</event>
<event>
 7    1  0.2680581E-011  0.5052886E+02  0.7816164E-02  0.1300439E+00
        -11   -1    0    0    0    0  0.00000000000E+00  0.00000000000E+00  0.45593999997E+02  0.45594000000E+02  0.51100000000E-03 0. -1.
         11   -1    0    0    0    0 -0.00000000000E+00 -0.00000000000E+00 -0.45593999997E+02  0.45594000000E+02  0.51100000000E-03 0.  1.
    9900012    2    1    2    0    0 -0.26393012904E+02 -0.87537082884E+01  0.29663902016E+02  0.50528860539E+02  0.30000002093E+02 0.  0.
         12    1    1    2    0    0  0.26393012904E+02  0.87537082884E+01 -0.29663902016E+02  0.40659139461E+02  0.00000000000E+00 0. -1.
         11    1    3    3    0    0 -0.80318579898E+01 -0.83890536520E+01  0.20481196671E+02  0.23544986330E+02  0.51100000000E-03 0. -1.
        -11    1    3    3    0    0 -0.76127647339E+01  0.72512299152E+01  0.89525674712E+01  0.13808801062E+02  0.51100000000E-03 0.  1.
        -12    1    3    3    0    0 -0.10748390180E+02 -0.76158845516E+01  0.23013787311E+00  0.13175073146E+02  0.00000000000E+00 0.  1.
</event>
<event>
 7    1  0.2680581E-011  0.5052886E+02  0.7816164E-02  0.1300439E+00
        -11   -1    0    0    0    0  0.00000000000E+00  0.00000000000E+00  0.45593999997E+02  0.45594000000E+02  0.51100000000E-03 0. -1.
         11   -1    0    0    0    0 -0.00000000000E+00 -0.00000000000E+00 -0.45593999997E+02  0.45594000000E+02  0.51100000000E-03 0.  1.
    9900012    2    1    2    0    0 -0.13819438066E+02  0.17437562260E+01 -0.38198801175E+02  0.50528856312E+02  0.29999989245E+02 0.  0.
         12    1    1    2    0    0  0.13819438066E+02 -0.17437562260E+01  0.38198801175E+02  0.40659143688E+02  0.00000000000E+00 0. -1.
         11    1    3    3    0    0  0.35695175336E+01 -0.27144210417E+01 -0.44956024260E+01  0.63498014495E+01  0.51100000000E-03 0. -1.
        -11    1    3    3    0    0 -0.31627644180E+01  0.12017385300E+02 -0.13724171168E+02  0.18514143316E+02  0.51100000000E-03 0.  1.
        -12    1    3    3    0    0 -0.14226191181E+02 -0.75592080321E+01 -0.19979027581E+02  0.25664911547E+02  0.00000000000E+00 0.  1.
</event>
<event>
 7    1  0.2680581E-011  0.5052885E+02  0.7816164E-02  0.1300439E+00
        -11   -1    0    0    0    0  0.00000000000E+00  0.00000000000E+00  0.45593999997E+02  0.45594000000E+02  0.51100000000E-03 0.  1.
         11   -1    0    0    0    0 -0.00000000000E+00 -0.00000000000E+00 -0.45593999997E+02  0.45594000000E+02  0.51100000000E-03 0. -1.
    9900012    2    1    2    0    0  0.12218416441E+02 -0.38185843613E+02  0.67615165332E+01  0.50528850248E+02  0.29999970813E+02 0.  0.
         12    1    1    2    0    0 -0.12218416441E+02  0.38185843613E+02 -0.67615165332E+01  0.40659149752E+02  0.00000000000E+00 0. -1.
         11    1    3    3    0    0 -0.66807176611E+01 -0.13926635619E+02  0.43249736031E+01  0.16040217114E+02  0.51100000000E-03 0. -1.
        -11    1    3    3    0    0 -0.52592098104E+00  0.15944230595E+01 -0.10231895324E+01  0.19661370378E+01  0.51100000000E-03 0.  1.
        -12    1    3    3    0    0  0.19425055083E+02 -0.25853631053E+02  0.34597324625E+01  0.32522496096E+02  0.00000000000E+00 0.  1.
</event>
<event>
 7    1  0.2680581E-011  0.5052886E+02  0.7816164E-02  0.1300439E+00
        -11   -1    0    0    0    0  0.00000000000E+00  0.00000000000E+00  0.45593999997E+02  0.45594000000E+02  0.51100000000E-03 0. -1.
         11   -1    0    0    0    0 -0.00000000000E+00 -0.00000000000E+00 -0.45593999997E+02  0.45594000000E+02  0.51100000000E-03 0.  1.
    9900012    2    1    2    0    0  0.18228565653E+02 -0.34883529965E+02  0.10199217933E+02  0.50528864310E+02  0.30000013558E+02 0.  0.
         12    1    1    2    0    0 -0.18228565653E+02  0.34883529965E+02 -0.10199217933E+02  0.40659135690E+02  0.00000000000E+00 0. -1.
         11    1    3    3    0    0 -0.23204184468E+01 -0.70082700513E+01  0.88061055249E+01  0.11491200358E+02  0.51100000000E-03 0. -1.
        -11    1    3    3    0    0  0.50871075623E+01 -0.66681251074E+01 -0.75760400648E+01  0.11302165240E+02  0.51100000000E-03 0.  1.
         12    1    3    3    0    0  0.15461876537E+02 -0.21207134806E+02  0.89691524729E+01  0.27735498712E+02  0.00000000000E+00 0. -1.
</event>
<event>
 7    1  0.2680581E-011  0.5052887E+02  0.7816164E-02  0.1300439E+00
        -11   -1    0    0    0    0  0.00000000000E+00  0.00000000000E+00  0.45593999997E+02  0.45594000000E+02  0.51100000000E-03 0. -1.
         11   -1    0    0    0    0 -0.00000000000E+00 -0.00000000000E+00 -0.45593999997E+02  0.45594000000E+02  0.51100000000E-03 0.  1.
    9900012    2    1    2    0    0  0.16908407702E+02 -0.36270292949E+02 -0.71928041965E+01  0.50528870228E+02  0.30000031545E+02 0.  0.
         12    1    1    2    0    0 -0.16908407702E+02  0.36270292949E+02  0.71928041965E+01  0.40659129772E+02  0.00000000000E+00 0. -1.
         11    1    3    3    0    0  0.48758621141E+01 -0.21402644574E+02 -0.11120519514E+02  0.24607177421E+02  0.51100000000E-03 0. -1.
        -11    1    3    3    0    0 -0.27238172903E+01 -0.74115642324E+01 -0.23474370159E+01  0.82377743236E+01  0.51100000000E-03 0.  1.
         12    1    3    3    0    0  0.14756362878E+02 -0.74560841431E+01  0.62751523333E+01  0.17683918484E+02  0.00000000000E+00 0. -1.
</event>
<event>
 7    1  0.2680581E-011  0.5052885E+02  0.7816164E-02  0.1300439E+00
        -11   -1    0    0    0    0  0.00000000000E+00  0.00000000000E+00  0.45593999997E+02  0.45594000000E+02  0.51100000000E-03 0. -1.
         11   -1    0    0    0    0 -0.00000000000E+00 -0.00000000000E+00 -0.45593999997E+02  0.45594000000E+02  0.51100000000E-03 0.  1.
    9900012    2    1    2    0    0 -0.11019412874E+02  0.32144854031E+02 -0.22325928710E+02  0.50528853508E+02  0.29999980721E+02 0.  0.
         12    1    1    2    0    0  0.11019412874E+02 -0.32144854031E+02  0.22325928710E+02  0.40659146492E+02  0.00000000000E+00 0. -1.
         11    1    3    3    0    0  0.23892519004E+01  0.11902948150E+02  0.55983334902E+01  0.13368995379E+02  0.51100000000E-03 0. -1.
        -11    1    3    3    0    0 -0.16979421285E+01  0.12496611623E+01 -0.34340131227E+01  0.40295293622E+01  0.51100000000E-03 0.  1.
         12    1    3    3    0    0 -0.11710722646E+02  0.18992244719E+02 -0.24490249077E+02  0.33130328767E+02  0.00000000000E+00 0. -1.
</event>
<event>
 7    1  0.2680581E-011  0.5052884E+02  0.7816164E-02  0.1300439E+00
        -11   -1    0    0    0    0  0.00000000000E+00  0.00000000000E+00  0.45593999997E+02  0.45594000000E+02  0.51100000000E-03 0.  1.
         11   -1    0    0    0    0 -0.00000000000E+00 -0.00000000000E+00 -0.45593999997E+02  0.45594000000E+02  0.51100000000E-03 0. -1.
    9900012    2    1    2    0    0 -0.36885306589E+02 -0.15012963222E+02  0.82007445547E+01  0.50528842137E+02  0.29999946161E+02 0.  0.
         12    1    1    2    0    0  0.36885306589E+02  0.15012963222E+02 -0.82007445547E+01  0.40659157863E+02  0.00000000000E+00 0. -1.
         11    1    3    3    0    0 -0.68656058722E+01 -0.77707039772E+01 -0.70798101999E+01  0.12555640048E+02  0.51100000000E-03 0. -1.
        -11    1    3    3    0    0 -0.20608223544E+02 -0.93864837387E+01  0.37797505624E+01  0.22958472710E+02  0.51100000000E-03 0.  1.
        -12    1    3    3    0    0 -0.94114771730E+01  0.21442244941E+01  0.11500804192E+02  0.15014729379E+02  0.00000000000E+00 0.  1.
</event>
<event>
 7    1  0.2680581E-011  0.5052886E+02  0.7816164E-02  0.1300439E+00
        -11   -1    0    0    0    0  0.00000000000E+00  0.00000000000E+00  0.45593999997E+02  0.45594000000E+02  0.51100000000E-03 0.  1.
         11   -1    0    0    0    0 -0.00000000000E+00 -0.00000000000E+00 -0.45593999997E+02  0.45594000000E+02  0.51100000000E-03 0. -1.
    9900012    2    1    2    0    0 -0.82821049039E+01 -0.19366906466E+01  0.39759548508E+02  0.50528859209E+02  0.29999998052E+02 0.  0.
         12    1    1    2    0    0  0.82821049039E+01  0.19366906466E+01 -0.39759548508E+02  0.40659140791E+02  0.00000000000E+00 0. -1.
         11    1    3    3    0    0  0.38805858751E+01 -0.34234683763E+01  0.40328406320E+01  0.65607077577E+01  0.51100000000E-03 0. -1.
        -11    1    3    3    0    0 -0.76732653472E+01 -0.98021892692E+01  0.24235644281E+02  0.27245703689E+02  0.51100000000E-03 0.  1.
         12    1    3    3    0    0 -0.44894254318E+01  0.11288966999E+02  0.11491063595E+02  0.16722447762E+02  0.00000000000E+00 0. -1.
</event>
<event>
 7    1  0.2680581E-011  0.5052886E+02  0.7816164E-02  0.1300439E+00
        -11   -1    0    0    0    0  0.00000000000E+00  0.00000000000E+00  0.45593999997E+02  0.45594000000E+02  0.51100000000E-03 0.  1.
         11   -1    0    0    0    0 -0.00000000000E+00 -0.00000000000E+00 -0.45593999997E+02  0.45594000000E+02  0.51100000000E-03 0. -1.
    9900012    2    1    2    0    0  0.31394942270E+02 -0.11083862550E+02  0.23338188754E+02  0.50528862485E+02  0.30000008010E+02 0.  0.
         12    1    1    2    0    0 -0.31394942270E+02  0.11083862550E+02 -0.23338188754E+02  0.40659137515E+02  0.00000000000E+00 0. -1.
         11    1    3    3    0    0  0.10276003817E+02 -0.55183730740E+01  0.12689483739E+02  0.17235767858E+02  0.51100000000E-03 0.  1.
        -11    1    3    3    0    0  0.64210931692E+01 -0.13257194536E+02  0.30316768434E+01  0.15039105998E+02  0.51100000000E-03 0. -1.
         12    1    3    3    0    0  0.14697845284E+02  0.76917050608E+01  0.76170281720E+01  0.18253988630E+02  0.00000000000E+00 0. -1.
</event>
<event>
 7    1  0.2680581E-011  0.5052882E+02  0.7816164E-02  0.1300439E+00
        -11   -1    0    0    0    0  0.00000000000E+00  0.00000000000E+00  0.45593999997E+02  0.45594000000E+02  0.51100000000E-03 0.  1.
         11   -1    0    0    0    0 -0.00000000000E+00 -0.00000000000E+00 -0.45593999997E+02  0.45594000000E+02  0.51100000000E-03 0. -1.
    9900012    2    1    2    0    0 -0.13784406830E+02  0.36297184572E+02  0.12069514718E+02  0.50528823114E+02  0.29999888337E+02 0.  0.
         12    1    1    2    0    0  0.13784406830E+02 -0.36297184572E+02 -0.12069514718E+02  0.40659176886E+02  0.00000000000E+00 0. -1.
         11    1    3    3    0    0 -0.17491898303E+02  0.26048935018E+02  0.24567491723E+01  0.31472990621E+02  0.51100000000E-03 0. -1.
        -11    1    3    3    0    0  0.98372968760E+00  0.33184897568E+01 -0.28864974022E+01  0.45068798385E+01  0.51100000000E-03 0.  1.
        -12    1    3    3    0    0  0.27237617862E+01  0.69297597973E+01  0.12499262948E+02  0.14548952655E+02  0.00000000000E+00 0.  1.
</event>
<event>
 7    1  0.2680581E-011  0.5052883E+02  0.7816164E-02  0.1300439E+00
        -11   -1    0    0    0    0  0.00000000000E+00  0.00000000000E+00  0.45593999997E+02  0.45594000000E+02  0.51100000000E-03 0. -1.
         11   -1    0    0    0    0 -0.00000000000E+00 -0.00000000000E+00 -0.45593999997E+02  0.45594000000E+02  0.51100000000E-03 0.  1.
    9900012    2    1    2    0    0  0.14611503767E+02 -0.29472447625E+02 -0.23896590424E+02  0.50528828277E+02  0.29999904030E+02 0.  0.
         12    1    1    2    0    0 -0.14611503767E+02  0.29472447625E+02  0.23896590424E+02  0.40659171723E+02  0.00000000000E+00 0. -1.
         11    1    3    3    0    0 -0.72814749318E+01 -0.16527154440E+02 -0.94861588282E+01  0.20399850996E+02  0.51100000000E-03 0. -1.
        -11    1    3    3    0    0  0.46274708537E+01 -0.64117082992E+01 -0.31919884785E+01  0.85271496131E+01  0.51100000000E-03 0.  1.
        -12    1    3    3    0    0  0.17265507845E+02 -0.65335848852E+01 -0.11218443117E+02  0.21601827668E+02  0.00000000000E+00 0.  1.
</event>
<event>
 7    1  0.2680581E-011  0.5052886E+02  0.7816164E-02  0.1300439E+00
        -11   -1    0    0    0    0  0.00000000000E+00  0.00000000000E+00  0.45593999997E+02  0.45594000000E+02  0.51100000000E-03 0. -1.
         11   -1    0    0    0    0 -0.00000000000E+00 -0.00000000000E+00 -0.45593999997E+02  0.45594000000E+02  0.51100000000E-03 0.  1.
    9900012    2    1    2    0    0  0.28414189649E+02 -0.28794265258E+02 -0.40853184872E+01  0.50528859425E+02  0.29999998708E+02 0.  0.
         12    1    1    2    0    0 -0.28414189649E+02  0.28794265258E+02  0.40853184872E+01  0.40659140575E+02  0.00000000000E+00 0. -1.
         11    1    3    3    0    0 -0.13847684118E+01 -0.41101315868E+01 -0.63439020737E+01  0.76847809986E+01  0.51100000000E-03 0. -1.
        -11    1    3    3    0    0  0.17158120541E+02 -0.15731184094E+02 -0.75945671465E+01  0.24485683652E+02  0.51100000000E-03 0.  1.
         12    1    3    3    0    0  0.12640837519E+02 -0.89529495770E+01  0.98531507330E+01  0.18358394774E+02  0.00000000000E+00 0. -1.
</event>
<event>
 7    1  0.2680581E-011  0.5052885E+02  0.7816164E-02  0.1300439E+00
        -11   -1    0    0    0    0  0.00000000000E+00  0.00000000000E+00  0.45593999997E+02  0.45594000000E+02  0.51100000000E-03 0.  1.
         11   -1    0    0    0    0 -0.00000000000E+00 -0.00000000000E+00 -0.45593999997E+02  0.45594000000E+02  0.51100000000E-03 0. -1.
    9900012    2    1    2    0    0 -0.10107397558E+02  0.21821905687E+02  0.32784321732E+02  0.50528845992E+02  0.29999957877E+02 0.  0.
         12    1    1    2    0    0  0.10107397558E+02 -0.21821905687E+02 -0.32784321732E+02  0.40659154008E+02  0.00000000000E+00 0. -1.
         11    1    3    3    0    0  0.14788303200E+01  0.30620569045E+01  0.21359529406E+02  0.21628514242E+02  0.51100000000E-03 0. -1.
        -11    1    3    3    0    0 -0.69687892607E+01  0.26743585750E+01  0.94600932429E+01  0.12050293854E+02  0.51100000000E-03 0.  1.
        -12    1    3    3    0    0 -0.46174386175E+01  0.16085490208E+02  0.19646990830E+01  0.16850037896E+02  0.00000000000E+00 0.  1.
</event>
<event>
 7    1  0.2680581E-011  0.5052886E+02  0.7816164E-02  0.1300439E+00
        -11   -1    0    0    0    0  0.00000000000E+00  0.00000000000E+00  0.45593999997E+02  0.45594000000E+02  0.51100000000E-03 0. -1.
         11   -1    0    0    0    0 -0.00000000000E+00 -0.00000000000E+00 -0.45593999997E+02  0.45594000000E+02  0.51100000000E-03 0.  1.
    9900012    2    1    2    0    0 -0.99061294059E+01 -0.39387733081E+02 -0.19081635640E+01  0.50528855822E+02  0.29999987757E+02 0.  0.
         12    1    1    2    0    0  0.99061294059E+01  0.39387733081E+02  0.19081635640E+01  0.40659144178E+02  0.00000000000E+00 0. -1.
         11    1    3    3    0    0  0.19244886475E+01 -0.12403546208E+02 -0.11648943029E+02  0.17124528871E+02  0.51100000000E-03 0. -1.
        -11    1    3    3    0    0 -0.42499440190E+01 -0.85577453352E+00  0.32949051573E+01  0.54452524711E+01  0.51100000000E-03 0.  1.
        -12    1    3    3    0    0 -0.75806740344E+01 -0.26128412340E+02  0.64458743076E+01  0.27959074480E+02  0.00000000000E+00 0.  1.
</event>
<event>
 7    1  0.2680581E-011  0.5052880E+02  0.7816164E-02  0.1300439E+00
        -11   -1    0    0    0    0  0.00000000000E+00  0.00000000000E+00  0.45593999997E+02  0.45594000000E+02  0.51100000000E-03 0.  1.
         11   -1    0    0    0    0 -0.00000000000E+00 -0.00000000000E+00 -0.45593999997E+02  0.45594000000E+02  0.51100000000E-03 0. -1.
    9900012    2    1    2    0    0 -0.29170395175E+02  0.28214218277E+02 -0.24932743534E+01  0.50528800738E+02  0.29999820321E+02 0.  0.
         12    1    1    2    0    0  0.29170395175E+02 -0.28214218277E+02  0.24932743534E+01  0.40659199262E+02  0.00000000000E+00 0. -1.
         11    1    3    3    0    0 -0.80452624172E+01 -0.14041406944E+01  0.35933665641E+01  0.89224515676E+01  0.51100000000E-03 0. -1.
        -11    1    3    3    0    0 -0.12082032861E+02  0.16637239453E+02  0.63095685199E+01  0.21507763943E+02  0.51100000000E-03 0.  1.
        -12    1    3    3    0    0 -0.90430998973E+01  0.12981119519E+02 -0.12396209437E+02  0.20098585227E+02  0.00000000000E+00 0.  1.
</event>
<event>
 7    1  0.2680581E-011  0.5052885E+02  0.7816164E-02  0.1300439E+00
        -11   -1    0    0    0    0  0.00000000000E+00  0.00000000000E+00  0.45593999997E+02  0.45594000000E+02  0.51100000000E-03 0.  1.
         11   -1    0    0    0    0 -0.00000000000E+00 -0.00000000000E+00 -0.45593999997E+02  0.45594000000E+02  0.51100000000E-03 0. -1.
    9900012    2    1    2    0    0  0.26842320238E+02  0.17142929565E+02 -0.25274022286E+02  0.50528851062E+02  0.29999973289E+02 0.  0.
         12    1    1    2    0    0 -0.26842320238E+02 -0.17142929565E+02  0.25274022286E+02  0.40659148938E+02  0.00000000000E+00 0. -1.
         11    1    3    3    0    0  0.15602924646E+02  0.52875433446E+01 -0.14125826005E+02  0.21701344030E+02  0.51100000000E-03 0. -1.
        -11    1    3    3    0    0  0.14777257414E+02  0.15490408410E+02 -0.79822273971E+01  0.22848108102E+02  0.51100000000E-03 0.  1.
        -12    1    3    3    0    0 -0.35378618219E+01 -0.36350221892E+01 -0.31659688842E+01  0.59793989299E+01  0.00000000000E+00 0.  1.
</event>
<event>
 7    1  0.2680581E-011  0.5052886E+02  0.7816164E-02  0.1300439E+00
        -11   -1    0    0    0    0  0.00000000000E+00  0.00000000000E+00  0.45593999997E+02  0.45594000000E+02  0.51100000000E-03 0.  1.
         11   -1    0    0    0    0 -0.00000000000E+00 -0.00000000000E+00 -0.45593999997E+02  0.45594000000E+02  0.51100000000E-03 0. -1.
    9900012    2    1    2    0    0  0.34618546261E+01  0.40494907626E+02  0.11593209233E+01  0.50528855812E+02  0.29999987727E+02 0.  0.
         12    1    1    2    0    0 -0.34618546261E+01 -0.40494907626E+02 -0.11593209233E+01  0.40659144188E+02  0.00000000000E+00 0. -1.
         11    1    3    3    0    0  0.60726350741E+01  0.32527015078E+02 -0.86370687630E+01  0.34197698222E+02  0.51100000000E-03 0. -1.
        -11    1    3    3    0    0  0.33542533984E+01  0.53832504934E+01  0.33379214304E+01  0.71674347902E+01  0.51100000000E-03 0.  1.
        -12    1    3    3    0    0 -0.59650338464E+01  0.25846420548E+01  0.64584682559E+01  0.91637227998E+01  0.00000000000E+00 0.  1.
</event>
<event>
 7    1  0.2680581E-011  0.5052886E+02  0.7816164E-02  0.1300439E+00
        -11   -1    0    0    0    0  0.00000000000E+00  0.00000000000E+00  0.45593999997E+02  0.45594000000E+02  0.51100000000E-03 0.  1.
         11   -1    0    0    0    0 -0.00000000000E+00 -0.00000000000E+00 -0.45593999997E+02  0.45594000000E+02  0.51100000000E-03 0. -1.
    9900012    2    1    2    0    0  0.31430330562E+02  0.88925371832E+01  0.24212031858E+02  0.50528863468E+02  0.30000010998E+02 0.  0.
         12    1    1    2    0    0 -0.31430330562E+02 -0.88925371832E+01 -0.24212031858E+02  0.40659136532E+02  0.00000000000E+00 0. -1.
         11    1    3    3    0    0  0.12753147667E+02  0.18527097768E+00  0.17929429446E+02  0.22003216612E+02  0.51100000000E-03 0.  1.
        -11    1    3    3    0    0  0.15632594585E+02  0.14411869237E+02  0.58125574543E+01  0.22042364047E+02  0.51100000000E-03 0. -1.
         12    1    3    3    0    0  0.30445883097E+01 -0.57046030310E+01  0.47004495726E+00  0.64832828088E+01  0.00000000000E+00 0. -1.
</event>
<event>
 7    1  0.2680581E-011  0.5052900E+02  0.7816164E-02  0.1300438E+00
        -11   -1    0    0    0    0  0.00000000000E+00  0.00000000000E+00  0.45593999997E+02  0.45594000000E+02  0.51100000000E-03 0. -1.
         11   -1    0    0    0    0 -0.00000000000E+00 -0.00000000000E+00 -0.45593999997E+02  0.45594000000E+02  0.51100000000E-03 0.  1.
    9900012    2    1    2    0    0 -0.61987958293E+00  0.25691392627E+02 -0.31507502205E+02  0.50528996064E+02  0.30000414035E+02 0.  0.
         12    1    1    2    0    0  0.61987958293E+00 -0.25691392627E+02  0.31507502205E+02  0.40659003936E+02  0.00000000000E+00 0. -1.
         11    1    3    3    0    0 -0.71170054870E+01  0.11983864288E+02 -0.67619470257E+01  0.15491568617E+02  0.51100000000E-03 0. -1.
        -11    1    3    3    0    0  0.87919363785E+01  0.85536277140E+01 -0.30768638675E+01  0.12646334800E+02  0.51100000000E-03 0.  1.
         12    1    3    3    0    0 -0.22948104745E+01  0.51539006249E+01 -0.21668691312E+02  0.22391092647E+02  0.00000000000E+00 0. -1.
</event>
<event>
 7    1  0.2680581E-011  0.5052886E+02  0.7816164E-02  0.1300439E+00
        -11   -1    0    0    0    0  0.00000000000E+00  0.00000000000E+00  0.45593999997E+02  0.45594000000E+02  0.51100000000E-03 0. -1.
         11   -1    0    0    0    0 -0.00000000000E+00 -0.00000000000E+00 -0.45593999997E+02  0.45594000000E+02  0.51100000000E-03 0.  1.
    9900012    2    1    2    0    0 -0.36661191106E+02 -0.86735846168E+01  0.15293515951E+02  0.50528860394E+02  0.30000001653E+02 0.  0.
         12    1    1    2    0    0  0.36661191106E+02  0.86735846168E+01 -0.15293515951E+02  0.40659139606E+02  0.00000000000E+00 0. -1.
         11    1    3    3    0    0  0.11519509827E+00 -0.19563427109E+01  0.40556772402E+01  0.45043384477E+01  0.51100000000E-03 0. -1.
        -11    1    3    3    0    0 -0.18539622374E+02 -0.26074483449E-01 -0.65723464660E+01  0.19670130045E+02  0.51100000000E-03 0.  1.
         12    1    3    3    0    0 -0.18236763830E+02 -0.66911674224E+01  0.17810185176E+02  0.26354391901E+02  0.00000000000E+00 0. -1.
</event>
<event>
 7    1  0.2680581E-011  0.5052887E+02  0.7816164E-02  0.1300439E+00
        -11   -1    0    0    0    0  0.00000000000E+00  0.00000000000E+00  0.45593999997E+02  0.45594000000E+02  0.51100000000E-03 0.  1.
         11   -1    0    0    0    0 -0.00000000000E+00 -0.00000000000E+00 -0.45593999997E+02  0.45594000000E+02  0.51100000000E-03 0. -1.
    9900012    2    1    2    0    0  0.69326685960E+01 -0.91651151214E+01  0.39001329567E+02  0.50528868958E+02  0.30000027686E+02 0.  0.
         12    1    1    2    0    0 -0.69326685960E+01  0.91651151214E+01 -0.39001329567E+02  0.40659131042E+02  0.00000000000E+00 0. -1.
         11    1    3    3    0    0 -0.58127423297E+01 -0.92197595010E+01  0.17599680128E+02  0.20701224107E+02  0.51100000000E-03 0. -1.
        -11    1    3    3    0    0 -0.31785699473E+01  0.29434810867E+01  0.27400152938E+01  0.51259215648E+01  0.51100000000E-03 0.  1.
        -12    1    3    3    0    0  0.15923980873E+02 -0.28888367070E+01  0.18661634145E+02  0.24701723287E+02  0.00000000000E+00 0.  1.
</event>
<event>
 7    1  0.2680581E-011  0.5052886E+02  0.7816164E-02  0.1300439E+00
        -11   -1    0    0    0    0  0.00000000000E+00  0.00000000000E+00  0.45593999997E+02  0.45594000000E+02  0.51100000000E-03 0.  1.
         11   -1    0    0    0    0 -0.00000000000E+00 -0.00000000000E+00 -0.45593999997E+02  0.45594000000E+02  0.51100000000E-03 0. -1.
    9900012    2    1    2    0    0 -0.33537711099E+02 -0.14296886115E+02  0.17999626253E+02  0.50528861254E+02  0.30000004267E+02 0.  0.
         12    1    1    2    0    0  0.33537711099E+02  0.14296886115E+02 -0.17999626253E+02  0.40659138746E+02  0.00000000000E+00 0. -1.
         11    1    3    3    0    0 -0.48820804816E+01 -0.10774338274E+02  0.24842652171E+01  0.12086879208E+02  0.51100000000E-03 0. -1.
        -11    1    3    3    0    0  0.29692959262E+01  0.44248430215E-01  0.30656178779E+01  0.42681013876E+01  0.51100000000E-03 0.  1.
        -12    1    3    3    0    0 -0.31624926543E+02 -0.35667962721E+01  0.12449743158E+02  0.34173880658E+02  0.00000000000E+00 0.  1.
</event>
<event>
 7    1  0.2680581E-011  0.5052886E+02  0.7816164E-02  0.1300439E+00
        -11   -1    0    0    0    0  0.00000000000E+00  0.00000000000E+00  0.45593999997E+02  0.45594000000E+02  0.51100000000E-03 0. -1.
         11   -1    0    0    0    0 -0.00000000000E+00 -0.00000000000E+00 -0.45593999997E+02  0.45594000000E+02  0.51100000000E-03 0.  1.
    9900012    2    1    2    0    0  0.38132930771E+02  0.11920194845E+02 -0.75468281481E+01  0.50528855034E+02  0.29999985360E+02 0.  0.
         12    1    1    2    0    0 -0.38132930771E+02 -0.11920194845E+02  0.75468281481E+01  0.40659144966E+02  0.00000000000E+00 0. -1.
         11    1    3    3    0    0  0.79604494158E+01  0.12421499874E+02 -0.27896046738E+01  0.15014802980E+02  0.51100000000E-03 0. -1.
        -11    1    3    3    0    0  0.13999165842E+02  0.14328778842E+01 -0.11212431811E+02  0.17993010050E+02  0.51100000000E-03 0.  1.
         12    1    3    3    0    0  0.16173315513E+02 -0.19341829130E+01  0.64552083365E+01  0.17521042003E+02  0.00000000000E+00 0. -1.
</event>
<event>
 7    1  0.2680581E-011  0.5052887E+02  0.7816164E-02  0.1300439E+00
        -11   -1    0    0    0    0  0.00000000000E+00  0.00000000000E+00  0.45593999997E+02  0.45594000000E+02  0.51100000000E-03 0. -1.
         11   -1    0    0    0    0 -0.00000000000E+00 -0.00000000000E+00 -0.45593999997E+02  0.45594000000E+02  0.51100000000E-03 0.  1.
    9900012    2    1    2    0    0 -0.39798614533E+02  0.23564259468E+01 -0.79801204615E+01  0.50528870833E+02  0.30000033385E+02 0.  0.
         12    1    1    2    0    0  0.39798614533E+02 -0.23564259468E+01  0.79801204615E+01  0.40659129167E+02  0.00000000000E+00 0. -1.
         11    1    3    3    0    0  0.19463953503E+01 -0.85484934417E+00  0.37550095940E+01  0.43150109586E+01  0.51100000000E-03 0. -1.
        -11    1    3    3    0    0 -0.33095557310E+01  0.36605624501E+01 -0.52983882833E+01  0.72405659481E+01  0.51100000000E-03 0.  1.
        -12    1    3    3    0    0 -0.38435454152E+02 -0.44928715907E+00 -0.64367417723E+01  0.38973293927E+02  0.00000000000E+00 0.  1.
</event>
<event>
 7    1  0.2680581E-011  0.5052886E+02  0.7816164E-02  0.1300439E+00
        -11   -1    0    0    0    0  0.00000000000E+00  0.00000000000E+00  0.45593999997E+02  0.45594000000E+02  0.51100000000E-03 0.  1.
         11   -1    0    0    0    0 -0.00000000000E+00 -0.00000000000E+00 -0.45593999997E+02  0.45594000000E+02  0.51100000000E-03 0. -1.
    9900012    2    1    2    0    0  0.18085403245E+02  0.13712393024E+02  0.33735059827E+02  0.50528858414E+02  0.29999995636E+02 0.  0.
         12    1    1    2    0    0 -0.18085403245E+02 -0.13712393024E+02 -0.33735059827E+02  0.40659141586E+02  0.00000000000E+00 0. -1.
         11    1    3    3    0    0  0.78763189665E+01 -0.30485129732E+01  0.32809273858E+01  0.90605914036E+01  0.51100000000E-03 0. -1.
        -11    1    3    3    0    0  0.13677339039E+02  0.56370429097E+01  0.23876336460E+02  0.28087814065E+02  0.51100000000E-03 0.  1.
         12    1    3    3    0    0 -0.34682547604E+01  0.11123863087E+02  0.65777959815E+01  0.13380452946E+02  0.00000000000E+00 0. -1.
</event>
<event>
 7    1  0.2680581E-011  0.5052886E+02  0.7816164E-02  0.1300439E+00
        -11   -1    0    0    0    0  0.00000000000E+00  0.00000000000E+00  0.45593999997E+02  0.45594000000E+02  0.51100000000E-03 0.  1.
         11   -1    0    0    0    0 -0.00000000000E+00 -0.00000000000E+00 -0.45593999997E+02  0.45594000000E+02  0.51100000000E-03 0. -1.
    9900012    2    1    2    0    0  0.23122199074E+02  0.25507981126E+02  0.21630368328E+02  0.50528855578E+02  0.29999987014E+02 0.  0.
         12    1    1    2    0    0 -0.23122199074E+02 -0.25507981126E+02 -0.21630368328E+02  0.40659144422E+02  0.00000000000E+00 0. -1.
         11    1    3    3    0    0 -0.33127619507E+01  0.93244317324E+01  0.10177211350E+02  0.14194895209E+02  0.51100000000E-03 0. -1.
        -11    1    3    3    0    0  0.18289832898E+02  0.18444280402E+02  0.95025153808E+01  0.27658764720E+02  0.51100000000E-03 0.  1.
        -12    1    3    3    0    0  0.81451281275E+01 -0.22607310090E+01  0.19506415970E+01  0.86751956490E+01  0.00000000000E+00 0.  1.
</event>
<event>
 7    1  0.2680581E-011  0.5052886E+02  0.7816164E-02  0.1300439E+00
        -11   -1    0    0    0    0  0.00000000000E+00  0.00000000000E+00  0.45593999997E+02  0.45594000000E+02  0.51100000000E-03 0.  1.
         11   -1    0    0    0    0 -0.00000000000E+00 -0.00000000000E+00 -0.45593999997E+02  0.45594000000E+02  0.51100000000E-03 0. -1.
    9900012    2    1    2    0    0 -0.38132445466E+02  0.87638815000E+01 -0.11057864232E+02  0.50528863541E+02  0.30000011221E+02 0.  0.
         12    1    1    2    0    0  0.38132445466E+02 -0.87638815000E+01  0.11057864232E+02  0.40659136459E+02  0.00000000000E+00 0. -1.
         11    1    3    3    0    0 -0.74635239593E+00 -0.14790277412E+01  0.52287035288E+01  0.54848797445E+01  0.51100000000E-03 0. -1.
        -11    1    3    3    0    0 -0.15614153881E+02  0.20254847016E+01 -0.14985800487E+02  0.21736573010E+02  0.51100000000E-03 0.  1.
        -12    1    3    3    0    0 -0.21771939189E+02  0.82174245396E+01 -0.13007672741E+01  0.23307410787E+02  0.00000000000E+00 0.  1.
</event>
<event>
 7    1  0.2680581E-011  0.5052886E+02  0.7816164E-02  0.1300439E+00
        -11   -1    0    0    0    0  0.00000000000E+00  0.00000000000E+00  0.45593999997E+02  0.45594000000E+02  0.51100000000E-03 0. -1.
         11   -1    0    0    0    0 -0.00000000000E+00 -0.00000000000E+00 -0.45593999997E+02  0.45594000000E+02  0.51100000000E-03 0.  1.
    9900012    2    1    2    0    0  0.39756241665E+02  0.84649627715E+01 -0.97546342830E+00  0.50528857424E+02  0.29999992627E+02 0.  0.
         12    1    1    2    0    0 -0.39756241665E+02 -0.84649627715E+01  0.97546342830E+00  0.40659142576E+02  0.00000000000E+00 0. -1.
         11    1    3    3    0    0  0.86666514989E+01  0.71427397001E+01  0.38840571466E+01  0.11883411918E+02  0.51100000000E-03 0.  1.
        -11    1    3    3    0    0  0.13151168240E+02 -0.47446696063E+01  0.76626320253E+01  0.15943056343E+02  0.51100000000E-03 0. -1.
         12    1    3    3    0    0  0.17938421927E+02  0.60668926777E+01 -0.12522152600E+02  0.22702389164E+02  0.00000000000E+00 0. -1.
</event>
<event>
 7    1  0.2680581E-011  0.5052885E+02  0.7816164E-02  0.1300439E+00
        -11   -1    0    0    0    0  0.00000000000E+00  0.00000000000E+00  0.45593999997E+02  0.45594000000E+02  0.51100000000E-03 0.  1.
         11   -1    0    0    0    0 -0.00000000000E+00 -0.00000000000E+00 -0.45593999997E+02  0.45594000000E+02  0.51100000000E-03 0. -1.
    9900012    2    1    2    0    0  0.18928136728E+02  0.73001441124E+01  0.35236341253E+02  0.50528853318E+02  0.29999980145E+02 0.  0.
         12    1    1    2    0    0 -0.18928136728E+02 -0.73001441124E+01 -0.35236341253E+02  0.40659146682E+02  0.00000000000E+00 0. -1.
         11    1    3    3    0    0  0.47462036921E+01  0.55565165103E+01  0.20237665785E+01  0.75826747682E+01  0.51100000000E-03 0. -1.
        -11    1    3    3    0    0 -0.78469376663E+00  0.79244891999E+01  0.21596608894E+02  0.23017966665E+02  0.51100000000E-03 0.  1.
         12    1    3    3    0    0  0.14966626802E+02 -0.61808615977E+01  0.11615965780E+02  0.19928211885E+02  0.00000000000E+00 0. -1.
</event>
<event>
 7    1  0.2680581E-011  0.5052885E+02  0.7816164E-02  0.1300439E+00
        -11   -1    0    0    0    0  0.00000000000E+00  0.00000000000E+00  0.45593999997E+02  0.45594000000E+02  0.51100000000E-03 0.  1.
         11   -1    0    0    0    0 -0.00000000000E+00 -0.00000000000E+00 -0.45593999997E+02  0.45594000000E+02  0.51100000000E-03 0. -1.
    9900012    2    1    2    0    0 -0.24131772758E+02  0.11997931963E+02  0.30444593326E+02  0.50528854772E+02  0.29999984566E+02 0.  0.
         12    1    1    2    0    0  0.24131772758E+02 -0.11997931963E+02 -0.30444593326E+02  0.40659145228E+02  0.00000000000E+00 0. -1.
         11    1    3    3    0    0 -0.68199533009E+01  0.14018035851E+02  0.95417742939E+01  0.18277378070E+02  0.51100000000E-03 0. -1.
        -11    1    3    3    0    0 -0.20640468796E+00  0.19269396391E+01  0.12748842160E+02  0.12895296660E+02  0.51100000000E-03 0.  1.
        -12    1    3    3    0    0 -0.17105414769E+02 -0.39470435271E+01  0.81539768729E+01  0.19356180043E+02  0.00000000000E+00 0.  1.
</event>
<event>
 7    1  0.2680581E-011  0.5052886E+02  0.7816164E-02  0.1300439E+00
        -11   -1    0    0    0    0  0.00000000000E+00  0.00000000000E+00  0.45593999997E+02  0.45594000000E+02  0.51100000000E-03 0.  1.
         11   -1    0    0    0    0 -0.00000000000E+00 -0.00000000000E+00 -0.45593999997E+02  0.45594000000E+02  0.51100000000E-03 0. -1.
    9900012    2    1    2    0    0 -0.22492382329E+02 -0.13292089828E+01  0.33845115916E+02  0.50528856738E+02  0.29999990542E+02 0.  0.
         12    1    1    2    0    0  0.22492382329E+02  0.13292089828E+01 -0.33845115916E+02  0.40659143262E+02  0.00000000000E+00 0. -1.
         11    1    3    3    0    0 -0.40590194190E+01  0.75163679194E+01  0.10448222415E+02  0.13495805913E+02  0.51100000000E-03 0. -1.
        -11    1    3    3    0    0  0.15266068147E+01 -0.41677461145E+01  0.13610957331E+02  0.14316382077E+02  0.51100000000E-03 0.  1.
         12    1    3    3    0    0 -0.19959969725E+02 -0.46778307877E+01  0.97859361699E+01  0.22716668748E+02  0.00000000000E+00 0. -1.
</event>
<event>
 7    1  0.2680581E-011  0.5052886E+02  0.7816164E-02  0.1300439E+00
        -11   -1    0    0    0    0  0.00000000000E+00  0.00000000000E+00  0.45593999997E+02  0.45594000000E+02  0.51100000000E-03 0.  1.
         11   -1    0    0    0    0 -0.00000000000E+00 -0.00000000000E+00 -0.45593999997E+02  0.45594000000E+02  0.51100000000E-03 0. -1.
    9900012    2    1    2    0    0  0.28212912641E+02 -0.29150386030E+02  0.27298669881E+01  0.50528860570E+02  0.30000002190E+02 0.  0.
         12    1    1    2    0    0 -0.28212912641E+02  0.29150386030E+02 -0.27298669881E+01  0.40659139430E+02  0.00000000000E+00 0. -1.
         11    1    3    3    0    0  0.16763866213E+01 -0.14506249158E+02  0.57169333166E+01  0.15681991696E+02  0.51100000000E-03 0. -1.
        -11    1    3    3    0    0 -0.33674255909E+00  0.25741275943E+01 -0.12556528313E+01  0.28837809759E+01  0.51100000000E-03 0.  1.
        -12    1    3    3    0    0  0.26873268579E+02 -0.17218264466E+02 -0.17314134973E+01  0.31963087899E+02  0.00000000000E+00 0.  1.
</event>
<event>
 7    1  0.2680581E-011  0.5052885E+02  0.7816164E-02  0.1300439E+00
        -11   -1    0    0    0    0  0.00000000000E+00  0.00000000000E+00  0.45593999997E+02  0.45594000000E+02  0.51100000000E-03 0. -1.
         11   -1    0    0    0    0 -0.00000000000E+00 -0.00000000000E+00 -0.45593999997E+02  0.45594000000E+02  0.51100000000E-03 0.  1.
    9900012    2    1    2    0    0 -0.24961257884E+02 -0.30479338060E+02 -0.10055433311E+02  0.50528853639E+02  0.29999981122E+02 0.  0.
         12    1    1    2    0    0  0.24961257884E+02  0.30479338060E+02  0.10055433311E+02  0.40659146361E+02  0.00000000000E+00 0. -1.
         11    1    3    3    0    0  0.28017885197E+01 -0.99595975332E+00  0.12568122769E+01  0.32282397835E+01  0.51100000000E-03 0. -1.
        -11    1    3    3    0    0 -0.10385689605E+02 -0.11942598125E+02  0.62336461272E+01  0.17010189383E+02  0.51100000000E-03 0.  1.
        -12    1    3    3    0    0 -0.17377356799E+02 -0.17540780182E+02 -0.17545891715E+02  0.30290424473E+02  0.00000000000E+00 0.  1.
</event>
<event>
 7    1  0.2680581E-011  0.5052887E+02  0.7816164E-02  0.1300439E+00
        -11   -1    0    0    0    0  0.00000000000E+00  0.00000000000E+00  0.45593999997E+02  0.45594000000E+02  0.51100000000E-03 0. -1.
         11   -1    0    0    0    0 -0.00000000000E+00 -0.00000000000E+00 -0.45593999997E+02  0.45594000000E+02  0.51100000000E-03 0.  1.
    9900012    2    1    2    0    0 -0.12352948227E+02  0.38059324935E+02 -0.72150938278E+01  0.50528866667E+02  0.30000020722E+02 0.  0.
         12    1    1    2    0    0  0.12352948227E+02 -0.38059324935E+02  0.72150938278E+01  0.40659133333E+02  0.00000000000E+00 0. -1.
         11    1    3    3    0    0 -0.23628757894E+01  0.15852223256E+02 -0.76070555126E+01  0.17741010625E+02  0.51100000000E-03 0. -1.
        -11    1    3    3    0    0  0.64447030136E+01  0.10944266960E+02 -0.14297712843E+01  0.12781057171E+02  0.51100000000E-03 0.  1.
         12    1    3    3    0    0 -0.16434775452E+02  0.11262834719E+02  0.18217329690E+01  0.20006798871E+02  0.00000000000E+00 0. -1.
</event>
<event>
 7    1  0.2680581E-011  0.5052873E+02  0.7816164E-02  0.1300439E+00
        -11   -1    0    0    0    0  0.00000000000E+00  0.00000000000E+00  0.45593999997E+02  0.45594000000E+02  0.51100000000E-03 0.  1.
         11   -1    0    0    0    0 -0.00000000000E+00 -0.00000000000E+00 -0.45593999997E+02  0.45594000000E+02  0.51100000000E-03 0. -1.
    9900012    2    1    2    0    0 -0.43686220840E+01 -0.31175355086E+02  0.25733023585E+02  0.50528731358E+02  0.29999609435E+02 0.  0.
         12    1    1    2    0    0  0.43686220840E+01  0.31175355086E+02 -0.25733023585E+02  0.40659268642E+02  0.00000000000E+00 0. -1.
         11    1    3    3    0    0 -0.20432852515E+01 -0.52358406011E+01  0.20998305219E+02  0.21737476021E+02  0.51100000000E-03 0. -1.
        -11    1    3    3    0    0  0.34443844433E+01 -0.49772416914E+01 -0.13755202636E+01  0.62071551699E+01  0.51100000000E-03 0.  1.
        -12    1    3    3    0    0 -0.57697212757E+01 -0.20962272794E+02  0.61102386291E+01  0.22584100168E+02  0.00000000000E+00 0.  1.
</event>
<event>
 7    1  0.2680581E-011  0.5052887E+02  0.7816164E-02  0.1300439E+00
        -11   -1    0    0    0    0  0.00000000000E+00  0.00000000000E+00  0.45593999997E+02  0.45594000000E+02  0.51100000000E-03 0.  1.
         11   -1    0    0    0    0 -0.00000000000E+00 -0.00000000000E+00 -0.45593999997E+02  0.45594000000E+02  0.51100000000E-03 0. -1.
    9900012    2    1    2    0    0  0.49911442660E+01  0.36018089777E+02  0.18192040175E+02  0.50528872636E+02  0.30000038864E+02 0.  0.
         12    1    1    2    0    0 -0.49911442660E+01 -0.36018089777E+02 -0.18192040175E+02  0.40659127364E+02  0.00000000000E+00 0. -1.
         11    1    3    3    0    0  0.81695287665E+01  0.16585704686E+02  0.11070015484E+02  0.21549293336E+02  0.51100000000E-03 0.  1.
        -11    1    3    3    0    0  0.47850791958E+01  0.28836657015E+00 -0.32541309760E+01  0.57939198182E+01  0.51100000000E-03 0. -1.
         12    1    3    3    0    0 -0.79634636963E+01  0.19144018521E+02  0.10376155667E+02  0.23185659482E+02  0.00000000000E+00 0. -1.
</event>
<event>
 7    1  0.2680581E-011  0.5052885E+02  0.7816164E-02  0.1300439E+00
        -11   -1    0    0    0    0  0.00000000000E+00  0.00000000000E+00  0.45593999997E+02  0.45594000000E+02  0.51100000000E-03 0.  1.
         11   -1    0    0    0    0 -0.00000000000E+00 -0.00000000000E+00 -0.45593999997E+02  0.45594000000E+02  0.51100000000E-03 0. -1.
    9900012    2    1    2    0    0 -0.14246282516E+02  0.36343737411E+02  0.11372894914E+02  0.50528849083E+02  0.29999967274E+02 0.  0.
         12    1    1    2    0    0  0.14246282516E+02 -0.36343737411E+02 -0.11372894914E+02  0.40659150917E+02  0.00000000000E+00 0. -1.
         11    1    3    3    0    0 -0.98954854940E+01  0.23689792251E+02  0.88496304021E+01  0.27155898964E+02  0.51100000000E-03 0. -1.
        -11    1    3    3    0    0  0.96620294709E+00  0.34618347468E+01  0.98409050496E+01  0.10476700836E+02  0.51100000000E-03 0.  1.
         12    1    3    3    0    0 -0.53169999690E+01  0.91921104138E+01 -0.73176405382E+01  0.12896249283E+02  0.00000000000E+00 0. -1.
</event>
<event>
 7    1  0.2680581E-011  0.5052885E+02  0.7816164E-02  0.1300439E+00
        -11   -1    0    0    0    0  0.00000000000E+00  0.00000000000E+00  0.45593999997E+02  0.45594000000E+02  0.51100000000E-03 0. -1.
         11   -1    0    0    0    0 -0.00000000000E+00 -0.00000000000E+00 -0.45593999997E+02  0.45594000000E+02  0.51100000000E-03 0.  1.
    9900012    2    1    2    0    0  0.19528358622E+02 -0.88916126647E+00 -0.35651353140E+02  0.50528851227E+02  0.29999973791E+02 0.  0.
         12    1    1    2    0    0 -0.19528358622E+02  0.88916126647E+00  0.35651353140E+02  0.40659148773E+02  0.00000000000E+00 0. -1.
         11    1    3    3    0    0  0.71866183571E+01  0.61540463573E+01 -0.26240082323E+02  0.27893757197E+02  0.51100000000E-03 0. -1.
        -11    1    3    3    0    0  0.79951517300E+01 -0.36757674132E+01 -0.13266634933E+02  0.15919714821E+02  0.51100000000E-03 0.  1.
         12    1    3    3    0    0  0.43465885345E+01 -0.33674402106E+01  0.38553641166E+01  0.67153792098E+01  0.00000000000E+00 0. -1.
</event>
<event>
 7    1  0.2680581E-011  0.5052886E+02  0.7816164E-02  0.1300439E+00
        -11   -1    0    0    0    0  0.00000000000E+00  0.00000000000E+00  0.45593999997E+02  0.45594000000E+02  0.51100000000E-03 0.  1.
         11   -1    0    0    0    0 -0.00000000000E+00 -0.00000000000E+00 -0.45593999997E+02  0.45594000000E+02  0.51100000000E-03 0. -1.
    9900012    2    1    2    0    0 -0.74990366613E+01  0.36616979270E+02  0.16003974489E+02  0.50528856856E+02  0.29999990900E+02 0.  0.
         12    1    1    2    0    0  0.74990366613E+01 -0.36616979270E+02 -0.16003974489E+02  0.40659143144E+02  0.00000000000E+00 0. -1.
         11    1    3    3    0    0 -0.47804767435E+01  0.36295934864E+01 -0.52282019218E+01  0.79599624602E+01  0.51100000000E-03 0.  1.
        -11    1    3    3    0    0  0.50220355324E+00  0.33399762458E+00  0.66251912630E+01  0.66525876435E+01  0.51100000000E-03 0. -1.
        -12    1    3    3    0    0 -0.32207634711E+01  0.32653388159E+02  0.14606985148E+02  0.35916306752E+02  0.00000000000E+00 0.  1.
</event>
<event>
 7    1  0.2680581E-011  0.5052886E+02  0.7816164E-02  0.1300439E+00
        -11   -1    0    0    0    0  0.00000000000E+00  0.00000000000E+00  0.45593999997E+02  0.45594000000E+02  0.51100000000E-03 0.  1.
         11   -1    0    0    0    0 -0.00000000000E+00 -0.00000000000E+00 -0.45593999997E+02  0.45594000000E+02  0.51100000000E-03 0. -1.
    9900012    2    1    2    0    0  0.38606688281E+02 -0.12636622536E+02 -0.17334579087E+01  0.50528862214E+02  0.30000007186E+02 0.  0.
         12    1    1    2    0    0 -0.38606688281E+02  0.12636622536E+02  0.17334579087E+01  0.40659137786E+02  0.00000000000E+00 0. -1.
         11    1    3    3    0    0  0.20144151076E+02 -0.79134071495E+01 -0.21544646292E+00  0.21643827127E+02  0.51100000000E-03 0. -1.
        -11    1    3    3    0    0  0.21501723964E+02 -0.43373344619E+01  0.42603857891E+01  0.22344741910E+02  0.51100000000E-03 0.  1.
         12    1    3    3    0    0 -0.30391867585E+01 -0.38588092487E+00 -0.57783972348E+01  0.65402931773E+01  0.00000000000E+00 0. -1.
</event>
<event>
 7    1  0.2680581E-011  0.5052886E+02  0.7816164E-02  0.1300439E+00
        -11   -1    0    0    0    0  0.00000000000E+00  0.00000000000E+00  0.45593999997E+02  0.45594000000E+02  0.51100000000E-03 0.  1.
         11   -1    0    0    0    0 -0.00000000000E+00 -0.00000000000E+00 -0.45593999997E+02  0.45594000000E+02  0.51100000000E-03 0. -1.
    9900012    2    1    2    0    0  0.15672492693E+02 -0.15095768180E+02  0.34346124097E+02  0.50528862224E+02  0.30000007217E+02 0.  0.
         12    1    1    2    0    0 -0.15672492693E+02  0.15095768180E+02 -0.34346124097E+02  0.40659137776E+02  0.00000000000E+00 0. -1.
         11    1    3    3    0    0 -0.17564405695E+01  0.57865654219E+01  0.10268024792E+02  0.11916448978E+02  0.51100000000E-03 0. -1.
        -11    1    3    3    0    0  0.59320877061E-01 -0.80223391733E+01  0.99962413648E+01  0.12817421210E+02  0.51100000000E-03 0.  1.
         12    1    3    3    0    0  0.17369612385E+02 -0.12859994429E+02  0.14081857940E+02  0.25794992036E+02  0.00000000000E+00 0. -1.
</event>
<event>
 7    1  0.2878974E-011  0.5052886E+02  0.7816164E-02  0.1300439E+00
        -11   -1    0    0    0    0  0.00000000000E+00  0.00000000000E+00  0.45593999997E+02  0.45594000000E+02  0.51100000000E-03 0.  1.
         11   -1    0    0    0    0 -0.00000000000E+00 -0.00000000000E+00 -0.45593999997E+02  0.45594000000E+02  0.51100000000E-03 0. -1.
    9900012    2    1    2    0    0 -0.39090286007E+02 -0.42125147559E+01  0.10361941780E+02  0.50528861075E+02  0.30000003723E+02 0.  0.
         12    1    1    2    0    0  0.39090286007E+02  0.42125147559E+01 -0.10361941780E+02  0.40659138925E+02  0.00000000000E+00 0. -1.
         11    1    3    3    0    0 -0.21201701725E+01  0.18732935626E+01 -0.61282389174E+01  0.67497898354E+01  0.51100000000E-03 0. -1.
        -11    1    3    3    0    0 -0.15639040920E+02  0.14049606799E+01 -0.15763740265E+00  0.15702813927E+02  0.51100000000E-03 0.  1.
        -12    1    3    3    0    0 -0.21331074915E+02 -0.74907689983E+01  0.16647818100E+02  0.28076257313E+02  0.00000000000E+00 0.  1.
</event>
<event>
 7    1  0.2680581E-011  0.5052886E+02  0.7816164E-02  0.1300439E+00
        -11   -1    0    0    0    0  0.00000000000E+00  0.00000000000E+00  0.45593999997E+02  0.45594000000E+02  0.51100000000E-03 0. -1.
         11   -1    0    0    0    0 -0.00000000000E+00 -0.00000000000E+00 -0.45593999997E+02  0.45594000000E+02  0.51100000000E-03 0.  1.
    9900012    2    1    2    0    0  0.17762207787E+02  0.13760919687E+02 -0.33886676236E+02  0.50528858809E+02  0.29999996836E+02 0.  0.
         12    1    1    2    0    0 -0.17762207787E+02 -0.13760919687E+02  0.33886676236E+02  0.40659141191E+02  0.00000000000E+00 0. -1.
         11    1    3    3    0    0  0.43913840681E+01  0.10536482334E+02 -0.18168786233E+02  0.21457085251E+02  0.51100000000E-03 0. -1.
        -11    1    3    3    0    0 -0.14983276302E+01  0.85323460452E+01 -0.58608581571E+01  0.10459233878E+02  0.51100000000E-03 0.  1.
         12    1    3    3    0    0  0.14869151349E+02 -0.53079086927E+01 -0.98570318457E+01  0.18612539680E+02  0.00000000000E+00 0. -1.
</event>
<event>
 7    1  0.2680581E-011  0.5052887E+02  0.7816164E-02  0.1300439E+00
        -11   -1    0    0    0    0  0.00000000000E+00  0.00000000000E+00  0.45593999997E+02  0.45594000000E+02  0.51100000000E-03 0.  1.
         11   -1    0    0    0    0 -0.00000000000E+00 -0.00000000000E+00 -0.45593999997E+02  0.45594000000E+02  0.51100000000E-03 0. -1.
    9900012    2    1    2    0    0  0.19607559688E+02  0.10455827135E+02  0.34049732283E+02  0.50528868350E+02  0.30000025836E+02 0.  0.
         12    1    1    2    0    0 -0.19607559688E+02 -0.10455827135E+02 -0.34049732283E+02  0.40659131650E+02  0.00000000000E+00 0. -1.
         11    1    3    3    0    0  0.24432009460E+01  0.19297150351E+01 -0.24811297609E+01  0.39810847932E+01  0.51100000000E-03 0. -1.
        -11    1    3    3    0    0 -0.43616750283E+01 -0.19060670137E+01  0.80734727528E+01  0.93722069474E+01  0.51100000000E-03 0.  1.
        -12    1    3    3    0    0  0.21526033771E+02  0.10432179114E+02  0.28457389291E+02  0.37175576609E+02  0.00000000000E+00 0.  1.
</event>
<event>
 7    1  0.2680581E-011  0.5052886E+02  0.7816164E-02  0.1300439E+00
        -11   -1    0    0    0    0  0.00000000000E+00  0.00000000000E+00  0.45593999997E+02  0.45594000000E+02  0.51100000000E-03 0.  1.
         11   -1    0    0    0    0 -0.00000000000E+00 -0.00000000000E+00 -0.45593999997E+02  0.45594000000E+02  0.51100000000E-03 0. -1.
    9900012    2    1    2    0    0  0.24465370910E+02 -0.70963006492E+01  0.31689963057E+02  0.50528860619E+02  0.30000002338E+02 0.  0.
         12    1    1    2    0    0 -0.24465370910E+02  0.70963006492E+01 -0.31689963057E+02  0.40659139381E+02  0.00000000000E+00 0. -1.
         11    1    3    3    0    0  0.19880825800E+01  0.29902422594E+01 -0.38767374806E+01  0.52842326661E+01  0.51100000000E-03 0. -1.
        -11    1    3    3    0    0  0.74702366724E+01 -0.10262215219E+02  0.13231806094E+02  0.18335708056E+02  0.51100000000E-03 0.  1.
        -12    1    3    3    0    0  0.15007051658E+02  0.17567231072E+00  0.22334894443E+02  0.26908919897E+02  0.00000000000E+00 0.  1.
</event>
<event>
 7    1  0.2680581E-011  0.5052888E+02  0.7816164E-02  0.1300439E+00
        -11   -1    0    0    0    0  0.00000000000E+00  0.00000000000E+00  0.45593999997E+02  0.45594000000E+02  0.51100000000E-03 0.  1.
         11   -1    0    0    0    0 -0.00000000000E+00 -0.00000000000E+00 -0.45593999997E+02  0.45594000000E+02  0.51100000000E-03 0. -1.
    9900012    2    1    2    0    0  0.19816009989E+02  0.13219388279E+02  0.32950537975E+02  0.50528875179E+02  0.30000046594E+02 0.  0.
         12    1    1    2    0    0 -0.19816009989E+02 -0.13219388279E+02 -0.32950537975E+02  0.40659124821E+02  0.00000000000E+00 0. -1.
         11    1    3    3    0    0 -0.97063274441E+00 -0.16404305389E+01  0.15942852192E+02  0.16056390520E+02  0.51100000000E-03 0.  1.
        -11    1    3    3    0    0  0.32479786240E+01  0.11630675071E+02  0.80763452413E+01  0.14527536628E+02  0.51100000000E-03 0. -1.
         12    1    3    3    0    0  0.17538664109E+02  0.32291437466E+01  0.89313405423E+01  0.19944948031E+02  0.00000000000E+00 0. -1.
</event>
<event>
 7    1  0.2680581E-011  0.5052886E+02  0.7816164E-02  0.1300439E+00
        -11   -1    0    0    0    0  0.00000000000E+00  0.00000000000E+00  0.45593999997E+02  0.45594000000E+02  0.51100000000E-03 0. -1.
         11   -1    0    0    0    0 -0.00000000000E+00 -0.00000000000E+00 -0.45593999997E+02  0.45594000000E+02  0.51100000000E-03 0.  1.
    9900012    2    1    2    0    0  0.10866609537E+02  0.14680717641E+02 -0.36325735230E+02  0.50528859412E+02  0.29999998670E+02 0.  0.
         12    1    1    2    0    0 -0.10866609537E+02 -0.14680717641E+02  0.36325735230E+02  0.40659140588E+02  0.00000000000E+00 0. -1.
         11    1    3    3    0    0  0.37172948935E+01  0.56331835656E+00  0.10536662599E+01  0.39045898305E+01  0.51100000000E-03 0. -1.
        -11    1    3    3    0    0  0.43115963753E+01  0.19643069608E+02 -0.20859641300E+02  0.28975242576E+02  0.51100000000E-03 0.  1.
        -12    1    3    3    0    0  0.28377182685E+01 -0.55256703236E+01 -0.16519760190E+02  0.17649027006E+02  0.00000000000E+00 0.  1.
</event>
<event>
 7    1  0.2680581E-011  0.5052886E+02  0.7816164E-02  0.1300439E+00
        -11   -1    0    0    0    0  0.00000000000E+00  0.00000000000E+00  0.45593999997E+02  0.45594000000E+02  0.51100000000E-03 0. -1.
         11   -1    0    0    0    0 -0.00000000000E+00 -0.00000000000E+00 -0.45593999997E+02  0.45594000000E+02  0.51100000000E-03 0.  1.
    9900012    2    1    2    0    0  0.26294118104E+02 -0.25905311042E+02  0.17049922843E+02  0.50528860117E+02  0.30000000812E+02 0.  0.
         12    1    1    2    0    0 -0.26294118104E+02  0.25905311042E+02 -0.17049922843E+02  0.40659139883E+02  0.00000000000E+00 0. -1.
         11    1    3    3    0    0 -0.12631518104E+00  0.32248403633E+01 -0.11943843858E+00  0.32295226730E+01  0.51100000000E-03 0. -1.
        -11    1    3    3    0    0  0.22423109977E+02 -0.10197977508E+02  0.81090605645E+01  0.25933597317E+02  0.51100000000E-03 0.  1.
         12    1    3    3    0    0  0.39973233084E+01 -0.18932173897E+02  0.90603007167E+01  0.21365740127E+02  0.00000000000E+00 0. -1.
</event>
<event>
 7    1  0.2680581E-011  0.5052887E+02  0.7816164E-02  0.1300439E+00
        -11   -1    0    0    0    0  0.00000000000E+00  0.00000000000E+00  0.45593999997E+02  0.45594000000E+02  0.51100000000E-03 0.  1.
         11   -1    0    0    0    0 -0.00000000000E+00 -0.00000000000E+00 -0.45593999997E+02  0.45594000000E+02  0.51100000000E-03 0. -1.
    9900012    2    1    2    0    0 -0.12297799642E+01 -0.52383050550E+01  0.40301521339E+02  0.50528870388E+02  0.30000032031E+02 0.  0.
         12    1    1    2    0    0  0.12297799642E+01  0.52383050550E+01 -0.40301521339E+02  0.40659129612E+02  0.00000000000E+00 0. -1.
         11    1    3    3    0    0  0.64164294237E+01  0.16514682735E+01  0.13751438553E+02  0.15264336754E+02  0.51100000000E-03 0. -1.
        -11    1    3    3    0    0 -0.11190508898E+02  0.29730312177E+01  0.83957854151E+01  0.14302294117E+02  0.51100000000E-03 0.  1.
         12    1    3    3    0    0  0.35442995100E+01 -0.98628045461E+01  0.18154297371E+02  0.20962239517E+02  0.00000000000E+00 0. -1.
</event>
<event>
 7    1  0.2680581E-011  0.5052887E+02  0.7816164E-02  0.1300439E+00
        -11   -1    0    0    0    0  0.00000000000E+00  0.00000000000E+00  0.45593999997E+02  0.45594000000E+02  0.51100000000E-03 0. -1.
         11   -1    0    0    0    0 -0.00000000000E+00 -0.00000000000E+00 -0.45593999997E+02  0.45594000000E+02  0.51100000000E-03 0.  1.
    9900012    2    1    2    0    0 -0.23486674210E+02 -0.32993199891E+02  0.36041801989E+01  0.50528865486E+02  0.30000017132E+02 0.  0.
         12    1    1    2    0    0  0.23486674210E+02  0.32993199891E+02 -0.36041801989E+01  0.40659134514E+02  0.00000000000E+00 0. -1.
         11    1    3    3    0    0 -0.16715705079E+02 -0.26182338159E+02  0.23928072036E+01  0.31155339099E+02  0.51100000000E-03 0. -1.
        -11    1    3    3    0    0 -0.94479504630E+01 -0.68205110320E+01 -0.49464294324E+01  0.12659000872E+02  0.51100000000E-03 0.  1.
         12    1    3    3    0    0  0.26769813320E+01  0.96493001301E-02  0.61578024278E+01  0.67145255156E+01  0.00000000000E+00 0. -1.
</event>
<event>
 7    1  0.2680581E-011  0.5052886E+02  0.7816164E-02  0.1300439E+00
        -11   -1    0    0    0    0  0.00000000000E+00  0.00000000000E+00  0.45593999997E+02  0.45594000000E+02  0.51100000000E-03 0.  1.
         11   -1    0    0    0    0 -0.00000000000E+00 -0.00000000000E+00 -0.45593999997E+02  0.45594000000E+02  0.51100000000E-03 0. -1.
    9900012    2    1    2    0    0 -0.15027392164E+02 -0.19827887702E+02  0.32158948582E+02  0.50528860561E+02  0.30000002161E+02 0.  0.
         12    1    1    2    0    0  0.15027392164E+02  0.19827887702E+02 -0.32158948582E+02  0.40659139439E+02  0.00000000000E+00 0. -1.
         11    1    3    3    0    0 -0.83390392381E+01  0.83804157528E+00  0.10719073677E+02  0.13606631834E+02  0.51100000000E-03 0. -1.
        -11    1    3    3    0    0 -0.41239183228E+01 -0.80081345217E+01  0.22227477746E+02  0.23983279344E+02  0.51100000000E-03 0.  1.
         12    1    3    3    0    0 -0.25644346034E+01 -0.12657794756E+02 -0.78760284145E+00  0.12938949384E+02  0.00000000000E+00 0. -1.
</event>
<event>
 7    1  0.2680581E-011  0.5052889E+02  0.7816164E-02  0.1300439E+00
        -11   -1    0    0    0    0  0.00000000000E+00  0.00000000000E+00  0.45593999997E+02  0.45594000000E+02  0.51100000000E-03 0. -1.
         11   -1    0    0    0    0 -0.00000000000E+00 -0.00000000000E+00 -0.45593999997E+02  0.45594000000E+02  0.51100000000E-03 0.  1.
    9900012    2    1    2    0    0 -0.38435090811E+02  0.13073389595E+02 -0.22347040725E+01  0.50528885112E+02  0.30000076788E+02 0.  0.
         12    1    1    2    0    0  0.38435090811E+02 -0.13073389595E+02  0.22347040725E+01  0.40659114888E+02  0.00000000000E+00 0. -1.
         11    1    3    3    0    0 -0.13984269108E+01  0.61175028033E+01 -0.18580443724E+01  0.65445983470E+01  0.51100000000E-03 0. -1.
        -11    1    3    3    0    0 -0.27593923493E+02  0.14836962768E+02 -0.27773620682E+01  0.31452723542E+02  0.51100000000E-03 0.  1.
         12    1    3    3    0    0 -0.94427404077E+01 -0.78810759768E+01  0.24007023681E+01  0.12531563223E+02  0.00000000000E+00 0. -1.
</event>
<event>
 7    1  0.2680581E-011  0.5052886E+02  0.7816164E-02  0.1300439E+00
        -11   -1    0    0    0    0  0.00000000000E+00  0.00000000000E+00  0.45593999997E+02  0.45594000000E+02  0.51100000000E-03 0. -1.
         11   -1    0    0    0    0 -0.00000000000E+00 -0.00000000000E+00 -0.45593999997E+02  0.45594000000E+02  0.51100000000E-03 0.  1.
    9900012    2    1    2    0    0  0.48195677746E+01 -0.59594228785E+01 -0.39930223649E+02  0.50528859389E+02  0.29999998598E+02 0.  0.
         12    1    1    2    0    0 -0.48195677746E+01  0.59594228785E+01  0.39930223649E+02  0.40659140611E+02  0.00000000000E+00 0. -1.
         11    1    3    3    0    0 -0.53825039251E+01  0.41131919540E+01 -0.10393881548E+02  0.12406549498E+02  0.51100000000E-03 0. -1.
        -11    1    3    3    0    0 -0.44726181551E+01 -0.75926556415E+01 -0.77342909705E+01  0.11724844985E+02  0.51100000000E-03 0.  1.
         12    1    3    3    0    0  0.14674689855E+02 -0.24799591910E+01 -0.21802051130E+02  0.26397464905E+02  0.00000000000E+00 0. -1.
</event>
<event>
 7    1  0.2680581E-011  0.5052885E+02  0.7816164E-02  0.1300439E+00
        -11   -1    0    0    0    0  0.00000000000E+00  0.00000000000E+00  0.45593999997E+02  0.45594000000E+02  0.51100000000E-03 0.  1.
         11   -1    0    0    0    0 -0.00000000000E+00 -0.00000000000E+00 -0.45593999997E+02  0.45594000000E+02  0.51100000000E-03 0. -1.
    9900012    2    1    2    0    0 -0.26175357863E+02  0.92970069388E+01  0.29691464441E+02  0.50528846567E+02  0.29999959624E+02 0.  0.
         12    1    1    2    0    0  0.26175357863E+02 -0.92970069388E+01 -0.29691464441E+02  0.40659153433E+02  0.00000000000E+00 0. -1.
         11    1    3    3    0    0 -0.53869656865E+01  0.93404212811E+01  0.21198043505E+02  0.23782765140E+02  0.51100000000E-03 0. -1.
        -11    1    3    3    0    0  0.53157536485E+00 -0.29425071230E+01  0.36011421740E+01  0.46807206449E+01  0.51100000000E-03 0.  1.
         12    1    3    3    0    0 -0.21319967542E+02  0.28990927806E+01  0.48922787615E+01  0.22065360781E+02  0.00000000000E+00 0. -1.
</event>
<event>
 7    1  0.2680581E-011  0.5052886E+02  0.7816164E-02  0.1300439E+00
        -11   -1    0    0    0    0  0.00000000000E+00  0.00000000000E+00  0.45593999997E+02  0.45594000000E+02  0.51100000000E-03 0.  1.
         11   -1    0    0    0    0 -0.00000000000E+00 -0.00000000000E+00 -0.45593999997E+02  0.45594000000E+02  0.51100000000E-03 0. -1.
    9900012    2    1    2    0    0 -0.25592800338E+02 -0.89010894646E+00  0.31581356336E+02  0.50528858456E+02  0.29999995762E+02 0.  0.
         12    1    1    2    0    0  0.25592800338E+02  0.89010894646E+00 -0.31581356336E+02  0.40659141544E+02  0.00000000000E+00 0. -1.
         11    1    3    3    0    0 -0.20612979795E+02 -0.98327081174E+01  0.25638632591E+02  0.34335354466E+02  0.51100000000E-03 0. -1.
        -11    1    3    3    0    0 -0.14202722415E+01  0.11166485137E+01  0.72727536507E+01  0.74937989743E+01  0.51100000000E-03 0.  1.
         12    1    3    3    0    0 -0.35595483022E+01  0.78259506572E+01 -0.13300299053E+01  0.86997050153E+01  0.00000000000E+00 0. -1.
</event>
<event>
 7    1  0.2680581E-011  0.5052875E+02  0.7816164E-02  0.1300439E+00
        -11   -1    0    0    0    0  0.00000000000E+00  0.00000000000E+00  0.45593999997E+02  0.45594000000E+02  0.51100000000E-03 0. -1.
         11   -1    0    0    0    0 -0.00000000000E+00 -0.00000000000E+00 -0.45593999997E+02  0.45594000000E+02  0.51100000000E-03 0.  1.
    9900012    2    1    2    0    0 -0.27840277979E+02  0.22106665989E+02 -0.19732941213E+02  0.50528748556E+02  0.29999661710E+02 0.  0.
         12    1    1    2    0    0  0.27840277979E+02 -0.22106665989E+02  0.19732941213E+02  0.40659251444E+02  0.00000000000E+00 0. -1.
         11    1    3    3    0    0 -0.23506415952E+02  0.22125111501E+02 -0.14251302895E+02  0.35286991715E+02  0.51100000000E-03 0. -1.
        -11    1    3    3    0    0 -0.75601343982E+01  0.43268564825E+01 -0.24985731703E+01  0.90620189410E+01  0.51100000000E-03 0.  1.
         12    1    3    3    0    0  0.32262723713E+01 -0.43453019949E+01 -0.29830651474E+01  0.61797379001E+01  0.00000000000E+00 0. -1.
</event>
<event>
 7    1  0.2680581E-011  0.5052885E+02  0.7816164E-02  0.1300439E+00
        -11   -1    0    0    0    0  0.00000000000E+00  0.00000000000E+00  0.45593999997E+02  0.45594000000E+02  0.51100000000E-03 0. -1.
         11   -1    0    0    0    0 -0.00000000000E+00 -0.00000000000E+00 -0.45593999997E+02  0.45594000000E+02  0.51100000000E-03 0.  1.
    9900012    2    1    2    0    0 -0.27315585022E+02 -0.28800080788E+02 -0.88079850424E+01  0.50528850488E+02  0.29999971545E+02 0.  0.
         12    1    1    2    0    0  0.27315585022E+02  0.28800080788E+02  0.88079850424E+01  0.40659149512E+02  0.00000000000E+00 0. -1.
         11    1    3    3    0    0 -0.11628361354E+02 -0.10570465393E+02  0.54588060451E+01  0.16635867579E+02  0.51100000000E-03 0. -1.
        -11    1    3    3    0    0 -0.15524549630E+02 -0.20767603719E+02 -0.80081250202E+01  0.27137337232E+02  0.51100000000E-03 0.  1.
        -12    1    3    3    0    0 -0.16267403823E+00  0.25379883244E+01 -0.62586660672E+01  0.67556456774E+01  0.00000000000E+00 0.  1.
</event>
<event>
 7    1  0.2680581E-011  0.5052885E+02  0.7816164E-02  0.1300439E+00
        -11   -1    0    0    0    0  0.00000000000E+00  0.00000000000E+00  0.45593999997E+02  0.45594000000E+02  0.51100000000E-03 0. -1.
         11   -1    0    0    0    0 -0.00000000000E+00 -0.00000000000E+00 -0.45593999997E+02  0.45594000000E+02  0.51100000000E-03 0.  1.
    9900012    2    1    2    0    0  0.66649161513E+01 -0.35536602005E+02 -0.18598250035E+02  0.50528854734E+02  0.29999984449E+02 0.  0.
         12    1    1    2    0    0 -0.66649161513E+01  0.35536602005E+02  0.18598250035E+02  0.40659145266E+02  0.00000000000E+00 0. -1.
         11    1    3    3    0    0  0.52080716144E+01 -0.10513335273E+01  0.29479792675E+01  0.60761743021E+01  0.51100000000E-03 0. -1.
        -11    1    3    3    0    0  0.92740936031E+01 -0.22140083097E+02 -0.10839970208E+02  0.26338129130E+02  0.51100000000E-03 0.  1.
         12    1    3    3    0    0 -0.78172490662E+01 -0.12345185381E+02 -0.10706259095E+02  0.18114551302E+02  0.00000000000E+00 0. -1.
</event>
<event>
 7    1  0.2680581E-011  0.5052887E+02  0.7816164E-02  0.1300439E+00
        -11   -1    0    0    0    0  0.00000000000E+00  0.00000000000E+00  0.45593999997E+02  0.45594000000E+02  0.51100000000E-03 0.  1.
         11   -1    0    0    0    0 -0.00000000000E+00 -0.00000000000E+00 -0.45593999997E+02  0.45594000000E+02  0.51100000000E-03 0. -1.
    9900012    2    1    2    0    0 -0.34864703284E+02  0.11940995859E+02  0.17176440829E+02  0.50528867732E+02  0.30000023959E+02 0.  0.
         12    1    1    2    0    0  0.34864703284E+02 -0.11940995859E+02 -0.17176440829E+02  0.40659132268E+02  0.00000000000E+00 0. -1.
         11    1    3    3    0    0 -0.90692121414E+00  0.68685118574E+01  0.67205736206E+01  0.96522055135E+01  0.51100000000E-03 0. -1.
        -11    1    3    3    0    0 -0.17040018793E+02 -0.62454921653E+01  0.95360891676E+01  0.20501351412E+02  0.51100000000E-03 0.  1.
         12    1    3    3    0    0 -0.16917763277E+02  0.11317976167E+02  0.91977804099E+00  0.20375310806E+02  0.00000000000E+00 0. -1.
</event>
<event>
 7    1  0.2680581E-011  0.5052885E+02  0.7816164E-02  0.1300439E+00
        -11   -1    0    0    0    0  0.00000000000E+00  0.00000000000E+00  0.45593999997E+02  0.45594000000E+02  0.51100000000E-03 0.  1.
         11   -1    0    0    0    0 -0.00000000000E+00 -0.00000000000E+00 -0.45593999997E+02  0.45594000000E+02  0.51100000000E-03 0. -1.
    9900012    2    1    2    0    0  0.30985030789E+02  0.24270533492E+02  0.10199772810E+02  0.50528852267E+02  0.29999976949E+02 0.  0.
         12    1    1    2    0    0 -0.30985030789E+02 -0.24270533492E+02 -0.10199772810E+02  0.40659147733E+02  0.00000000000E+00 0. -1.
         11    1    3    3    0    0 -0.13185834374E+01  0.52801624830E+01 -0.63468433144E+01  0.83606936582E+01  0.51100000000E-03 0. -1.
        -11    1    3    3    0    0  0.74101174757E+01  0.77447528625E+01  0.10682544704E+01  0.10771824626E+02  0.51100000000E-03 0.  1.
         12    1    3    3    0    0  0.24893496751E+02  0.11245618147E+02  0.15478361654E+02  0.31396333982E+02  0.00000000000E+00 0. -1.
</event>
<event>
 7    1  0.2680581E-011  0.5052886E+02  0.7816164E-02  0.1300439E+00
        -11   -1    0    0    0    0  0.00000000000E+00  0.00000000000E+00  0.45593999997E+02  0.45594000000E+02  0.51100000000E-03 0.  1.
         11   -1    0    0    0    0 -0.00000000000E+00 -0.00000000000E+00 -0.45593999997E+02  0.45594000000E+02  0.51100000000E-03 0. -1.
    9900012    2    1    2    0    0  0.12592598671E+02  0.33884459895E+02  0.18612775055E+02  0.50528861311E+02  0.30000004442E+02 0.  0.
         12    1    1    2    0    0 -0.12592598671E+02 -0.33884459895E+02 -0.18612775055E+02  0.40659138689E+02  0.00000000000E+00 0. -1.
         11    1    3    3    0    0  0.12142886957E+02  0.15775689220E+01  0.30680113189E+01  0.12623435391E+02  0.51100000000E-03 0. -1.
        -11    1    3    3    0    0 -0.36620884835E+01  0.60357744401E+01 -0.86564527878E-01  0.70603795104E+01  0.51100000000E-03 0.  1.
        -12    1    3    3    0    0  0.41118001974E+01  0.26271116533E+02  0.15631328264E+02  0.30845046410E+02  0.00000000000E+00 0.  1.
</event>
<event>
 7    1  0.2968599E-011  0.5052886E+02  0.7816164E-02  0.1300439E+00
        -11   -1    0    0    0    0  0.00000000000E+00  0.00000000000E+00  0.45593999997E+02  0.45594000000E+02  0.51100000000E-03 0. -1.
         11   -1    0    0    0    0 -0.00000000000E+00 -0.00000000000E+00 -0.45593999997E+02  0.45594000000E+02  0.51100000000E-03 0.  1.
    9900012    2    1    2    0    0 -0.26023434718E+02 -0.15100713624E+01 -0.31203626302E+02  0.50528858784E+02  0.29999996760E+02 0.  0.
         12    1    1    2    0    0  0.26023434718E+02  0.15100713624E+01  0.31203626302E+02  0.40659141216E+02  0.00000000000E+00 0. -1.
         11    1    3    3    0    0 -0.12808163902E+02  0.11208517560E+02 -0.13616398997E+02  0.21796473346E+02  0.51100000000E-03 0. -1.
        -11    1    3    3    0    0 -0.68440796558E+00 -0.34844414585E+00 -0.91944066236E+01  0.92264262316E+01  0.51100000000E-03 0.  1.
         12    1    3    3    0    0 -0.12530862850E+02 -0.12370144777E+02 -0.83928206816E+01  0.19505959206E+02  0.00000000000E+00 0. -1.
</event>
<event>
 7    1  0.2680581E-011  0.5052889E+02  0.7816164E-02  0.1300439E+00
        -11   -1    0    0    0    0  0.00000000000E+00  0.00000000000E+00  0.45593999997E+02  0.45594000000E+02  0.51100000000E-03 0.  1.
         11   -1    0    0    0    0 -0.00000000000E+00 -0.00000000000E+00 -0.45593999997E+02  0.45594000000E+02  0.51100000000E-03 0. -1.
    9900012    2    1    2    0    0  0.15915815478E+02 -0.30277137338E+02  0.21980552378E+02  0.50528893879E+02  0.30000103434E+02 0.  0.
         12    1    1    2    0    0 -0.15915815478E+02  0.30277137338E+02 -0.21980552378E+02  0.40659106121E+02  0.00000000000E+00 0. -1.
         11    1    3    3    0    0  0.12123139035E+02 -0.25289505152E+02  0.14589351023E+02  0.31612952005E+02  0.51100000000E-03 0. -1.
        -11    1    3    3    0    0  0.21418578749E+01 -0.40227991519E+01  0.12583169896E+02  0.13383072632E+02  0.51100000000E-03 0.  1.
        -12    1    3    3    0    0  0.16508185682E+01 -0.96483303373E+00 -0.51919685409E+01  0.55328692428E+01  0.00000000000E+00 0.  1.
</event>
<event>
 7    1  0.2680581E-011  0.5052893E+02  0.7816164E-02  0.1300439E+00
        -11   -1    0    0    0    0  0.00000000000E+00  0.00000000000E+00  0.45593999997E+02  0.45594000000E+02  0.51100000000E-03 0.  1.
         11   -1    0    0    0    0 -0.00000000000E+00 -0.00000000000E+00 -0.45593999997E+02  0.45594000000E+02  0.51100000000E-03 0. -1.
    9900012    2    1    2    0    0  0.40042744189E+02  0.69633884483E+01  0.11178634941E+01  0.50528932627E+02  0.30000221213E+02 0.  0.
         12    1    1    2    0    0 -0.40042744189E+02 -0.69633884483E+01 -0.11178634941E+01  0.40659067373E+02  0.00000000000E+00 0. -1.
         11    1    3    3    0    0  0.14615443226E+02  0.84437726507E+01 -0.32621673378E+01  0.17191573904E+02  0.51100000000E-03 0. -1.
        -11    1    3    3    0    0  0.27411500266E+02 -0.14348113881E+01  0.85244459151E+01  0.28742219973E+02  0.51100000000E-03 0.  1.
         12    1    3    3    0    0 -0.19841993037E+01 -0.45572814378E-01 -0.41444150831E+01  0.45951387509E+01  0.00000000000E+00 0. -1.
</event>
<event>
 7    1  0.2680581E-011  0.5052887E+02  0.7816164E-02  0.1300439E+00
        -11   -1    0    0    0    0  0.00000000000E+00  0.00000000000E+00  0.45593999997E+02  0.45594000000E+02  0.51100000000E-03 0.  1.
         11   -1    0    0    0    0 -0.00000000000E+00 -0.00000000000E+00 -0.45593999997E+02  0.45594000000E+02  0.51100000000E-03 0. -1.
    9900012    2    1    2    0    0  0.75055134668E+01  0.24881493219E+02  0.31268887185E+02  0.50528871345E+02  0.30000034939E+02 0.  0.
         12    1    1    2    0    0 -0.75055134668E+01 -0.24881493219E+02 -0.31268887185E+02  0.40659128655E+02  0.00000000000E+00 0. -1.
         11    1    3    3    0    0  0.35966978907E+01  0.29550036274E+00  0.12678411468E+01  0.38250460933E+01  0.51100000000E-03 0. -1.
        -11    1    3    3    0    0  0.12362622711E+02  0.24142423908E+02  0.24902765960E+02  0.36821716760E+02  0.51100000000E-03 0.  1.
         12    1    3    3    0    0 -0.84538071344E+01  0.44356894815E+00  0.50982800788E+01  0.98821084916E+01  0.00000000000E+00 0. -1.
</event>
<event>
 7    1  0.2680581E-011  0.5052885E+02  0.7816164E-02  0.1300439E+00
        -11   -1    0    0    0    0  0.00000000000E+00  0.00000000000E+00  0.45593999997E+02  0.45594000000E+02  0.51100000000E-03 0.  1.
         11   -1    0    0    0    0 -0.00000000000E+00 -0.00000000000E+00 -0.45593999997E+02  0.45594000000E+02  0.51100000000E-03 0. -1.
    9900012    2    1    2    0    0  0.26061120245E+02  0.16174464113E+02  0.26690280612E+02  0.50528851498E+02  0.29999974614E+02 0.  0.
         12    1    1    2    0    0 -0.26061120245E+02 -0.16174464113E+02 -0.26690280612E+02  0.40659148502E+02  0.00000000000E+00 0. -1.
         11    1    3    3    0    0  0.32121328536E+01  0.12456919113E+01  0.14214841276E+02  0.14626389116E+02  0.51100000000E-03 0. -1.
        -11    1    3    3    0    0  0.12410427214E+02  0.16833829558E+02  0.14021655917E+02  0.25179423269E+02  0.51100000000E-03 0.  1.
         12    1    3    3    0    0  0.10438560177E+02 -0.19050573570E+01 -0.15462165816E+01  0.10723039113E+02  0.00000000000E+00 0. -1.
</event>
<event>
 7    1  0.2680581E-011  0.5052885E+02  0.7816164E-02  0.1300439E+00
        -11   -1    0    0    0    0  0.00000000000E+00  0.00000000000E+00  0.45593999997E+02  0.45594000000E+02  0.51100000000E-03 0.  1.
         11   -1    0    0    0    0 -0.00000000000E+00 -0.00000000000E+00 -0.45593999997E+02  0.45594000000E+02  0.51100000000E-03 0. -1.
    9900012    2    1    2    0    0  0.25467183518E+02  0.14686333621E+02  0.28087377993E+02  0.50528848089E+02  0.29999964251E+02 0.  0.
         12    1    1    2    0    0 -0.25467183518E+02 -0.14686333621E+02 -0.28087377993E+02  0.40659151911E+02  0.00000000000E+00 0. -1.
         11    1    3    3    0    0 -0.81519771705E+00  0.15098621377E+01  0.86571933233E+01  0.88256006872E+01  0.51100000000E-03 0. -1.
        -11    1    3    3    0    0  0.14388022982E+02  0.18094829904E+02  0.16770352943E+02  0.28560161286E+02  0.51100000000E-03 0.  1.
        -12    1    3    3    0    0  0.11894358254E+02 -0.49183584210E+01  0.26598317266E+01  0.13143086116E+02  0.00000000000E+00 0.  1.
</event>
<event>
 7    1  0.2935880E-011  0.5052886E+02  0.7816164E-02  0.1300439E+00
        -11   -1    0    0    0    0  0.00000000000E+00  0.00000000000E+00  0.45593999997E+02  0.45594000000E+02  0.51100000000E-03 0.  1.
         11   -1    0    0    0    0 -0.00000000000E+00 -0.00000000000E+00 -0.45593999997E+02  0.45594000000E+02  0.51100000000E-03 0. -1.
    9900012    2    1    2    0    0  0.33289023673E+02  0.38179186749E+01  0.23031067411E+02  0.50528859992E+02  0.30000000432E+02 0.  0.
         12    1    1    2    0    0 -0.33289023673E+02 -0.38179186749E+01 -0.23031067411E+02  0.40659140008E+02  0.00000000000E+00 0. -1.
         11    1    3    3    0    0  0.35634980165E+00  0.43574494627E+01 -0.21097562659E+00  0.43770837298E+01  0.51100000000E-03 0. -1.
        -11    1    3    3    0    0  0.17366106689E+02 -0.21597850523E+01  0.24877327609E+02  0.30415912977E+02  0.51100000000E-03 0.  1.
         12    1    3    3    0    0  0.15566567182E+02  0.16202542645E+01 -0.16352845712E+01  0.15735863286E+02  0.00000000000E+00 0. -1.
</event>
<event>
 7    1  0.2680581E-011  0.5052886E+02  0.7816164E-02  0.1300439E+00
        -11   -1    0    0    0    0  0.00000000000E+00  0.00000000000E+00  0.45593999997E+02  0.45594000000E+02  0.51100000000E-03 0.  1.
         11   -1    0    0    0    0 -0.00000000000E+00 -0.00000000000E+00 -0.45593999997E+02  0.45594000000E+02  0.51100000000E-03 0. -1.
    9900012    2    1    2    0    0  0.17220419382E+02 -0.31889394240E+02  0.18430665211E+02  0.50528859222E+02  0.29999998091E+02 0.  0.
         12    1    1    2    0    0 -0.17220419382E+02  0.31889394240E+02 -0.18430665211E+02  0.40659140778E+02  0.00000000000E+00 0. -1.
         11    1    3    3    0    0  0.40153682613E+01  0.13717385759E+01  0.43846033894E+01  0.61016060293E+01  0.51100000000E-03 0.  1.
        -11    1    3    3    0    0  0.19052996124E+02 -0.26186244317E+02  0.77562911019E+01  0.33300091661E+02  0.51100000000E-03 0. -1.
         12    1    3    3    0    0 -0.58479450033E+01 -0.70748884994E+01  0.62897707197E+01  0.11127161531E+02  0.00000000000E+00 0. -1.
</event>
<event>
 7    1  0.2680581E-011  0.5052888E+02  0.7816164E-02  0.1300439E+00
        -11   -1    0    0    0    0  0.00000000000E+00  0.00000000000E+00  0.45593999997E+02  0.45594000000E+02  0.51100000000E-03 0.  1.
         11   -1    0    0    0    0 -0.00000000000E+00 -0.00000000000E+00 -0.45593999997E+02  0.45594000000E+02  0.51100000000E-03 0. -1.
    9900012    2    1    2    0    0 -0.14506129312E+02 -0.95252336767E+01  0.36769638512E+02  0.50528878262E+02  0.30000055965E+02 0.  0.
         12    1    1    2    0    0  0.14506129312E+02  0.95252336767E+01 -0.36769638512E+02  0.40659121738E+02  0.00000000000E+00 0. -1.
         11    1    3    3    0    0 -0.26175044228E+01  0.75463111566E+01  0.68239940514E+01  0.10505476503E+02  0.51100000000E-03 0. -1.
        -11    1    3    3    0    0  0.25839217341E+01 -0.14768825693E+01  0.11455897566E+02  0.11836191236E+02  0.51100000000E-03 0.  1.
         12    1    3    3    0    0 -0.14472546623E+02 -0.15594662264E+02  0.18489746894E+02  0.28187210524E+02  0.00000000000E+00 0. -1.
</event>
<event>
 7    1  0.2680581E-011  0.5052886E+02  0.7816164E-02  0.1300439E+00
        -11   -1    0    0    0    0  0.00000000000E+00  0.00000000000E+00  0.45593999997E+02  0.45594000000E+02  0.51100000000E-03 0.  1.
         11   -1    0    0    0    0 -0.00000000000E+00 -0.00000000000E+00 -0.45593999997E+02  0.45594000000E+02  0.51100000000E-03 0. -1.
    9900012    2    1    2    0    0  0.27884188937E+02  0.15969843942E+02  0.24911877298E+02  0.50528861559E+02  0.30000005195E+02 0.  0.
         12    1    1    2    0    0 -0.27884188937E+02 -0.15969843942E+02 -0.24911877298E+02  0.40659138441E+02  0.00000000000E+00 0. -1.
         11    1    3    3    0    0  0.77362770755E+01  0.17271484315E+02  0.98871388766E+01  0.21352041328E+02  0.51100000000E-03 0. -1.
        -11    1    3    3    0    0 -0.43286914877E+00 -0.30434840403E+01  0.57826563511E+01  0.65489911849E+01  0.51100000000E-03 0.  1.
        -12    1    3    3    0    0  0.20580781010E+02  0.17418436676E+01  0.92420820707E+01  0.22627829047E+02  0.00000000000E+00 0.  1.
</event>
<event>
 7    1  0.2680581E-011  0.5052887E+02  0.7816164E-02  0.1300439E+00
        -11   -1    0    0    0    0  0.00000000000E+00  0.00000000000E+00  0.45593999997E+02  0.45594000000E+02  0.51100000000E-03 0.  1.
         11   -1    0    0    0    0 -0.00000000000E+00 -0.00000000000E+00 -0.45593999997E+02  0.45594000000E+02  0.51100000000E-03 0. -1.
    9900012    2    1    2    0    0  0.32866168376E+02  0.96379953453E+01  0.21910921492E+02  0.50528874842E+02  0.30000045570E+02 0.  0.
         12    1    1    2    0    0 -0.32866168376E+02 -0.96379953453E+01 -0.21910921492E+02  0.40659125158E+02  0.00000000000E+00 0. -1.
         11    1    3    3    0    0  0.14255663657E+02  0.27915128440E+01  0.64111944643E+01  0.15878284069E+02  0.51100000000E-03 0.  1.
        -11    1    3    3    0    0 -0.56189697035E+01 -0.56687860003E+00  0.30659911328E+01  0.64260776344E+01  0.51100000000E-03 0. -1.
         12    1    3    3    0    0  0.24229474422E+02  0.74133611013E+01  0.12433735895E+02  0.28224513138E+02  0.00000000000E+00 0. -1.
</event>
<event>
 7    1  0.2680581E-011  0.5052885E+02  0.7816164E-02  0.1300439E+00
        -11   -1    0    0    0    0  0.00000000000E+00  0.00000000000E+00  0.45593999997E+02  0.45594000000E+02  0.51100000000E-03 0.  1.
         11   -1    0    0    0    0 -0.00000000000E+00 -0.00000000000E+00 -0.45593999997E+02  0.45594000000E+02  0.51100000000E-03 0. -1.
    9900012    2    1    2    0    0  0.19383909621E+02 -0.35663049982E+02 -0.23616367995E+01  0.50528850789E+02  0.29999972458E+02 0.  0.
         12    1    1    2    0    0 -0.19383909621E+02  0.35663049982E+02  0.23616367995E+01  0.40659149211E+02  0.00000000000E+00 0. -1.
         11    1    3    3    0    0  0.56289246978E+01 -0.35496741238E+02 -0.21492050925E+01  0.36004479091E+02  0.51100000000E-03 0.  1.
        -11    1    3    3    0    0  0.22120293139E+01  0.17155177831E+01  0.31610286864E+00  0.28170900295E+01  0.51100000000E-03 0. -1.
        -12    1    3    3    0    0  0.11542955609E+02 -0.18818265263E+01 -0.52853457564E+00  0.11707281669E+02  0.00000000000E+00 0.  1.
</event>
<event>
 7    1  0.2680581E-011  0.5052886E+02  0.7816164E-02  0.1300439E+00
        -11   -1    0    0    0    0  0.00000000000E+00  0.00000000000E+00  0.45593999997E+02  0.45594000000E+02  0.51100000000E-03 0. -1.
         11   -1    0    0    0    0 -0.00000000000E+00 -0.00000000000E+00 -0.45593999997E+02  0.45594000000E+02  0.51100000000E-03 0.  1.
    9900012    2    1    2    0    0 -0.40489424664E+02  0.36874285695E+01  0.41803722771E+00  0.50528863337E+02  0.30000010598E+02 0.  0.
         12    1    1    2    0    0  0.40489424664E+02 -0.36874285695E+01 -0.41803722771E+00  0.40659136663E+02  0.00000000000E+00 0. -1.
         11    1    3    3    0    0 -0.30037456638E+01 -0.44810242087E+01  0.46635710339E+01  0.71309859782E+01  0.51100000000E-03 0. -1.
        -11    1    3    3    0    0 -0.11157088647E+02 -0.59671462462E+01 -0.47378839201E+01  0.13510551643E+02  0.51100000000E-03 0.  1.
         12    1    3    3    0    0 -0.26328590353E+02  0.14135599024E+02  0.49235011392E+00  0.29887325715E+02  0.00000000000E+00 0. -1.
</event>
<event>
 7    1  0.2680581E-011  0.5052886E+02  0.7816164E-02  0.1300439E+00
        -11   -1    0    0    0    0  0.00000000000E+00  0.00000000000E+00  0.45593999997E+02  0.45594000000E+02  0.51100000000E-03 0.  1.
         11   -1    0    0    0    0 -0.00000000000E+00 -0.00000000000E+00 -0.45593999997E+02  0.45594000000E+02  0.51100000000E-03 0. -1.
    9900012    2    1    2    0    0  0.30175388596E+01  0.33769842637E+02  0.22442326605E+02  0.50528857905E+02  0.29999994087E+02 0.  0.
         12    1    1    2    0    0 -0.30175388596E+01 -0.33769842637E+02 -0.22442326605E+02  0.40659142095E+02  0.00000000000E+00 0. -1.
         11    1    3    3    0    0  0.33664002975E+01  0.86624007940E+00  0.89286175607E+01  0.95814004532E+01  0.51100000000E-03 0. -1.
        -11    1    3    3    0    0 -0.82797309284E+00  0.24543500319E+02  0.18902202025E+02  0.30989711018E+02  0.51100000000E-03 0.  1.
        -12    1    3    3    0    0  0.47911165495E+00  0.83601022391E+01 -0.53884929808E+01  0.99577464333E+01  0.00000000000E+00 0.  1.
</event>
<event>
 7    1  0.2680581E-011  0.5052886E+02  0.7816164E-02  0.1300439E+00
        -11   -1    0    0    0    0  0.00000000000E+00  0.00000000000E+00  0.45593999997E+02  0.45594000000E+02  0.51100000000E-03 0. -1.
         11   -1    0    0    0    0 -0.00000000000E+00 -0.00000000000E+00 -0.45593999997E+02  0.45594000000E+02  0.51100000000E-03 0.  1.
    9900012    2    1    2    0    0  0.11215835546E+02  0.24977487205E+02 -0.30058212726E+02  0.50528856055E+02  0.29999988464E+02 0.  0.
         12    1    1    2    0    0 -0.11215835546E+02 -0.24977487205E+02  0.30058212726E+02  0.40659143945E+02  0.00000000000E+00 0. -1.
         11    1    3    3    0    0  0.34243868639E+01  0.19695757189E+02 -0.72538313244E+01  0.21266578140E+02  0.51100000000E-03 0. -1.
        -11    1    3    3    0    0  0.88042694116E+01  0.16362010857E+01 -0.35391395420E+01  0.96290094415E+01  0.51100000000E-03 0.  1.
         12    1    3    3    0    0 -0.10128207297E+01  0.36455289303E+01 -0.19265241860E+02  0.19633268473E+02  0.00000000000E+00 0. -1.
</event>
<event>
 7    1  0.4503039E-011  0.5052886E+02  0.7816164E-02  0.1300439E+00
        -11   -1    0    0    0    0  0.00000000000E+00  0.00000000000E+00  0.45593999997E+02  0.45594000000E+02  0.51100000000E-03 0.  1.
         11   -1    0    0    0    0 -0.00000000000E+00 -0.00000000000E+00 -0.45593999997E+02  0.45594000000E+02  0.51100000000E-03 0. -1.
    9900012    2    1    2    0    0  0.18841900555E+01 -0.39885518288E+02  0.76655688496E+01  0.50528859736E+02  0.29999999653E+02 0.  0.
         12    1    1    2    0    0 -0.18841900555E+01  0.39885518288E+02 -0.76655688496E+01  0.40659140264E+02  0.00000000000E+00 0. -1.
         11    1    3    3    0    0 -0.48889453222E+01 -0.45680535883E+00  0.35863719061E+01  0.60805033681E+01  0.51100000000E-03 0. -1.
        -11    1    3    3    0    0  0.13101061614E+01 -0.11890408431E+02  0.10192226646E+02  0.15715587010E+02  0.51100000000E-03 0.  1.
        -12    1    3    3    0    0  0.54630292163E+01 -0.27538304498E+02 -0.61130297022E+01  0.28732769358E+02  0.00000000000E+00 0.  1.
</event>
<event>
 7    1  0.2680581E-011  0.5052887E+02  0.7816164E-02  0.1300439E+00
        -11   -1    0    0    0    0  0.00000000000E+00  0.00000000000E+00  0.45593999997E+02  0.45594000000E+02  0.51100000000E-03 0.  1.
         11   -1    0    0    0    0 -0.00000000000E+00 -0.00000000000E+00 -0.45593999997E+02  0.45594000000E+02  0.51100000000E-03 0. -1.
    9900012    2    1    2    0    0  0.11957846944E+02 -0.14066259845E+02  0.36225894733E+02  0.50528865494E+02  0.30000017156E+02 0.  0.
         12    1    1    2    0    0 -0.11957846944E+02  0.14066259845E+02 -0.36225894733E+02  0.40659134506E+02  0.00000000000E+00 0. -1.
         11    1    3    3    0    0 -0.55937906727E+01 -0.88130337400E+00  0.24196058039E+01  0.61580583169E+01  0.51100000000E-03 0. -1.
        -11    1    3    3    0    0  0.13504411293E+01 -0.11486654839E+02  0.88275137903E+01  0.14549636786E+02  0.51100000000E-03 0.  1.
         12    1    3    3    0    0  0.16201196488E+02 -0.16983016314E+01  0.24978775139E+02  0.29821170391E+02  0.00000000000E+00 0. -1.
</event>
<event>
 7    1  0.2680581E-011  0.5052886E+02  0.7816164E-02  0.1300439E+00
        -11   -1    0    0    0    0  0.00000000000E+00  0.00000000000E+00  0.45593999997E+02  0.45594000000E+02  0.51100000000E-03 0.  1.
         11   -1    0    0    0    0 -0.00000000000E+00 -0.00000000000E+00 -0.45593999997E+02  0.45594000000E+02  0.51100000000E-03 0. -1.
    9900012    2    1    2    0    0  0.29894493486E+02 -0.14624355123E+01  0.27519925589E+02  0.50528858803E+02  0.29999996818E+02 0.  0.
         12    1    1    2    0    0 -0.29894493486E+02  0.14624355123E+01 -0.27519925589E+02  0.40659141197E+02  0.00000000000E+00 0. -1.
         11    1    3    3    0    0  0.24596626184E+02  0.69600484329E+00  0.13365907196E+02  0.28002248442E+02  0.51100000000E-03 0. -1.
        -11    1    3    3    0    0  0.27730594900E+01 -0.74342618615E+01  0.14645875539E+02  0.16657123969E+02  0.51100000000E-03 0.  1.
        -12    1    3    3    0    0  0.25248078123E+01  0.52758215059E+01 -0.49185714582E+00  0.58694863918E+01  0.00000000000E+00 0.  1.
</event>
<event>
 7    1  0.2680581E-011  0.5052886E+02  0.7816164E-02  0.1300439E+00
        -11   -1    0    0    0    0  0.00000000000E+00  0.00000000000E+00  0.45593999997E+02  0.45594000000E+02  0.51100000000E-03 0.  1.
         11   -1    0    0    0    0 -0.00000000000E+00 -0.00000000000E+00 -0.45593999997E+02  0.45594000000E+02  0.51100000000E-03 0. -1.
    9900012    2    1    2    0    0  0.15956478234E+02  0.37504186465E+01  0.37208749995E+02  0.50528856947E+02  0.29999991175E+02 0.  0.
         12    1    1    2    0    0 -0.15956478234E+02 -0.37504186465E+01 -0.37208749995E+02  0.40659143053E+02  0.00000000000E+00 0. -1.
         11    1    3    3    0    0  0.32248891906E+01 -0.37079826316E+01  0.14845415791E+02  0.15637628201E+02  0.51100000000E-03 0. -1.
        -11    1    3    3    0    0  0.13370975579E+02  0.85754944606E+01  0.26313673714E+02  0.30736485124E+02  0.51100000000E-03 0.  1.
         12    1    3    3    0    0 -0.63938653572E+00 -0.11170931825E+01 -0.39503395098E+01  0.41547436218E+01  0.00000000000E+00 0. -1.
</event>
<event>
 7    1  0.2680581E-011  0.5052886E+02  0.7816164E-02  0.1300439E+00
        -11   -1    0    0    0    0  0.00000000000E+00  0.00000000000E+00  0.45593999997E+02  0.45594000000E+02  0.51100000000E-03 0.  1.
         11   -1    0    0    0    0 -0.00000000000E+00 -0.00000000000E+00 -0.45593999997E+02  0.45594000000E+02  0.51100000000E-03 0. -1.
    9900012    2    1    2    0    0 -0.26718951814E+01 -0.30648361496E+02  0.26583915357E+02  0.50528860290E+02  0.30000001337E+02 0.  0.
         12    1    1    2    0    0  0.26718951814E+01  0.30648361496E+02 -0.26583915357E+02  0.40659139710E+02  0.00000000000E+00 0. -1.
         11    1    3    3    0    0 -0.20964887531E+01  0.28524823469E+00 -0.41192902902E+01  0.46308945575E+01  0.51100000000E-03 0. -1.
        -11    1    3    3    0    0 -0.82058549168E+00 -0.23941635467E+01  0.10825632085E+02  0.11117539743E+02  0.51100000000E-03 0.  1.
        -12    1    3    3    0    0  0.24517906338E+00 -0.28539446184E+02  0.19877573562E+02  0.34780425989E+02  0.00000000000E+00 0.  1.
</event>
<event>
 7    1  0.2680581E-011  0.5052886E+02  0.7816164E-02  0.1300439E+00
        -11   -1    0    0    0    0  0.00000000000E+00  0.00000000000E+00  0.45593999997E+02  0.45594000000E+02  0.51100000000E-03 0. -1.
         11   -1    0    0    0    0 -0.00000000000E+00 -0.00000000000E+00 -0.45593999997E+02  0.45594000000E+02  0.51100000000E-03 0.  1.
    9900012    2    1    2    0    0  0.27544990411E+02 -0.20609354161E+02 -0.21672417351E+02  0.50528860197E+02  0.30000001055E+02 0.  0.
         12    1    1    2    0    0 -0.27544990411E+02  0.20609354161E+02  0.21672417351E+02  0.40659139803E+02  0.00000000000E+00 0. -1.
         11    1    3    3    0    0  0.42217485905E+01 -0.13815973672E+02 -0.27080823393E+01  0.14698231182E+02  0.51100000000E-03 0. -1.
        -11    1    3    3    0    0  0.12796526477E+02 -0.12596460174E+02 -0.14232266862E+02  0.22912427176E+02  0.51100000000E-03 0.  1.
         12    1    3    3    0    0  0.10526715344E+02  0.58030796858E+01 -0.47320681492E+01  0.12918201839E+02  0.00000000000E+00 0. -1.
</event>
<event>
 7    1  0.2680581E-011  0.5052886E+02  0.7816164E-02  0.1300439E+00
        -11   -1    0    0    0    0  0.00000000000E+00  0.00000000000E+00  0.45593999997E+02  0.45594000000E+02  0.51100000000E-03 0.  1.
         11   -1    0    0    0    0 -0.00000000000E+00 -0.00000000000E+00 -0.45593999997E+02  0.45594000000E+02  0.51100000000E-03 0. -1.
    9900012    2    1    2    0    0  0.26852866702E+02  0.20107482675E+02  0.22973429308E+02  0.50528858792E+02  0.29999996784E+02 0.  0.
         12    1    1    2    0    0 -0.26852866702E+02 -0.20107482675E+02 -0.22973429308E+02  0.40659141208E+02  0.00000000000E+00 0. -1.
         11    1    3    3    0    0  0.82286302529E+01  0.12709828650E+02  0.22019612358E+02  0.26722900831E+02  0.51100000000E-03 0. -1.
        -11    1    3    3    0    0  0.11985894735E+01  0.42297857740E+01  0.38690500521E+01  0.58563856590E+01  0.51100000000E-03 0.  1.
         12    1    3    3    0    0  0.17425646976E+02  0.31678682502E+01 -0.29152331027E+01  0.17949572302E+02  0.00000000000E+00 0. -1.
</event>
<event>
 7    1  0.2680581E-011  0.5052888E+02  0.7816164E-02  0.1300439E+00
        -11   -1    0    0    0    0  0.00000000000E+00  0.00000000000E+00  0.45593999997E+02  0.45594000000E+02  0.51100000000E-03 0.  1.
         11   -1    0    0    0    0 -0.00000000000E+00 -0.00000000000E+00 -0.45593999997E+02  0.45594000000E+02  0.51100000000E-03 0. -1.
    9900012    2    1    2    0    0 -0.92996564366E+00 -0.15890388074E+02  0.37413834702E+02  0.50528876837E+02  0.30000051634E+02 0.  0.
         12    1    1    2    0    0  0.92996564366E+00  0.15890388074E+02 -0.37413834702E+02  0.40659123163E+02  0.00000000000E+00 0. -1.
         11    1    3    3    0    0 -0.12356533581E+01  0.67132206567E+00  0.21683898343E+00  0.14228604791E+01  0.51100000000E-03 0. -1.
        -11    1    3    3    0    0  0.10276330276E+02 -0.18939344137E+02  0.28026314410E+02  0.35352171361E+02  0.51100000000E-03 0.  1.
        -12    1    3    3    0    0 -0.99706425619E+01  0.23776339976E+01  0.91706813090E+01  0.13753844997E+02  0.00000000000E+00 0.  1.
</event>
<event>
 7    1  0.2680581E-011  0.5052886E+02  0.7816164E-02  0.1300439E+00
        -11   -1    0    0    0    0  0.00000000000E+00  0.00000000000E+00  0.45593999997E+02  0.45594000000E+02  0.51100000000E-03 0.  1.
         11   -1    0    0    0    0 -0.00000000000E+00 -0.00000000000E+00 -0.45593999997E+02  0.45594000000E+02  0.51100000000E-03 0. -1.
    9900012    2    1    2    0    0 -0.24517782956E+01  0.40471406529E+02 -0.30363754647E+01  0.50528861554E+02  0.30000005180E+02 0.  0.
         12    1    1    2    0    0  0.24517782956E+01 -0.40471406529E+02  0.30363754647E+01  0.40659138446E+02  0.00000000000E+00 0. -1.
         11    1    3    3    0    0  0.26510273159E+01  0.17668867846E+01 -0.22809986005E+01  0.39182635970E+01  0.51100000000E-03 0. -1.
        -11    1    3    3    0    0  0.28084985420E+01  0.37349026256E+02 -0.45543971422E+01  0.37730358598E+02  0.51100000000E-03 0.  1.
        -12    1    3    3    0    0 -0.79113041534E+01  0.13554934881E+01  0.37990202781E+01  0.88802393593E+01  0.00000000000E+00 0.  1.
</event>
<event>
 7    1  0.2680581E-011  0.5052886E+02  0.7816164E-02  0.1300439E+00
        -11   -1    0    0    0    0  0.00000000000E+00  0.00000000000E+00  0.45593999997E+02  0.45594000000E+02  0.51100000000E-03 0.  1.
         11   -1    0    0    0    0 -0.00000000000E+00 -0.00000000000E+00 -0.45593999997E+02  0.45594000000E+02  0.51100000000E-03 0. -1.
    9900012    2    1    2    0    0  0.11953179806E+02 -0.10300715945E+02  0.37472419249E+02  0.50528862517E+02  0.30000008106E+02 0.  0.
         12    1    1    2    0    0 -0.11953179806E+02  0.10300715945E+02 -0.37472419249E+02  0.40659137483E+02  0.00000000000E+00 0. -1.
         11    1    3    3    0    0  0.86153251261E+00  0.41291181934E+01  0.28137764051E+02  0.28452163738E+02  0.51100000000E-03 0. -1.
        -11    1    3    3    0    0  0.80709644164E+00  0.13408205403E-01 -0.12046630862E+01  0.14501027062E+01  0.51100000000E-03 0.  1.
        -12    1    3    3    0    0  0.10284550852E+02 -0.14443242344E+02  0.10539318284E+02  0.20626596072E+02  0.00000000000E+00 0.  1.
</event>
<event>
 7    1  0.2680581E-011  0.5052886E+02  0.7816164E-02  0.1300439E+00
        -11   -1    0    0    0    0  0.00000000000E+00  0.00000000000E+00  0.45593999997E+02  0.45594000000E+02  0.51100000000E-03 0. -1.
         11   -1    0    0    0    0 -0.00000000000E+00 -0.00000000000E+00 -0.45593999997E+02  0.45594000000E+02  0.51100000000E-03 0.  1.
    9900012    2    1    2    0    0  0.40164752624E+02  0.59772610805E+01 -0.20569112630E+01  0.50528857273E+02  0.29999992168E+02 0.  0.
         12    1    1    2    0    0 -0.40164752624E+02 -0.59772610805E+01  0.20569112630E+01  0.40659142727E+02  0.00000000000E+00 0. -1.
         11    1    3    3    0    0  0.26257755540E+02 -0.53244363914E+01  0.60887351808E+01  0.27475298820E+02  0.51100000000E-03 0. -1.
        -11    1    3    3    0    0  0.21703270907E+01 -0.23340017153E+01  0.25586589871E+00  0.31973975835E+01  0.51100000000E-03 0.  1.
        -12    1    3    3    0    0  0.11736669993E+02  0.13635699187E+02 -0.84015123425E+01  0.19856160870E+02  0.00000000000E+00 0.  1.
</event>
<event>
 7    1  0.2680581E-011  0.5052887E+02  0.7816164E-02  0.1300439E+00
        -11   -1    0    0    0    0  0.00000000000E+00  0.00000000000E+00  0.45593999997E+02  0.45594000000E+02  0.51100000000E-03 0. -1.
         11   -1    0    0    0    0 -0.00000000000E+00 -0.00000000000E+00 -0.45593999997E+02  0.45594000000E+02  0.51100000000E-03 0.  1.
    9900012    2    1    2    0    0 -0.81769283949E+01  0.37565709188E+02  0.13233312273E+02  0.50528865497E+02  0.30000017166E+02 0.  0.
         12    1    1    2    0    0  0.81769283949E+01 -0.37565709188E+02 -0.13233312273E+02  0.40659134503E+02  0.00000000000E+00 0. -1.
         11    1    3    3    0    0 -0.14454121370E+02  0.17894913464E+02  0.92177350907E+01  0.24781367858E+02  0.51100000000E-03 0. -1.
        -11    1    3    3    0    0  0.25487129777E+01  0.14742716110E+01 -0.44490571685E+01  0.53351217958E+01  0.51100000000E-03 0.  1.
         12    1    3    3    0    0  0.37284799972E+01  0.18196524113E+02  0.84646343507E+01  0.20412375844E+02  0.00000000000E+00 0. -1.
</event>
<event>
 7    1  0.2843772E-011  0.5052886E+02  0.7816164E-02  0.1300439E+00
        -11   -1    0    0    0    0  0.00000000000E+00  0.00000000000E+00  0.45593999997E+02  0.45594000000E+02  0.51100000000E-03 0.  1.
         11   -1    0    0    0    0 -0.00000000000E+00 -0.00000000000E+00 -0.45593999997E+02  0.45594000000E+02  0.51100000000E-03 0. -1.
    9900012    2    1    2    0    0 -0.38592990894E+02  0.14525296941E+01 -0.12713653261E+02  0.50528858742E+02  0.29999996631E+02 0.  0.
         12    1    1    2    0    0  0.38592990894E+02 -0.14525296941E+01  0.12713653261E+02  0.40659141258E+02  0.00000000000E+00 0. -1.
         11    1    3    3    0    0 -0.88240993203E+01 -0.59414631087E+01 -0.43728938893E+01  0.11501648313E+02  0.51100000000E-03 0. -1.
        -11    1    3    3    0    0 -0.31514331145E+02  0.13996820876E+01 -0.49775079724E+01  0.31935681664E+02  0.51100000000E-03 0.  1.
         12    1    3    3    0    0  0.17454395716E+01  0.59943107152E+01 -0.33632513990E+01  0.70915287648E+01  0.00000000000E+00 0. -1.
</event>
<event>
 7    1  0.2680581E-011  0.5052888E+02  0.7816164E-02  0.1300439E+00
        -11   -1    0    0    0    0  0.00000000000E+00  0.00000000000E+00  0.45593999997E+02  0.45594000000E+02  0.51100000000E-03 0. -1.
         11   -1    0    0    0    0 -0.00000000000E+00 -0.00000000000E+00 -0.45593999997E+02  0.45594000000E+02  0.51100000000E-03 0.  1.
    9900012    2    1    2    0    0  0.31322087806E+02  0.23044077252E+02 -0.11876922459E+02  0.50528880875E+02  0.30000063908E+02 0.  0.
         12    1    1    2    0    0 -0.31322087806E+02 -0.23044077252E+02  0.11876922459E+02  0.40659119125E+02  0.00000000000E+00 0. -1.
         11    1    3    3    0    0  0.31126201930E+02  0.98051944154E+01 -0.59586945498E+01  0.33173608864E+02  0.51100000000E-03 0. -1.
        -11    1    3    3    0    0  0.23183745349E+01  0.95852303139E+01  0.26618037149E+00  0.98652092175E+01  0.51100000000E-03 0.  1.
        -12    1    3    3    0    0 -0.21224886584E+01  0.36536525224E+01 -0.61844082809E+01  0.74900627931E+01  0.00000000000E+00 0.  1.
</event>
<event>
 7    1  0.2680581E-011  0.5052881E+02  0.7816164E-02  0.1300439E+00
        -11   -1    0    0    0    0  0.00000000000E+00  0.00000000000E+00  0.45593999997E+02  0.45594000000E+02  0.51100000000E-03 0.  1.
         11   -1    0    0    0    0 -0.00000000000E+00 -0.00000000000E+00 -0.45593999997E+02  0.45594000000E+02  0.51100000000E-03 0. -1.
    9900012    2    1    2    0    0  0.29718609435E+02 -0.27289051373E+02  0.50281036642E+01  0.50528807951E+02  0.29999842248E+02 0.  0.
         12    1    1    2    0    0 -0.29718609435E+02  0.27289051373E+02 -0.50281036642E+01  0.40659192049E+02  0.00000000000E+00 0. -1.
         11    1    3    3    0    0  0.72533010407E+01 -0.17895300899E+01  0.71589716990E+01  0.10347157580E+02  0.51100000000E-03 0.  1.
        -11    1    3    3    0    0 -0.41892478212E+01 -0.30345821687E+01 -0.12007879297E+01  0.53104028245E+01  0.51100000000E-03 0. -1.
         12    1    3    3    0    0  0.26654556216E+02 -0.22464939114E+02 -0.93008010508E+00  0.34871247547E+02  0.00000000000E+00 0. -1.
</event>
<event>
 7    1  0.2682986E-011  0.5052886E+02  0.7816164E-02  0.1300439E+00
        -11   -1    0    0    0    0  0.00000000000E+00  0.00000000000E+00  0.45593999997E+02  0.45594000000E+02  0.51100000000E-03 0. -1.
         11   -1    0    0    0    0 -0.00000000000E+00 -0.00000000000E+00 -0.45593999997E+02  0.45594000000E+02  0.51100000000E-03 0.  1.
    9900012    2    1    2    0    0 -0.35397602059E+02  0.98808305819E+00 -0.19979968947E+02  0.50528859592E+02  0.29999999214E+02 0.  0.
         12    1    1    2    0    0  0.35397602059E+02 -0.98808305819E+00  0.19979968947E+02  0.40659140408E+02  0.00000000000E+00 0. -1.
         11    1    3    3    0    0  0.49867765707E-01  0.59176896346E+01 -0.43922317663E+00  0.59341768313E+01  0.51100000000E-03 0. -1.
        -11    1    3    3    0    0 -0.13858997922E+01 -0.58315169933E+01 -0.24522552587E+01  0.64761767110E+01  0.51100000000E-03 0.  1.
        -12    1    3    3    0    0 -0.34061570032E+02  0.90191041697E+00 -0.17088490512E+02  0.38118506049E+02  0.00000000000E+00 0.  1.
</event>
<event>
 7    1  0.2680581E-011  0.5052886E+02  0.7816164E-02  0.1300439E+00
        -11   -1    0    0    0    0  0.00000000000E+00  0.00000000000E+00  0.45593999997E+02  0.45594000000E+02  0.51100000000E-03 0.  1.
         11   -1    0    0    0    0 -0.00000000000E+00 -0.00000000000E+00 -0.45593999997E+02  0.45594000000E+02  0.51100000000E-03 0. -1.
    9900012    2    1    2    0    0  0.24364593073E+02 -0.30679470667E+02  0.10876686702E+02  0.50528860442E+02  0.30000001798E+02 0.  0.
         12    1    1    2    0    0 -0.24364593073E+02  0.30679470667E+02 -0.10876686702E+02  0.40659139558E+02  0.00000000000E+00 0. -1.
         11    1    3    3    0    0  0.15797991404E+01 -0.55835893187E+01 -0.14597693500E+01  0.59835743348E+01  0.51100000000E-03 0. -1.
        -11    1    3    3    0    0 -0.39143756419E+01 -0.13329121174E+01  0.73817354485E+01  0.84610288897E+01  0.51100000000E-03 0.  1.
         12    1    3    3    0    0  0.26699169575E+02 -0.23762969231E+02  0.49547206032E+01  0.36084257217E+02  0.00000000000E+00 0. -1.
</event>
<event>
 7    1  0.2680581E-011  0.5052886E+02  0.7816164E-02  0.1300439E+00
        -11   -1    0    0    0    0  0.00000000000E+00  0.00000000000E+00  0.45593999997E+02  0.45594000000E+02  0.51100000000E-03 0.  1.
         11   -1    0    0    0    0 -0.00000000000E+00 -0.00000000000E+00 -0.45593999997E+02  0.45594000000E+02  0.51100000000E-03 0. -1.
    9900012    2    1    2    0    0 -0.10603645812E+01  0.89279912346E+01  0.39652648830E+02  0.50528856381E+02  0.29999989457E+02 0.  0.
         12    1    1    2    0    0  0.10603645812E+01 -0.89279912346E+01 -0.39652648830E+02  0.40659143619E+02  0.00000000000E+00 0. -1.
         11    1    3    3    0    0 -0.21564095450E+01  0.19180869958E+02  0.19217438186E+02  0.27237213609E+02  0.51100000000E-03 0. -1.
        -11    1    3    3    0    0 -0.12156507011E+01 -0.14717711141E+01  0.21445566919E+01  0.28710695751E+01  0.51100000000E-03 0.  1.
         12    1    3    3    0    0  0.23116956650E+01 -0.87811076095E+01  0.18290653953E+02  0.20420573197E+02  0.00000000000E+00 0. -1.
</event>
<event>
 7    1  0.2680581E-011  0.5052885E+02  0.7816164E-02  0.1300439E+00
        -11   -1    0    0    0    0  0.00000000000E+00  0.00000000000E+00  0.45593999997E+02  0.45594000000E+02  0.51100000000E-03 0.  1.
         11   -1    0    0    0    0 -0.00000000000E+00 -0.00000000000E+00 -0.45593999997E+02  0.45594000000E+02  0.51100000000E-03 0. -1.
    9900012    2    1    2    0    0  0.19185917344E+02 -0.28793595826E+02  0.21354069871E+02  0.50528845004E+02  0.29999954874E+02 0.  0.
         12    1    1    2    0    0 -0.19185917344E+02  0.28793595826E+02 -0.21354069871E+02  0.40659154996E+02  0.00000000000E+00 0. -1.
         11    1    3    3    0    0 -0.23578016359E+01 -0.26518058305E+01 -0.11629326126E+01  0.37341284444E+01  0.51100000000E-03 0. -1.
        -11    1    3    3    0    0  0.12913510774E+02 -0.29098574480E+02  0.16401980764E+02  0.35812159535E+02  0.51100000000E-03 0.  1.
         12    1    3    3    0    0  0.86302082058E+01  0.29567844850E+01  0.61150217198E+01  0.10982557025E+02  0.00000000000E+00 0. -1.
</event>
<event>
 7    1  0.2680581E-011  0.5052886E+02  0.7816164E-02  0.1300439E+00
        -11   -1    0    0    0    0  0.00000000000E+00  0.00000000000E+00  0.45593999997E+02  0.45594000000E+02  0.51100000000E-03 0. -1.
         11   -1    0    0    0    0 -0.00000000000E+00 -0.00000000000E+00 -0.45593999997E+02  0.45594000000E+02  0.51100000000E-03 0.  1.
    9900012    2    1    2    0    0 -0.39767047377E+02  0.48422157879E+01  0.69498607303E+01  0.50528859883E+02  0.30000000102E+02 0.  0.
         12    1    1    2    0    0  0.39767047377E+02 -0.48422157879E+01 -0.69498607303E+01  0.40659140117E+02  0.00000000000E+00 0. -1.
         11    1    3    3    0    0 -0.23330036756E+02  0.83241403129E+01 -0.65660440214E+01  0.25626058248E+02  0.51100000000E-03 0. -1.
        -11    1    3    3    0    0 -0.14065393559E+02 -0.45959022274E+00  0.39842120440E+01  0.14626020136E+02  0.51100000000E-03 0.  1.
         12    1    3    3    0    0 -0.23716170630E+01 -0.30223343022E+01  0.95316927077E+01  0.10276781500E+02  0.00000000000E+00 0. -1.
</event>
<event>
 7    1  0.2680581E-011  0.5052886E+02  0.7816164E-02  0.1300439E+00
        -11   -1    0    0    0    0  0.00000000000E+00  0.00000000000E+00  0.45593999997E+02  0.45594000000E+02  0.51100000000E-03 0.  1.
         11   -1    0    0    0    0 -0.00000000000E+00 -0.00000000000E+00 -0.45593999997E+02  0.45594000000E+02  0.51100000000E-03 0. -1.
    9900012    2    1    2    0    0 -0.19763331276E+02 -0.77241856534E+01  0.34683041525E+02  0.50528859864E+02  0.30000000042E+02 0.  0.
         12    1    1    2    0    0  0.19763331276E+02  0.77241856534E+01 -0.34683041525E+02  0.40659140136E+02  0.00000000000E+00 0. -1.
         11    1    3    3    0    0 -0.11800061783E+02 -0.84303612712E+01  0.54022993784E+01  0.15475699922E+02  0.51100000000E-03 0. -1.
        -11    1    3    3    0    0 -0.25469724980E+01  0.58526808317E+01  0.18828285440E+01  0.66547716273E+01  0.51100000000E-03 0.  1.
        -12    1    3    3    0    0 -0.54162969953E+01 -0.51465052139E+01  0.27397913603E+02  0.28398388314E+02  0.00000000000E+00 0.  1.
</event>
<event>
 7    1  0.2680581E-011  0.5052896E+02  0.7816164E-02  0.1300438E+00
        -11   -1    0    0    0    0  0.00000000000E+00  0.00000000000E+00  0.45593999997E+02  0.45594000000E+02  0.51100000000E-03 0.  1.
         11   -1    0    0    0    0 -0.00000000000E+00 -0.00000000000E+00 -0.45593999997E+02  0.45594000000E+02  0.51100000000E-03 0. -1.
    9900012    2    1    2    0    0  0.31677524719E+02  0.22323546892E+02 -0.12302484417E+02  0.50528961141E+02  0.30000307882E+02 0.  0.
         12    1    1    2    0    0 -0.31677524719E+02 -0.22323546892E+02  0.12302484417E+02  0.40659038859E+02  0.00000000000E+00 0. -1.
         11    1    3    3    0    0  0.11150795617E+02 -0.25954682392E+01 -0.40715383980E+01  0.12151301307E+02  0.51100000000E-03 0. -1.
        -11    1    3    3    0    0  0.15786847015E+02  0.18381526320E+02  0.31382443895E+01  0.24432634460E+02  0.51100000000E-03 0.  1.
         12    1    3    3    0    0  0.47398820869E+01  0.65374888110E+01 -0.11369190408E+02  0.13945025374E+02  0.00000000000E+00 0. -1.
</event>
<event>
 7    1  0.2680581E-011  0.5052886E+02  0.7816164E-02  0.1300439E+00
        -11   -1    0    0    0    0  0.00000000000E+00  0.00000000000E+00  0.45593999997E+02  0.45594000000E+02  0.51100000000E-03 0.  1.
         11   -1    0    0    0    0 -0.00000000000E+00 -0.00000000000E+00 -0.45593999997E+02  0.45594000000E+02  0.51100000000E-03 0. -1.
    9900012    2    1    2    0    0 -0.86517847358E+00 -0.40591643036E+02  0.21761336223E+01  0.50528861105E+02  0.30000003815E+02 0.  0.
         12    1    1    2    0    0  0.86517847358E+00  0.40591643036E+02 -0.21761336223E+01  0.40659138895E+02  0.00000000000E+00 0. -1.
         11    1    3    3    0    0 -0.58370566166E+01 -0.18693495317E+02 -0.90167564589E+01  0.21559682150E+02  0.51100000000E-03 0. -1.
        -11    1    3    3    0    0  0.24110209390E+01  0.12165437021E+01  0.36094012937E+01  0.45078574187E+01  0.51100000000E-03 0.  1.
        -12    1    3    3    0    0  0.25608572040E+01 -0.23114691421E+02  0.75834887875E+01  0.24461321536E+02  0.00000000000E+00 0.  1.
</event>
<event>
 7    1  0.2680581E-011  0.5052886E+02  0.7816164E-02  0.1300439E+00
        -11   -1    0    0    0    0  0.00000000000E+00  0.00000000000E+00  0.45593999997E+02  0.45594000000E+02  0.51100000000E-03 0.  1.
         11   -1    0    0    0    0 -0.00000000000E+00 -0.00000000000E+00 -0.45593999997E+02  0.45594000000E+02  0.51100000000E-03 0. -1.
    9900012    2    1    2    0    0  0.34624712731E+02  0.12682346047E+02 -0.17130474829E+02  0.50528858336E+02  0.29999995400E+02 0.  0.
         12    1    1    2    0    0 -0.34624712731E+02 -0.12682346047E+02  0.17130474829E+02  0.40659141664E+02  0.00000000000E+00 0. -1.
         11    1    3    3    0    0  0.20186734418E+02  0.32998291503E+00 -0.22386612453E+02  0.30145871235E+02  0.51100000000E-03 0. -1.
        -11    1    3    3    0    0  0.45345241456E+01  0.62538251011E+01  0.39592507253E+01  0.86803170558E+01  0.51100000000E-03 0.  1.
        -12    1    3    3    0    0  0.99034541674E+01  0.60985380312E+01  0.12968868981E+01  0.11702670045E+02  0.00000000000E+00 0.  1.
</event>
<event>
 7    1  0.2680581E-011  0.5052885E+02  0.7816164E-02  0.1300439E+00
        -11   -1    0    0    0    0  0.00000000000E+00  0.00000000000E+00  0.45593999997E+02  0.45594000000E+02  0.51100000000E-03 0.  1.
         11   -1    0    0    0    0 -0.00000000000E+00 -0.00000000000E+00 -0.45593999997E+02  0.45594000000E+02  0.51100000000E-03 0. -1.
    9900012    2    1    2    0    0  0.81566998602E+01 -0.34683670134E+02  0.19587683754E+02  0.50528854886E+02  0.29999984912E+02 0.  0.
         12    1    1    2    0    0 -0.81566998602E+01  0.34683670134E+02 -0.19587683754E+02  0.40659145114E+02  0.00000000000E+00 0. -1.
         11    1    3    3    0    0 -0.61664471744E+01 -0.14672457940E+01  0.62562505862E-01  0.63389112080E+01  0.51100000000E-03 0. -1.
        -11    1    3    3    0    0 -0.85999627867E+00  0.75067584766E+00  0.34964740288E+01  0.36781025982E+01  0.51100000000E-03 0.  1.
        -12    1    3    3    0    0  0.15183143313E+02 -0.33967100187E+02  0.16028647219E+02  0.40511841080E+02  0.00000000000E+00 0.  1.
</event>
<event>
 7    1  0.2680581E-011  0.5052886E+02  0.7816164E-02  0.1300439E+00
        -11   -1    0    0    0    0  0.00000000000E+00  0.00000000000E+00  0.45593999997E+02  0.45594000000E+02  0.51100000000E-03 0.  1.
         11   -1    0    0    0    0 -0.00000000000E+00 -0.00000000000E+00 -0.45593999997E+02  0.45594000000E+02  0.51100000000E-03 0. -1.
    9900012    2    1    2    0    0 -0.10816374495E+02  0.38572010657E+02 -0.69550001859E+01  0.50528855999E+02  0.29999988294E+02 0.  0.
         12    1    1    2    0    0  0.10816374495E+02 -0.38572010657E+02  0.69550001859E+01  0.40659144001E+02  0.00000000000E+00 0. -1.
         11    1    3    3    0    0  0.18981052336E+01  0.18145519112E+02 -0.12641523002E+01  0.18288268059E+02  0.51100000000E-03 0. -1.
        -11    1    3    3    0    0  0.47777418224E+01  0.93549868993E+01  0.82767830431E+00  0.10536965808E+02  0.51100000000E-03 0.  1.
        -12    1    3    3    0    0 -0.17492221551E+02  0.11071504645E+02 -0.65185261900E+01  0.21703622131E+02  0.00000000000E+00 0.  1.
</event>
<event>
 7    1  0.2680581E-011  0.5052887E+02  0.7816164E-02  0.1300439E+00
        -11   -1    0    0    0    0  0.00000000000E+00  0.00000000000E+00  0.45593999997E+02  0.45594000000E+02  0.51100000000E-03 0. -1.
         11   -1    0    0    0    0 -0.00000000000E+00 -0.00000000000E+00 -0.45593999997E+02  0.45594000000E+02  0.51100000000E-03 0.  1.
    9900012    2    1    2    0    0  0.63295388746E+01  0.38888620625E+02 -0.10038765774E+02  0.50528871938E+02  0.30000036743E+02 0.  0.
         12    1    1    2    0    0 -0.63295388746E+01 -0.38888620625E+02  0.10038765774E+02  0.40659128062E+02  0.00000000000E+00 0. -1.
         11    1    3    3    0    0  0.13662223141E+01 -0.40395938834E+00 -0.42675127828E+01  0.44990457001E+01  0.51100000000E-03 0. -1.
        -11    1    3    3    0    0 -0.42810162423E+01  0.34287534276E+02 -0.75477266128E+01  0.35368492816E+02  0.51100000000E-03 0.  1.
         12    1    3    3    0    0  0.92443328028E+01  0.50050457370E+01  0.17764736214E+01  0.10661333422E+02  0.00000000000E+00 0. -1.
</event>
<event>
 7    1  0.2680581E-011  0.5052886E+02  0.7816164E-02  0.1300439E+00
        -11   -1    0    0    0    0  0.00000000000E+00  0.00000000000E+00  0.45593999997E+02  0.45594000000E+02  0.51100000000E-03 0.  1.
         11   -1    0    0    0    0 -0.00000000000E+00 -0.00000000000E+00 -0.45593999997E+02  0.45594000000E+02  0.51100000000E-03 0. -1.
    9900012    2    1    2    0    0  0.53762057160E+01  0.96256517043E+01  0.39135773558E+02  0.50528861660E+02  0.30000005501E+02 0.  0.
         12    1    1    2    0    0 -0.53762057160E+01 -0.96256517043E+01 -0.39135773558E+02  0.40659138340E+02  0.00000000000E+00 0. -1.
         11    1    3    3    0    0 -0.13015162684E+01  0.49133913543E+01 -0.20297294883E+01  0.54731308457E+01  0.51100000000E-03 0. -1.
        -11    1    3    3    0    0  0.93009106374E+01  0.81427431835E+01  0.20458189085E+02  0.23902901626E+02  0.51100000000E-03 0.  1.
         12    1    3    3    0    0 -0.26231886530E+01 -0.34304828335E+01  0.20707313961E+02  0.21152829188E+02  0.00000000000E+00 0. -1.
</event>
<event>
 7    1  0.2680581E-011  0.5052886E+02  0.7816164E-02  0.1300439E+00
        -11   -1    0    0    0    0  0.00000000000E+00  0.00000000000E+00  0.45593999997E+02  0.45594000000E+02  0.51100000000E-03 0. -1.
         11   -1    0    0    0    0 -0.00000000000E+00 -0.00000000000E+00 -0.45593999997E+02  0.45594000000E+02  0.51100000000E-03 0.  1.
    9900012    2    1    2    0    0 -0.12862284817E+02 -0.22596807451E+02 -0.31258781483E+02  0.50528862067E+02  0.30000006739E+02 0.  0.
         12    1    1    2    0    0  0.12862284817E+02  0.22596807451E+02  0.31258781483E+02  0.40659137933E+02  0.00000000000E+00 0. -1.
         11    1    3    3    0    0 -0.11370476108E+01  0.23411026674E+01 -0.15718051942E+01  0.30404293773E+01  0.51100000000E-03 0. -1.
        -11    1    3    3    0    0  0.45195197244E+01 -0.14538803393E+02 -0.47224076144E+01  0.15940639780E+02  0.51100000000E-03 0.  1.
         12    1    3    3    0    0 -0.16244756931E+02 -0.10399106725E+02 -0.24964568674E+02  0.31547792910E+02  0.00000000000E+00 0. -1.
</event>
<event>
 7    1  0.2779875E-011  0.5052885E+02  0.7816164E-02  0.1300439E+00
        -11   -1    0    0    0    0  0.00000000000E+00  0.00000000000E+00  0.45593999997E+02  0.45594000000E+02  0.51100000000E-03 0. -1.
         11   -1    0    0    0    0 -0.00000000000E+00 -0.00000000000E+00 -0.45593999997E+02  0.45594000000E+02  0.51100000000E-03 0.  1.
    9900012    2    1    2    0    0  0.16485438291E+02  0.28091264161E+02 -0.24336752337E+02  0.50528852049E+02  0.29999976288E+02 0.  0.
         12    1    1    2    0    0 -0.16485438291E+02 -0.28091264161E+02  0.24336752337E+02  0.40659147951E+02  0.00000000000E+00 0. -1.
         11    1    3    3    0    0  0.16408479241E+02  0.13551914530E+02 -0.17265187208E+02  0.27404000950E+02  0.51100000000E-03 0. -1.
        -11    1    3    3    0    0  0.31865305181E+00  0.99884783392E+01 -0.12521497067E+02  0.16020584520E+02  0.51100000000E-03 0.  1.
         12    1    3    3    0    0 -0.24169400246E+00  0.45508712910E+01  0.54499319382E+01  0.71042665792E+01  0.00000000000E+00 0. -1.
</event>
<event>
 7    1  0.2680581E-011  0.5052886E+02  0.7816164E-02  0.1300439E+00
        -11   -1    0    0    0    0  0.00000000000E+00  0.00000000000E+00  0.45593999997E+02  0.45594000000E+02  0.51100000000E-03 0.  1.
         11   -1    0    0    0    0 -0.00000000000E+00 -0.00000000000E+00 -0.45593999997E+02  0.45594000000E+02  0.51100000000E-03 0. -1.
    9900012    2    1    2    0    0  0.29003685922E+02  0.24463292304E+02  0.14611610078E+02  0.50528860603E+02  0.30000002290E+02 0.  0.
         12    1    1    2    0    0 -0.29003685922E+02 -0.24463292304E+02 -0.14611610078E+02  0.40659139397E+02  0.00000000000E+00 0. -1.
         11    1    3    3    0    0  0.32079366874E+01  0.11545017985E+01 -0.13445900144E+01  0.36649222039E+01  0.51100000000E-03 0. -1.
        -11    1    3    3    0    0  0.24775353475E+02  0.23635562324E+02  0.22017238042E+02  0.40708926754E+02  0.51100000000E-03 0.  1.
        -12    1    3    3    0    0  0.10203957600E+01 -0.32677181888E+00 -0.60610379497E+01  0.61550116456E+01  0.00000000000E+00 0.  1.
</event>
<event>
 7    1  0.2680581E-011  0.5052884E+02  0.7816164E-02  0.1300439E+00
        -11   -1    0    0    0    0  0.00000000000E+00  0.00000000000E+00  0.45593999997E+02  0.45594000000E+02  0.51100000000E-03 0.  1.
         11   -1    0    0    0    0 -0.00000000000E+00 -0.00000000000E+00 -0.45593999997E+02  0.45594000000E+02  0.51100000000E-03 0. -1.
    9900012    2    1    2    0    0 -0.50378091087E+01 -0.20236032894E+02  0.34904016690E+02  0.50528844463E+02  0.29999953228E+02 0.  0.
         12    1    1    2    0    0  0.50378091087E+01  0.20236032894E+02 -0.34904016690E+02  0.40659155537E+02  0.00000000000E+00 0. -1.
         11    1    3    3    0    0 -0.30325614032E+01 -0.84987066662E+01 -0.25925275896E+01  0.93885911204E+01  0.51100000000E-03 0. -1.
        -11    1    3    3    0    0 -0.64437859335E+01 -0.36580903090E+01  0.20609682408E+02  0.21901210265E+02  0.51100000000E-03 0.  1.
        -12    1    3    3    0    0  0.44385382281E+01 -0.80792359189E+01  0.16886861872E+02  0.19239043077E+02  0.00000000000E+00 0.  1.
</event>
<event>
 7    1  0.2680581E-011  0.5052886E+02  0.7816164E-02  0.1300439E+00
        -11   -1    0    0    0    0  0.00000000000E+00  0.00000000000E+00  0.45593999997E+02  0.45594000000E+02  0.51100000000E-03 0.  1.
         11   -1    0    0    0    0 -0.00000000000E+00 -0.00000000000E+00 -0.45593999997E+02  0.45594000000E+02  0.51100000000E-03 0. -1.
    9900012    2    1    2    0    0  0.13488460659E+01  0.13677708819E+02  0.38265731899E+02  0.50528863979E+02  0.30000012549E+02 0.  0.
         12    1    1    2    0    0 -0.13488460659E+01 -0.13677708819E+02 -0.38265731899E+02  0.40659136021E+02  0.00000000000E+00 0. -1.
         11    1    3    3    0    0  0.52617314697E+01 -0.25239656195E+01  0.16821997904E+02  0.17805500112E+02  0.51100000000E-03 0. -1.
        -11    1    3    3    0    0 -0.22669913384E+01  0.10165434697E+02  0.23846110290E+02  0.26021381373E+02  0.51100000000E-03 0.  1.
         12    1    3    3    0    0 -0.16458940654E+01  0.60362397410E+01 -0.24023762948E+01  0.67019824938E+01  0.00000000000E+00 0. -1.
</event>
<event>
 7    1  0.2680581E-011  0.5052892E+02  0.7816164E-02  0.1300439E+00
        -11   -1    0    0    0    0  0.00000000000E+00  0.00000000000E+00  0.45593999997E+02  0.45594000000E+02  0.51100000000E-03 0.  1.
         11   -1    0    0    0    0 -0.00000000000E+00 -0.00000000000E+00 -0.45593999997E+02  0.45594000000E+02  0.51100000000E-03 0. -1.
    9900012    2    1    2    0    0  0.37517147769E+02 -0.15083428766E+02 -0.42560871960E+01  0.50528923789E+02  0.30000194349E+02 0.  0.
         12    1    1    2    0    0 -0.37517147769E+02  0.15083428766E+02  0.42560871960E+01  0.40659076211E+02  0.00000000000E+00 0. -1.
         11    1    3    3    0    0  0.24459029034E+02  0.11200517609E+00 -0.61468904662E+01  0.25219851488E+02  0.51100000000E-03 0. -1.
        -11    1    3    3    0    0  0.14385985289E+02 -0.13648250196E+02 -0.29576055208E+01  0.20049407394E+02  0.51100000000E-03 0.  1.
        -12    1    3    3    0    0 -0.13278665538E+01 -0.15471837460E+01  0.48484087909E+01  0.52596649069E+01  0.00000000000E+00 0.  1.
</event>
<event>
 7    1  0.2680581E-011  0.5052885E+02  0.7816164E-02  0.1300439E+00
        -11   -1    0    0    0    0  0.00000000000E+00  0.00000000000E+00  0.45593999997E+02  0.45594000000E+02  0.51100000000E-03 0.  1.
         11   -1    0    0    0    0 -0.00000000000E+00 -0.00000000000E+00 -0.45593999997E+02  0.45594000000E+02  0.51100000000E-03 0. -1.
    9900012    2    1    2    0    0 -0.25320808407E+02 -0.10494591032E+02  0.30031427462E+02  0.50528850788E+02  0.29999972454E+02 0.  0.
         12    1    1    2    0    0  0.25320808407E+02  0.10494591032E+02 -0.30031427462E+02  0.40659149212E+02  0.00000000000E+00 0. -1.
         11    1    3    3    0    0 -0.12442668443E+02  0.32679050011E+01  0.21803205158E+02  0.25315587224E+02  0.51100000000E-03 0. -1.
        -11    1    3    3    0    0 -0.12194223777E+02 -0.27179548490E+01  0.62594247741E+01  0.13973788708E+02  0.51100000000E-03 0.  1.
         12    1    3    3    0    0 -0.68391618664E+00 -0.11044541184E+02  0.19687975294E+01  0.11239474856E+02  0.00000000000E+00 0. -1.
</event>
<event>
 7    1  0.2680581E-011  0.5052886E+02  0.7816164E-02  0.1300439E+00
        -11   -1    0    0    0    0  0.00000000000E+00  0.00000000000E+00  0.45593999997E+02  0.45594000000E+02  0.51100000000E-03 0. -1.
         11   -1    0    0    0    0 -0.00000000000E+00 -0.00000000000E+00 -0.45593999997E+02  0.45594000000E+02  0.51100000000E-03 0.  1.
    9900012    2    1    2    0    0  0.35719544304E+02  0.47832365618E+01 -0.18825525833E+02  0.50528860558E+02  0.30000002153E+02 0.  0.
         12    1    1    2    0    0 -0.35719544304E+02 -0.47832365618E+01  0.18825525833E+02  0.40659139442E+02  0.00000000000E+00 0. -1.
         11    1    3    3    0    0  0.16141976160E+02  0.80798896198E+01 -0.46998833229E+00  0.18057377991E+02  0.51100000000E-03 0. -1.
        -11    1    3    3    0    0  0.94116906475E+01  0.51742682923E+01 -0.15624655038E+02  0.18960032134E+02  0.51100000000E-03 0.  1.
         12    1    3    3    0    0  0.10165877496E+02 -0.84709213503E+01 -0.27308824629E+01  0.13511450433E+02  0.00000000000E+00 0. -1.
</event>
<event>
 7    1  0.2680581E-011  0.5052888E+02  0.7816164E-02  0.1300439E+00
        -11   -1    0    0    0    0  0.00000000000E+00  0.00000000000E+00  0.45593999997E+02  0.45594000000E+02  0.51100000000E-03 0. -1.
         11   -1    0    0    0    0 -0.00000000000E+00 -0.00000000000E+00 -0.45593999997E+02  0.45594000000E+02  0.51100000000E-03 0.  1.
    9900012    2    1    2    0    0  0.61660462215E+01 -0.40111805348E+02 -0.24873923337E+01  0.50528878331E+02  0.30000056174E+02 0.  0.
         12    1    1    2    0    0 -0.61660462215E+01  0.40111805348E+02  0.24873923337E+01  0.40659121669E+02  0.00000000000E+00 0. -1.
         11    1    3    3    0    0 -0.34791802937E+01 -0.35247860748E+01 -0.25009111500E+01  0.55482762395E+01  0.51100000000E-03 0. -1.
        -11    1    3    3    0    0  0.35148562584E+01  0.25013263285E+01  0.30725754754E+01  0.52963731205E+01  0.51100000000E-03 0.  1.
        -12    1    3    3    0    0  0.61303702568E+01 -0.39088345602E+02 -0.30590566591E+01  0.39684228971E+02  0.00000000000E+00 0.  1.
</event>
<event>
 7    1  0.2680581E-011  0.5052886E+02  0.7816164E-02  0.1300439E+00
        -11   -1    0    0    0    0  0.00000000000E+00  0.00000000000E+00  0.45593999997E+02  0.45594000000E+02  0.51100000000E-03 0.  1.
         11   -1    0    0    0    0 -0.00000000000E+00 -0.00000000000E+00 -0.45593999997E+02  0.45594000000E+02  0.51100000000E-03 0. -1.
    9900012    2    1    2    0    0  0.29722150646E+02 -0.42653898838E+01  0.27414697527E+02  0.50528862892E+02  0.30000009247E+02 0.  0.
         12    1    1    2    0    0 -0.29722150646E+02  0.42653898838E+01 -0.27414697527E+02  0.40659137108E+02  0.00000000000E+00 0. -1.
         11    1    3    3    0    0 -0.27670707849E+01 -0.11577739050E+01 -0.98574464715E+00  0.31573428566E+01  0.51100000000E-03 0. -1.
        -11    1    3    3    0    0  0.20597341943E+02 -0.13707587474E+01  0.52695973103E+01  0.21304885138E+02  0.51100000000E-03 0.  1.
         12    1    3    3    0    0  0.11891879488E+02 -0.17368572313E+01  0.23130844864E+02  0.26066634898E+02  0.00000000000E+00 0. -1.
</event>
<event>
 7    1  0.2680581E-011  0.5052886E+02  0.7816164E-02  0.1300439E+00
        -11   -1    0    0    0    0  0.00000000000E+00  0.00000000000E+00  0.45593999997E+02  0.45594000000E+02  0.51100000000E-03 0.  1.
         11   -1    0    0    0    0 -0.00000000000E+00 -0.00000000000E+00 -0.45593999997E+02  0.45594000000E+02  0.51100000000E-03 0. -1.
    9900012    2    1    2    0    0  0.21290305693E+02  0.81107110688E+01  0.33676477533E+02  0.50528857245E+02  0.29999992082E+02 0.  0.
         12    1    1    2    0    0 -0.21290305693E+02 -0.81107110688E+01 -0.33676477533E+02  0.40659142755E+02  0.00000000000E+00 0. -1.
         11    1    3    3    0    0  0.10544839177E+01  0.13701861350E+00 -0.23115307319E+01  0.25443830330E+01  0.51100000000E-03 0. -1.
        -11    1    3    3    0    0  0.80261752508E+01  0.13751587019E+02  0.10305965296E+02  0.18966775045E+02  0.51100000000E-03 0.  1.
        -12    1    3    3    0    0  0.12209646524E+02 -0.57778945633E+01  0.25682042970E+02  0.29017699167E+02  0.00000000000E+00 0.  1.
</event>
<event>
 7    1  0.2680581E-011  0.5052886E+02  0.7816164E-02  0.1300439E+00
        -11   -1    0    0    0    0  0.00000000000E+00  0.00000000000E+00  0.45593999997E+02  0.45594000000E+02  0.51100000000E-03 0.  1.
         11   -1    0    0    0    0 -0.00000000000E+00 -0.00000000000E+00 -0.45593999997E+02  0.45594000000E+02  0.51100000000E-03 0. -1.
    9900012    2    1    2    0    0 -0.11017549643E+02  0.38574408558E+02 -0.66177542451E+01  0.50528855064E+02  0.29999985451E+02 0.  0.
         12    1    1    2    0    0  0.11017549643E+02 -0.38574408558E+02  0.66177542451E+01  0.40659144936E+02  0.00000000000E+00 0. -1.
         11    1    3    3    0    0 -0.32731566722E+01  0.62127569238E+01 -0.96492247774E+01  0.11933961717E+02  0.51100000000E-03 0. -1.
        -11    1    3    3    0    0 -0.13190785136E+02  0.15425800256E+02 -0.11178043118E+01  0.20327361186E+02  0.51100000000E-03 0.  1.
         12    1    3    3    0    0  0.54463921651E+01  0.16935851377E+02  0.41492748440E+01  0.18267532160E+02  0.00000000000E+00 0. -1.
</event>
<event>
 7    1  0.2680581E-011  0.5052885E+02  0.7816164E-02  0.1300439E+00
        -11   -1    0    0    0    0  0.00000000000E+00  0.00000000000E+00  0.45593999997E+02  0.45594000000E+02  0.51100000000E-03 0.  1.
         11   -1    0    0    0    0 -0.00000000000E+00 -0.00000000000E+00 -0.45593999997E+02  0.45594000000E+02  0.51100000000E-03 0. -1.
    9900012    2    1    2    0    0 -0.23550703298E+02 -0.18597518427E+02  0.27434702459E+02  0.50528853225E+02  0.29999979862E+02 0.  0.
         12    1    1    2    0    0  0.23550703298E+02  0.18597518427E+02 -0.27434702459E+02  0.40659146775E+02  0.00000000000E+00 0. -1.
         11    1    3    3    0    0 -0.10973795827E+01 -0.75630403260E-01  0.83199355346E+01  0.83923351618E+01  0.51100000000E-03 0. -1.
        -11    1    3    3    0    0 -0.26440062236E+02 -0.19728168425E+02  0.14857063874E+02  0.36180241398E+02  0.51100000000E-03 0.  1.
         12    1    3    3    0    0  0.39867385205E+01  0.12062804010E+01  0.42577030505E+01  0.59562766644E+01  0.00000000000E+00 0. -1.
</event>
<event>
 7    1  0.2680581E-011  0.5052885E+02  0.7816164E-02  0.1300439E+00
        -11   -1    0    0    0    0  0.00000000000E+00  0.00000000000E+00  0.45593999997E+02  0.45594000000E+02  0.51100000000E-03 0.  1.
         11   -1    0    0    0    0 -0.00000000000E+00 -0.00000000000E+00 -0.45593999997E+02  0.45594000000E+02  0.51100000000E-03 0. -1.
    9900012    2    1    2    0    0 -0.28885630426E+02 -0.25055223634E+02  0.13821106481E+02  0.50528845301E+02  0.29999955778E+02 0.  0.
         12    1    1    2    0    0  0.28885630426E+02  0.25055223634E+02 -0.13821106481E+02  0.40659154699E+02  0.00000000000E+00 0. -1.
         11    1    3    3    0    0 -0.70769370277E+00  0.30167668843E+01 -0.19146329476E+00  0.31045726381E+01  0.51100000000E-03 0. -1.
        -11    1    3    3    0    0  0.32960732163E+01 -0.29496345418E+01 -0.83906265891E+00  0.45020516417E+01  0.51100000000E-03 0.  1.
        -12    1    3    3    0    0 -0.31474009939E+02 -0.25122355976E+02  0.14851632435E+02  0.42922221022E+02  0.00000000000E+00 0.  1.
</event>
<event>
 7    1  0.2680581E-011  0.5052886E+02  0.7816164E-02  0.1300439E+00
        -11   -1    0    0    0    0  0.00000000000E+00  0.00000000000E+00  0.45593999997E+02  0.45594000000E+02  0.51100000000E-03 0.  1.
         11   -1    0    0    0    0 -0.00000000000E+00 -0.00000000000E+00 -0.45593999997E+02  0.45594000000E+02  0.51100000000E-03 0. -1.
    9900012    2    1    2    0    0  0.28379754422E+01 -0.29597477855E+02  0.27732672378E+02  0.50528856905E+02  0.29999991049E+02 0.  0.
         12    1    1    2    0    0 -0.28379754422E+01  0.29597477855E+02 -0.27732672378E+02  0.40659143095E+02  0.00000000000E+00 0. -1.
         11    1    3    3    0    0 -0.29031041660E+01 -0.10125271383E+02 -0.24097540727E+01  0.10805371319E+02  0.51100000000E-03 0. -1.
        -11    1    3    3    0    0 -0.15972187985E+01 -0.16475614854E+02  0.25887336535E+02  0.30727043233E+02  0.51100000000E-03 0.  1.
         12    1    3    3    0    0  0.73382984067E+01 -0.29965916170E+01  0.42550899162E+01  0.89964423535E+01  0.00000000000E+00 0. -1.
</event>
<event>
 7    1  0.2680581E-011  0.5052882E+02  0.7816164E-02  0.1300439E+00
        -11   -1    0    0    0    0  0.00000000000E+00  0.00000000000E+00  0.45593999997E+02  0.45594000000E+02  0.51100000000E-03 0.  1.
         11   -1    0    0    0    0 -0.00000000000E+00 -0.00000000000E+00 -0.45593999997E+02  0.45594000000E+02  0.51100000000E-03 0. -1.
    9900012    2    1    2    0    0  0.51842021179E+01 -0.12641132695E+02  0.38294836199E+02  0.50528823091E+02  0.29999888267E+02 0.  0.
         12    1    1    2    0    0 -0.51842021179E+01  0.12641132695E+02 -0.38294836199E+02  0.40659176909E+02  0.00000000000E+00 0. -1.
         11    1    3    3    0    0 -0.15703856407E+01  0.37073212228E+01  0.20336048933E+02  0.20730779729E+02  0.51100000000E-03 0. -1.
        -11    1    3    3    0    0  0.13095278702E+01 -0.16230774849E+02  0.18104103494E+02  0.24349773695E+02  0.51100000000E-03 0.  1.
         12    1    3    3    0    0  0.54450598884E+01 -0.11767906917E+00 -0.14531622792E+00  0.54482696664E+01  0.00000000000E+00 0. -1.
</event>
<event>
 7    1  0.2680581E-011  0.5052886E+02  0.7816164E-02  0.1300439E+00
        -11   -1    0    0    0    0  0.00000000000E+00  0.00000000000E+00  0.45593999997E+02  0.45594000000E+02  0.51100000000E-03 0.  1.
         11   -1    0    0    0    0 -0.00000000000E+00 -0.00000000000E+00 -0.45593999997E+02  0.45594000000E+02  0.51100000000E-03 0. -1.
    9900012    2    1    2    0    0 -0.31287715026E+02  0.24053471149E+02  0.97813466514E+01  0.50528864149E+02  0.30000013067E+02 0.  0.
         12    1    1    2    0    0  0.31287715026E+02 -0.24053471149E+02 -0.97813466514E+01  0.40659135851E+02  0.00000000000E+00 0. -1.
         11    1    3    3    0    0 -0.49601602767E+01  0.53709100686E+01  0.85166193675E+01  0.11224200223E+02  0.51100000000E-03 0. -1.
        -11    1    3    3    0    0 -0.27916042460E+02  0.20614581346E+02  0.47380312713E+01  0.35024496160E+02  0.51100000000E-03 0.  1.
         12    1    3    3    0    0  0.15884877108E+01 -0.19320202652E+01 -0.34733039874E+01  0.42801677656E+01  0.00000000000E+00 0. -1.
</event>
<event>
 7    1  0.2680581E-011  0.5052885E+02  0.7816164E-02  0.1300439E+00
        -11   -1    0    0    0    0  0.00000000000E+00  0.00000000000E+00  0.45593999997E+02  0.45594000000E+02  0.51100000000E-03 0. -1.
         11   -1    0    0    0    0 -0.00000000000E+00 -0.00000000000E+00 -0.45593999997E+02  0.45594000000E+02  0.51100000000E-03 0.  1.
    9900012    2    1    2    0    0  0.13523284407E+02  0.31358536773E+02 -0.22066476909E+02  0.50528850318E+02  0.29999971027E+02 0.  0.
         12    1    1    2    0    0 -0.13523284407E+02 -0.31358536773E+02  0.22066476909E+02  0.40659149682E+02  0.00000000000E+00 0. -1.
         11    1    3    3    0    0 -0.52652360910E+00  0.59230672927E+01  0.54374400907E+01  0.80576490533E+01  0.51100000000E-03 0. -1.
        -11    1    3    3    0    0  0.59548672622E+01  0.16752176347E+02 -0.76850816905E+01  0.19368952923E+02  0.51100000000E-03 0.  1.
        -12    1    3    3    0    0  0.80949407542E+01  0.86832931328E+01 -0.19818835309E+02  0.23102248342E+02  0.00000000000E+00 0.  1.
</event>
<event>
 7    1  0.2680581E-011  0.5052886E+02  0.7816164E-02  0.1300439E+00
        -11   -1    0    0    0    0  0.00000000000E+00  0.00000000000E+00  0.45593999997E+02  0.45594000000E+02  0.51100000000E-03 0.  1.
         11   -1    0    0    0    0 -0.00000000000E+00 -0.00000000000E+00 -0.45593999997E+02  0.45594000000E+02  0.51100000000E-03 0. -1.
    9900012    2    1    2    0    0 -0.60819621760E+01  0.17702337611E+01  0.40162693511E+02  0.50528856606E+02  0.29999990140E+02 0.  0.
         12    1    1    2    0    0  0.60819621760E+01 -0.17702337611E+01 -0.40162693511E+02  0.40659143394E+02  0.00000000000E+00 0. -1.
         11    1    3    3    0    0 -0.71273397348E+01 -0.88467821916E+01  0.80584551292E+01  0.13928504090E+02  0.51100000000E-03 0. -1.
        -11    1    3    3    0    0  0.43738438313E+01 -0.17892082467E+01  0.90274764779E+01  0.10189558765E+02  0.51100000000E-03 0.  1.
        -12    1    3    3    0    0 -0.33284662726E+01  0.12406224199E+02  0.23076761904E+02  0.26410793751E+02  0.00000000000E+00 0.  1.
</event>
<event>
 7    1  0.2680581E-011  0.5052885E+02  0.7816164E-02  0.1300439E+00
        -11   -1    0    0    0    0  0.00000000000E+00  0.00000000000E+00  0.45593999997E+02  0.45594000000E+02  0.51100000000E-03 0.  1.
         11   -1    0    0    0    0 -0.00000000000E+00 -0.00000000000E+00 -0.45593999997E+02  0.45594000000E+02  0.51100000000E-03 0. -1.
    9900012    2    1    2    0    0 -0.31954087909E+02 -0.25024754126E+02 -0.24216311658E+01  0.50528851575E+02  0.29999974846E+02 0.  0.
         12    1    1    2    0    0  0.31954087909E+02  0.25024754126E+02  0.24216311658E+01  0.40659148425E+02  0.00000000000E+00 0. -1.
         11    1    3    3    0    0  0.21082253112E+00  0.30630557774E+01 -0.23410157817E+01  0.38609729327E+01  0.51100000000E-03 0. -1.
        -11    1    3    3    0    0 -0.72163625070E+01 -0.18636309664E+02  0.27782772296E+00  0.19986623382E+02  0.51100000000E-03 0.  1.
         12    1    3    3    0    0 -0.24948547934E+02 -0.94515002392E+01 -0.35844310704E+00  0.26681255260E+02  0.00000000000E+00 0. -1.
</event>
<event>
 7    1  0.2680581E-011  0.5052885E+02  0.7816164E-02  0.1300439E+00
        -11   -1    0    0    0    0  0.00000000000E+00  0.00000000000E+00  0.45593999997E+02  0.45594000000E+02  0.51100000000E-03 0.  1.
         11   -1    0    0    0    0 -0.00000000000E+00 -0.00000000000E+00 -0.45593999997E+02  0.45594000000E+02  0.51100000000E-03 0. -1.
    9900012    2    1    2    0    0  0.37117589214E+01  0.12586431867E+02  0.38483383430E+02  0.50528853161E+02  0.29999979668E+02 0.  0.
         12    1    1    2    0    0 -0.37117589214E+01 -0.12586431867E+02 -0.38483383430E+02  0.40659146839E+02  0.00000000000E+00 0. -1.
         11    1    3    3    0    0 -0.17701316058E+01 -0.29688711909E+01  0.41248900095E+00  0.34810500552E+01  0.51100000000E-03 0. -1.
        -11    1    3    3    0    0 -0.17469125788E+01  0.12223226642E+02  0.37012756716E+02  0.39017984739E+02  0.51100000000E-03 0.  1.
         12    1    3    3    0    0  0.72288031060E+01  0.33320764156E+01  0.10581377132E+01  0.80298183668E+01  0.00000000000E+00 0. -1.
</event>
<event>
 7    1  0.2680581E-011  0.5052888E+02  0.7816164E-02  0.1300439E+00
        -11   -1    0    0    0    0  0.00000000000E+00  0.00000000000E+00  0.45593999997E+02  0.45594000000E+02  0.51100000000E-03 0.  1.
         11   -1    0    0    0    0 -0.00000000000E+00 -0.00000000000E+00 -0.45593999997E+02  0.45594000000E+02  0.51100000000E-03 0. -1.
    9900012    2    1    2    0    0  0.17944773450E+02  0.16422081595E+02  0.32580125308E+02  0.50528877738E+02  0.30000054371E+02 0.  0.
         12    1    1    2    0    0 -0.17944773450E+02 -0.16422081595E+02 -0.32580125308E+02  0.40659122262E+02  0.00000000000E+00 0. -1.
         11    1    3    3    0    0  0.65213839396E+00 -0.14749370435E+01  0.24805199329E+01  0.29586657746E+01  0.51100000000E-03 0. -1.
        -11    1    3    3    0    0  0.12368767218E+02  0.23159905897E+02  0.30630630007E+02  0.40343563781E+02  0.51100000000E-03 0.  1.
        -12    1    3    3    0    0  0.49238678372E+01 -0.52628872590E+01 -0.53102463216E+00  0.72266481815E+01  0.00000000000E+00 0.  1.
</event>
<event>
 7    1  0.2680581E-011  0.5052886E+02  0.7816164E-02  0.1300439E+00
        -11   -1    0    0    0    0  0.00000000000E+00  0.00000000000E+00  0.45593999997E+02  0.45594000000E+02  0.51100000000E-03 0.  1.
         11   -1    0    0    0    0 -0.00000000000E+00 -0.00000000000E+00 -0.45593999997E+02  0.45594000000E+02  0.51100000000E-03 0. -1.
    9900012    2    1    2    0    0 -0.26327693824E+02  0.13447477714E+02  0.27913861131E+02  0.50528858812E+02  0.29999996844E+02 0.  0.
         12    1    1    2    0    0  0.26327693824E+02 -0.13447477714E+02 -0.27913861131E+02  0.40659141188E+02  0.00000000000E+00 0. -1.
         11    1    3    3    0    0 -0.85861698184E+01 -0.21175482492E+01  0.12432916552E+02  0.15257251947E+02  0.51100000000E-03 0. -1.
        -11    1    3    3    0    0 -0.16602302695E+02  0.16025887046E+01  0.39830736892E+01  0.17148458286E+02  0.51100000000E-03 0.  1.
         12    1    3    3    0    0 -0.11392213107E+01  0.13962437259E+02  0.11497870890E+02  0.18123148578E+02  0.00000000000E+00 0. -1.
</event>
<event>
 7    1  0.2680581E-011  0.5052887E+02  0.7816164E-02  0.1300439E+00
        -11   -1    0    0    0    0  0.00000000000E+00  0.00000000000E+00  0.45593999997E+02  0.45594000000E+02  0.51100000000E-03 0. -1.
         11   -1    0    0    0    0 -0.00000000000E+00 -0.00000000000E+00 -0.45593999997E+02  0.45594000000E+02  0.51100000000E-03 0.  1.
    9900012    2    1    2    0    0  0.17253855657E+02 -0.36806465463E+02 -0.86811028341E+00  0.50528867565E+02  0.30000023450E+02 0.  0.
         12    1    1    2    0    0 -0.17253855657E+02  0.36806465463E+02  0.86811028341E+00  0.40659132435E+02  0.00000000000E+00 0. -1.
         11    1    3    3    0    0  0.94765907322E+00 -0.10914014244E+02 -0.19161083751E+01  0.11121386433E+02  0.51100000000E-03 0. -1.
        -11    1    3    3    0    0  0.12476729359E+02 -0.12393640526E+02 -0.11143506432E+02  0.20819434114E+02  0.51100000000E-03 0.  1.
         12    1    3    3    0    0  0.38294672243E+01 -0.13498810694E+02  0.12191504524E+02  0.18588047017E+02  0.00000000000E+00 0. -1.
</event>
<event>
 7    1  0.2680581E-011  0.5052886E+02  0.7816164E-02  0.1300439E+00
        -11   -1    0    0    0    0  0.00000000000E+00  0.00000000000E+00  0.45593999997E+02  0.45594000000E+02  0.51100000000E-03 0.  1.
         11   -1    0    0    0    0 -0.00000000000E+00 -0.00000000000E+00 -0.45593999997E+02  0.45594000000E+02  0.51100000000E-03 0. -1.
    9900012    2    1    2    0    0 -0.12296543816E+02  0.28072385047E+02  0.26718941429E+02  0.50528860521E+02  0.30000002041E+02 0.  0.
         12    1    1    2    0    0  0.12296543816E+02 -0.28072385047E+02 -0.26718941429E+02  0.40659139479E+02  0.00000000000E+00 0. -1.
         11    1    3    3    0    0 -0.12099859066E+02  0.57234990897E+01  0.52369891927E-01  0.13385356705E+02  0.51100000000E-03 0. -1.
        -11    1    3    3    0    0 -0.57659630940E+01  0.82136428916E+01  0.14724083498E+02  0.17818779281E+02  0.51100000000E-03 0.  1.
        -12    1    3    3    0    0  0.55692783444E+01  0.14135243066E+02  0.11942488040E+02  0.19324724536E+02  0.00000000000E+00 0.  1.
</event>
<event>
 7    1  0.2680581E-011  0.5052886E+02  0.7816164E-02  0.1300439E+00
        -11   -1    0    0    0    0  0.00000000000E+00  0.00000000000E+00  0.45593999997E+02  0.45594000000E+02  0.51100000000E-03 0. -1.
         11   -1    0    0    0    0 -0.00000000000E+00 -0.00000000000E+00 -0.45593999997E+02  0.45594000000E+02  0.51100000000E-03 0.  1.
    9900012    2    1    2    0    0 -0.33917453498E+02  0.19860127610E+02 -0.10408990861E+02  0.50528863128E+02  0.30000009962E+02 0.  0.
         12    1    1    2    0    0  0.33917453498E+02 -0.19860127610E+02  0.10408990861E+02  0.40659136872E+02  0.00000000000E+00 0. -1.
         11    1    3    3    0    0 -0.41917090838E+01  0.12233796316E+01 -0.80744255949E+01  0.91795115183E+01  0.51100000000E-03 0. -1.
        -11    1    3    3    0    0 -0.17687817126E+02  0.15319256041E+02 -0.11292390702E+02  0.25981850749E+02  0.51100000000E-03 0.  1.
         12    1    3    3    0    0 -0.12037927288E+02  0.33174919380E+01  0.89578254356E+01  0.15367500860E+02  0.00000000000E+00 0. -1.
</event>
<event>
 7    1  0.2680581E-011  0.5052886E+02  0.7816164E-02  0.1300439E+00
        -11   -1    0    0    0    0  0.00000000000E+00  0.00000000000E+00  0.45593999997E+02  0.45594000000E+02  0.51100000000E-03 0.  1.
         11   -1    0    0    0    0 -0.00000000000E+00 -0.00000000000E+00 -0.45593999997E+02  0.45594000000E+02  0.51100000000E-03 0. -1.
    9900012    2    1    2    0    0 -0.28803989604E+02  0.21974554624E+02  0.18455749734E+02  0.50528861221E+02  0.30000004168E+02 0.  0.
         12    1    1    2    0    0  0.28803989604E+02 -0.21974554624E+02 -0.18455749734E+02  0.40659138779E+02  0.00000000000E+00 0. -1.
         11    1    3    3    0    0 -0.84074349470E+00  0.29761889235E+00  0.32829195636E+01  0.34019094272E+01  0.51100000000E-03 0. -1.
        -11    1    3    3    0    0 -0.33366760944E+02  0.20236246823E+02  0.13133977905E+02  0.41174601362E+02  0.51100000000E-03 0.  1.
        -12    1    3    3    0    0  0.54035148355E+01  0.14406889083E+01  0.20388522654E+01  0.59523504322E+01  0.00000000000E+00 0.  1.
</event>
<event>
 7    1  0.2680581E-011  0.5052886E+02  0.7816164E-02  0.1300439E+00
        -11   -1    0    0    0    0  0.00000000000E+00  0.00000000000E+00  0.45593999997E+02  0.45594000000E+02  0.51100000000E-03 0.  1.
         11   -1    0    0    0    0 -0.00000000000E+00 -0.00000000000E+00 -0.45593999997E+02  0.45594000000E+02  0.51100000000E-03 0. -1.
    9900012    2    1    2    0    0 -0.79446586832E+01  0.24090182123E+02  0.31775957023E+02  0.50528856858E+02  0.29999990906E+02 0.  0.
         12    1    1    2    0    0  0.79446586832E+01 -0.24090182123E+02 -0.31775957023E+02  0.40659143142E+02  0.00000000000E+00 0. -1.
         11    1    3    3    0    0 -0.98437958139E+01  0.16680554954E+02  0.22221419534E+02  0.29477664697E+02  0.51100000000E-03 0. -1.
        -11    1    3    3    0    0  0.29088807994E+01  0.98285009501E+01  0.13105392696E+02  0.16637678216E+02  0.51100000000E-03 0.  1.
         12    1    3    3    0    0 -0.10097436687E+01 -0.24188737805E+01 -0.35508552079E+01  0.44135139458E+01  0.00000000000E+00 0. -1.
</event>
<event>
 7    1  0.2680581E-011  0.5052886E+02  0.7816164E-02  0.1300439E+00
        -11   -1    0    0    0    0  0.00000000000E+00  0.00000000000E+00  0.45593999997E+02  0.45594000000E+02  0.51100000000E-03 0. -1.
         11   -1    0    0    0    0 -0.00000000000E+00 -0.00000000000E+00 -0.45593999997E+02  0.45594000000E+02  0.51100000000E-03 0.  1.
    9900012    2    1    2    0    0  0.30758930547E+02 -0.11406671845E+02 -0.24019612039E+02  0.50528859164E+02  0.29999997916E+02 0.  0.
         12    1    1    2    0    0 -0.30758930547E+02  0.11406671845E+02  0.24019612039E+02  0.40659140836E+02  0.00000000000E+00 0. -1.
         11    1    3    3    0    0  0.10562376752E+02 -0.16747600538E+01 -0.17975215657E+02  0.20915950900E+02  0.51100000000E-03 0. -1.
        -11    1    3    3    0    0  0.45600311986E+01 -0.58392851270E+01 -0.10540320442E+02  0.12883690876E+02  0.51100000000E-03 0.  1.
         12    1    3    3    0    0  0.15636522597E+02 -0.38926266647E+01  0.44959240595E+01  0.16729217388E+02  0.00000000000E+00 0. -1.
</event>
<event>
 7    1  0.2680581E-011  0.5052886E+02  0.7816164E-02  0.1300439E+00
        -11   -1    0    0    0    0  0.00000000000E+00  0.00000000000E+00  0.45593999997E+02  0.45594000000E+02  0.51100000000E-03 0.  1.
         11   -1    0    0    0    0 -0.00000000000E+00 -0.00000000000E+00 -0.45593999997E+02  0.45594000000E+02  0.51100000000E-03 0. -1.
    9900012    2    1    2    0    0 -0.21690419021E+02 -0.33005052315E+02 -0.96622081192E+01  0.50528855624E+02  0.29999987155E+02 0.  0.
         12    1    1    2    0    0  0.21690419021E+02  0.33005052315E+02  0.96622081192E+01  0.40659144376E+02  0.00000000000E+00 0. -1.
         11    1    3    3    0    0 -0.43203996287E+01 -0.11189722112E+02  0.67183963857E+01  0.13748184759E+02  0.51100000000E-03 0.  1.
        -11    1    3    3    0    0 -0.85276206143E+01 -0.20775837427E+02 -0.62865524167E+01  0.23321159398E+02  0.51100000000E-03 0. -1.
         12    1    3    3    0    0 -0.88423987781E+01 -0.10394927767E+01 -0.10094052088E+02  0.13459511467E+02  0.00000000000E+00 0. -1.
</event>
<event>
 7    1  0.2680581E-011  0.5052886E+02  0.7816164E-02  0.1300439E+00
        -11   -1    0    0    0    0  0.00000000000E+00  0.00000000000E+00  0.45593999997E+02  0.45594000000E+02  0.51100000000E-03 0.  1.
         11   -1    0    0    0    0 -0.00000000000E+00 -0.00000000000E+00 -0.45593999997E+02  0.45594000000E+02  0.51100000000E-03 0. -1.
    9900012    2    1    2    0    0 -0.23488725312E+02  0.19995656898E+02  0.26488092080E+02  0.50528861623E+02  0.30000005388E+02 0.  0.
         12    1    1    2    0    0  0.23488725312E+02 -0.19995656898E+02 -0.26488092080E+02  0.40659138377E+02  0.00000000000E+00 0. -1.
         11    1    3    3    0    0 -0.15806479728E+02  0.11308178204E+02  0.45873655786E+01  0.19969066550E+02  0.51100000000E-03 0. -1.
        -11    1    3    3    0    0  0.34443531235E+01  0.81278385617E+01  0.45261178395E+01  0.99202354348E+01  0.51100000000E-03 0.  1.
         12    1    3    3    0    0 -0.11126598707E+02  0.55964013238E+00  0.17374608662E+02  0.20639559637E+02  0.00000000000E+00 0. -1.
</event>
<event>
 7    1  0.2680581E-011  0.5052883E+02  0.7816164E-02  0.1300439E+00
        -11   -1    0    0    0    0  0.00000000000E+00  0.00000000000E+00  0.45593999997E+02  0.45594000000E+02  0.51100000000E-03 0. -1.
         11   -1    0    0    0    0 -0.00000000000E+00 -0.00000000000E+00 -0.45593999997E+02  0.45594000000E+02  0.51100000000E-03 0.  1.
    9900012    2    1    2    0    0  0.71913390262E+01  0.51515032034E+01 -0.39685195123E+02  0.50528830626E+02  0.29999911170E+02 0.  0.
         12    1    1    2    0    0 -0.71913390262E+01 -0.51515032034E+01  0.39685195123E+02  0.40659169374E+02  0.00000000000E+00 0. -1.
         11    1    3    3    0    0  0.66424300953E+01  0.42371070465E+01 -0.29785828709E+02  0.30810234434E+02  0.51100000000E-03 0. -1.
        -11    1    3    3    0    0  0.38643886045E+01 -0.67478188073E+01 -0.80000791971E+01  0.11156514929E+02  0.51100000000E-03 0.  1.
         12    1    3    3    0    0 -0.33154796736E+01  0.76622149643E+01 -0.18992872165E+01  0.85620812631E+01  0.00000000000E+00 0. -1.
</event>
<event>
 7    1  0.2680581E-011  0.5052886E+02  0.7816164E-02  0.1300439E+00
        -11   -1    0    0    0    0  0.00000000000E+00  0.00000000000E+00  0.45593999997E+02  0.45594000000E+02  0.51100000000E-03 0.  1.
         11   -1    0    0    0    0 -0.00000000000E+00 -0.00000000000E+00 -0.45593999997E+02  0.45594000000E+02  0.51100000000E-03 0. -1.
    9900012    2    1    2    0    0  0.10000991433E+01 -0.38377502426E+02  0.13391532742E+02  0.50528855395E+02  0.29999986460E+02 0.  0.
         12    1    1    2    0    0 -0.10000991433E+01  0.38377502426E+02 -0.13391532742E+02  0.40659144605E+02  0.00000000000E+00 0. -1.
         11    1    3    3    0    0 -0.58263026854E+00  0.28465052109E+01  0.10550696913E+01  0.30911522545E+01  0.51100000000E-03 0.  1.
        -11    1    3    3    0    0 -0.74744099025E+01 -0.18711287420E+02  0.11406520456E+02  0.23153569692E+02  0.51100000000E-03 0. -1.
        -12    1    3    3    0    0  0.90571393143E+01 -0.22512720217E+02  0.92994259538E+00  0.24284133449E+02  0.00000000000E+00 0.  1.
</event>
<event>
 7    1  0.2680581E-011  0.5052886E+02  0.7816164E-02  0.1300439E+00
        -11   -1    0    0    0    0  0.00000000000E+00  0.00000000000E+00  0.45593999997E+02  0.45594000000E+02  0.51100000000E-03 0.  1.
         11   -1    0    0    0    0 -0.00000000000E+00 -0.00000000000E+00 -0.45593999997E+02  0.45594000000E+02  0.51100000000E-03 0. -1.
    9900012    2    1    2    0    0 -0.26858206015E+02 -0.29881179195E+02  0.62383714910E+01  0.50528863520E+02  0.30000011155E+02 0.  0.
         12    1    1    2    0    0  0.26858206015E+02  0.29881179195E+02 -0.62383714910E+01  0.40659136480E+02  0.00000000000E+00 0. -1.
         11    1    3    3    0    0 -0.19215740485E+02 -0.91500386340E+01  0.67606388688E+01  0.22331012686E+02  0.51100000000E-03 0. -1.
        -11    1    3    3    0    0 -0.27581546534E+01 -0.19847022829E+02  0.51214377417E+01  0.20681896844E+02  0.51100000000E-03 0.  1.
         12    1    3    3    0    0 -0.48843108767E+01 -0.88411773233E+00 -0.56437051195E+01  0.75159539900E+01  0.00000000000E+00 0. -1.
</event>
<event>
 7    1  0.2680581E-011  0.5052888E+02  0.7816164E-02  0.1300439E+00
        -11   -1    0    0    0    0  0.00000000000E+00  0.00000000000E+00  0.45593999997E+02  0.45594000000E+02  0.51100000000E-03 0. -1.
         11   -1    0    0    0    0 -0.00000000000E+00 -0.00000000000E+00 -0.45593999997E+02  0.45594000000E+02  0.51100000000E-03 0.  1.
    9900012    2    1    2    0    0  0.28890502906E+02 -0.17756659784E+02  0.22432200596E+02  0.50528883575E+02  0.30000072116E+02 0.  0.
         12    1    1    2    0    0 -0.28890502906E+02  0.17756659784E+02 -0.22432200596E+02  0.40659116425E+02  0.00000000000E+00 0. -1.
         11    1    3    3    0    0  0.86176254235E+01  0.25754899523E-01  0.48794588599E+01  0.99031939434E+01  0.51100000000E-03 0. -1.
        -11    1    3    3    0    0 -0.33997924926E+01  0.32412326414E+01  0.66904441118E+00  0.47446600209E+01  0.51100000000E-03 0.  1.
        -12    1    3    3    0    0  0.23672669975E+02 -0.21023647325E+02  0.16883697325E+02  0.35881029611E+02  0.00000000000E+00 0.  1.
</event>
<event>
 7    1  0.2680581E-011  0.5052886E+02  0.7816164E-02  0.1300439E+00
        -11   -1    0    0    0    0  0.00000000000E+00  0.00000000000E+00  0.45593999997E+02  0.45594000000E+02  0.51100000000E-03 0.  1.
         11   -1    0    0    0    0 -0.00000000000E+00 -0.00000000000E+00 -0.45593999997E+02  0.45594000000E+02  0.51100000000E-03 0. -1.
    9900012    2    1    2    0    0 -0.62743273397E+01 -0.40149716388E+02 -0.13411007011E+01  0.50528862519E+02  0.30000008114E+02 0.  0.
         12    1    1    2    0    0  0.62743273397E+01  0.40149716388E+02  0.13411007011E+01  0.40659137481E+02  0.00000000000E+00 0. -1.
         11    1    3    3    0    0  0.57802847570E+01 -0.19727733548E+02 -0.65843492956E+00  0.20567661501E+02  0.51100000000E-03 0. -1.
        -11    1    3    3    0    0 -0.38475734462E+01 -0.18459270019E+02 -0.62347729170E+01  0.19860031839E+02  0.51100000000E-03 0.  1.
         12    1    3    3    0    0 -0.82070386504E+01 -0.19627128208E+01  0.55521071455E+01  0.10101169179E+02  0.00000000000E+00 0. -1.
</event>
<event>
 7    1  0.2680581E-011  0.5052885E+02  0.7816164E-02  0.1300439E+00
        -11   -1    0    0    0    0  0.00000000000E+00  0.00000000000E+00  0.45593999997E+02  0.45594000000E+02  0.51100000000E-03 0.  1.
         11   -1    0    0    0    0 -0.00000000000E+00 -0.00000000000E+00 -0.45593999997E+02  0.45594000000E+02  0.51100000000E-03 0. -1.
    9900012    2    1    2    0    0 -0.69190297300E+01  0.25338972569E+02  0.31035940772E+02  0.50528854376E+02  0.29999983361E+02 0.  0.
         12    1    1    2    0    0  0.69190297300E+01 -0.25338972569E+02 -0.31035940772E+02  0.40659145624E+02  0.00000000000E+00 0. -1.
         11    1    3    3    0    0 -0.13382946220E+01 -0.12044832175E+01  0.16453711108E+02  0.16551931060E+02  0.51100000000E-03 0. -1.
        -11    1    3    3    0    0 -0.82705874630E+01  0.72263443929E+01  0.34093609693E+01  0.11499844031E+02  0.51100000000E-03 0.  1.
        -12    1    3    3    0    0  0.26898523551E+01  0.19317111394E+02  0.11172868695E+02  0.22477079284E+02  0.00000000000E+00 0.  1.
</event>
<event>
 7    1  0.2680581E-011  0.5052883E+02  0.7816164E-02  0.1300439E+00
        -11   -1    0    0    0    0  0.00000000000E+00  0.00000000000E+00  0.45593999997E+02  0.45594000000E+02  0.51100000000E-03 0.  1.
         11   -1    0    0    0    0 -0.00000000000E+00 -0.00000000000E+00 -0.45593999997E+02  0.45594000000E+02  0.51100000000E-03 0. -1.
    9900012    2    1    2    0    0 -0.72397991943E+01 -0.91710914682E+01  0.38944118984E+02  0.50528831113E+02  0.29999912652E+02 0.  0.
         12    1    1    2    0    0  0.72397991943E+01  0.91710914682E+01 -0.38944118984E+02  0.40659168887E+02  0.00000000000E+00 0. -1.
         11    1    3    3    0    0 -0.33934254363E+01 -0.12248512882E+02  0.47198611538E+01  0.13557967900E+02  0.51100000000E-03 0. -1.
        -11    1    3    3    0    0 -0.66426449554E+00  0.59759381145E+01  0.62698270216E+01  0.86869911253E+01  0.51100000000E-03 0.  1.
        -12    1    3    3    0    0 -0.31821092625E+01 -0.28985167006E+01  0.27954430809E+02  0.28283872088E+02  0.00000000000E+00 0.  1.
</event>
<event>
 7    1  0.2680581E-011  0.5052887E+02  0.7816164E-02  0.1300439E+00
        -11   -1    0    0    0    0  0.00000000000E+00  0.00000000000E+00  0.45593999997E+02  0.45594000000E+02  0.51100000000E-03 0. -1.
         11   -1    0    0    0    0 -0.00000000000E+00 -0.00000000000E+00 -0.45593999997E+02  0.45594000000E+02  0.51100000000E-03 0.  1.
    9900012    2    1    2    0    0  0.33055244060E+01 -0.38408599585E+02 -0.12923551730E+02  0.50528865688E+02  0.30000017746E+02 0.  0.
         12    1    1    2    0    0 -0.33055244060E+01  0.38408599585E+02  0.12923551730E+02  0.40659134312E+02  0.00000000000E+00 0. -1.
         11    1    3    3    0    0  0.23517986439E+01 -0.87752214404E+01 -0.10927307910E+01  0.91503840921E+01  0.51100000000E-03 0. -1.
        -11    1    3    3    0    0 -0.10655826066E+02 -0.15677029997E+02  0.12592854923E+01  0.18997412953E+02  0.51100000000E-03 0.  1.
         12    1    3    3    0    0  0.11609551828E+02 -0.13956348147E+02 -0.13090106431E+02  0.22381068644E+02  0.00000000000E+00 0. -1.
</event>
<event>
 7    1  0.2680581E-011  0.5052886E+02  0.7816164E-02  0.1300439E+00
        -11   -1    0    0    0    0  0.00000000000E+00  0.00000000000E+00  0.45593999997E+02  0.45594000000E+02  0.51100000000E-03 0. -1.
         11   -1    0    0    0    0 -0.00000000000E+00 -0.00000000000E+00 -0.45593999997E+02  0.45594000000E+02  0.51100000000E-03 0.  1.
    9900012    2    1    2    0    0  0.26301591053E+02  0.13058207599E+02 -0.28122506176E+02  0.50528857963E+02  0.29999994263E+02 0.  0.
         12    1    1    2    0    0 -0.26301591053E+02 -0.13058207599E+02  0.28122506176E+02  0.40659142037E+02  0.00000000000E+00 0. -1.
         11    1    3    3    0    0  0.17241977163E+02  0.55958937899E+01 -0.13388446341E+02  0.22535534151E+02  0.51100000000E-03 0. -1.
        -11    1    3    3    0    0  0.70235426934E+01  0.80498579875E+01 -0.19802095931E+02  0.22500074869E+02  0.51100000000E-03 0.  1.
         12    1    3    3    0    0  0.20360711972E+01 -0.58754417887E+00  0.50680360960E+01  0.54932489432E+01  0.00000000000E+00 0. -1.
</event>
<event>
 7    1  0.2680581E-011  0.5052886E+02  0.7816164E-02  0.1300439E+00
        -11   -1    0    0    0    0  0.00000000000E+00  0.00000000000E+00  0.45593999997E+02  0.45594000000E+02  0.51100000000E-03 0. -1.
         11   -1    0    0    0    0 -0.00000000000E+00 -0.00000000000E+00 -0.45593999997E+02  0.45594000000E+02  0.51100000000E-03 0.  1.
    9900012    2    1    2    0    0 -0.28798477055E+02 -0.17861992162E+02  0.22466918957E+02  0.50528862133E+02  0.30000006939E+02 0.  0.
         12    1    1    2    0    0  0.28798477055E+02  0.17861992162E+02 -0.22466918957E+02  0.40659137867E+02  0.00000000000E+00 0. -1.
         11    1    3    3    0    0 -0.93006999713E+00  0.10405420354E+01  0.12396584438E+02  0.12474897351E+02  0.51100000000E-03 0. -1.
        -11    1    3    3    0    0 -0.13864247321E+02 -0.49513801599E+01  0.10823127101E+02  0.18272208399E+02  0.51100000000E-03 0.  1.
        -12    1    3    3    0    0 -0.14004159737E+02 -0.13951154038E+02 -0.75279258255E+00  0.19781756383E+02  0.00000000000E+00 0.  1.
</event>
<event>
 7    1  0.2680581E-011  0.5052886E+02  0.7816164E-02  0.1300439E+00
        -11   -1    0    0    0    0  0.00000000000E+00  0.00000000000E+00  0.45593999997E+02  0.45594000000E+02  0.51100000000E-03 0.  1.
         11   -1    0    0    0    0 -0.00000000000E+00 -0.00000000000E+00 -0.45593999997E+02  0.45594000000E+02  0.51100000000E-03 0. -1.
    9900012    2    1    2    0    0  0.86504567942E+01  0.29243342158E+02  0.26891668234E+02  0.50528864695E+02  0.30000014728E+02 0.  0.
         12    1    1    2    0    0 -0.86504567942E+01 -0.29243342158E+02 -0.26891668234E+02  0.40659135305E+02  0.00000000000E+00 0. -1.
         11    1    3    3    0    0  0.67043501618E+01 -0.14571000875E+01  0.84989007916E+00  0.69133034914E+01  0.51100000000E-03 0. -1.
        -11    1    3    3    0    0 -0.50155824565E+01  0.34295188106E+01  0.14653022541E+01  0.62501822059E+01  0.51100000000E-03 0.  1.
        -12    1    3    3    0    0  0.69616890889E+01  0.27270923435E+02  0.24576475900E+02  0.37365378998E+02  0.00000000000E+00 0.  1.
</event>
<event>
 7    1  0.2680581E-011  0.5052887E+02  0.7816164E-02  0.1300439E+00
        -11   -1    0    0    0    0  0.00000000000E+00  0.00000000000E+00  0.45593999997E+02  0.45594000000E+02  0.51100000000E-03 0.  1.
         11   -1    0    0    0    0 -0.00000000000E+00 -0.00000000000E+00 -0.45593999997E+02  0.45594000000E+02  0.51100000000E-03 0. -1.
    9900012    2    1    2    0    0 -0.17073584012E+02  0.24296860418E+02  0.27772657321E+02  0.50528865825E+02  0.30000018162E+02 0.  0.
         12    1    1    2    0    0  0.17073584012E+02 -0.24296860418E+02 -0.27772657321E+02  0.40659134175E+02  0.00000000000E+00 0. -1.
         11    1    3    3    0    0  0.31915030717E+01  0.77482375004E+00  0.54059929152E+01  0.63254093434E+01  0.51100000000E-03 0. -1.
        -11    1    3    3    0    0 -0.85259538978E+01  0.14425724771E+02  0.23991326652E+02  0.29263922837E+02  0.51100000000E-03 0.  1.
         12    1    3    3    0    0 -0.11739133186E+02  0.90963118976E+01 -0.16246622469E+01  0.14939533644E+02  0.00000000000E+00 0. -1.
</event>
<event>
 7    1  0.2680581E-011  0.5052885E+02  0.7816164E-02  0.1300439E+00
        -11   -1    0    0    0    0  0.00000000000E+00  0.00000000000E+00  0.45593999997E+02  0.45594000000E+02  0.51100000000E-03 0. -1.
         11   -1    0    0    0    0 -0.00000000000E+00 -0.00000000000E+00 -0.45593999997E+02  0.45594000000E+02  0.51100000000E-03 0.  1.
    9900012    2    1    2    0    0  0.31414681537E+02 -0.17999055341E+02  0.18501845885E+02  0.50528849610E+02  0.29999968876E+02 0.  0.
         12    1    1    2    0    0 -0.31414681537E+02  0.17999055341E+02 -0.18501845885E+02  0.40659150390E+02  0.00000000000E+00 0. -1.
         11    1    3    3    0    0  0.19418067916E+02 -0.10961169950E+02  0.13779707854E+02  0.26212381751E+02  0.51100000000E-03 0. -1.
        -11    1    3    3    0    0  0.11882672716E+02 -0.11677950350E+02  0.81493440181E+01  0.18546812218E+02  0.51100000000E-03 0.  1.
         12    1    3    3    0    0  0.11394090478E+00  0.46400649586E+01 -0.34272059867E+01  0.57696556418E+01  0.00000000000E+00 0. -1.
</event>
<event>
 7    1  0.2680581E-011  0.5052886E+02  0.7816164E-02  0.1300439E+00
        -11   -1    0    0    0    0  0.00000000000E+00  0.00000000000E+00  0.45593999997E+02  0.45594000000E+02  0.51100000000E-03 0.  1.
         11   -1    0    0    0    0 -0.00000000000E+00 -0.00000000000E+00 -0.45593999997E+02  0.45594000000E+02  0.51100000000E-03 0. -1.
    9900012    2    1    2    0    0 -0.29426163227E+02  0.27677257502E+02  0.46082865048E+01  0.50528856261E+02  0.29999989091E+02 0.  0.
         12    1    1    2    0    0  0.29426163227E+02 -0.27677257502E+02 -0.46082865048E+01  0.40659143739E+02  0.00000000000E+00 0. -1.
         11    1    3    3    0    0 -0.40802218232E+01 -0.32158758860E+01 -0.34021361919E+01  0.62100401585E+01  0.51100000000E-03 0. -1.
        -11    1    3    3    0    0 -0.91255437865E+01  0.90890337119E+01 -0.54582876593E+01  0.13988530575E+02  0.51100000000E-03 0.  1.
        -12    1    3    3    0    0 -0.16220397617E+02  0.21804099676E+02  0.13468710356E+02  0.30330285528E+02  0.00000000000E+00 0.  1.
</event>
<event>
 7    1  0.2680581E-011  0.5052885E+02  0.7816164E-02  0.1300439E+00
        -11   -1    0    0    0    0  0.00000000000E+00  0.00000000000E+00  0.45593999997E+02  0.45594000000E+02  0.51100000000E-03 0.  1.
         11   -1    0    0    0    0 -0.00000000000E+00 -0.00000000000E+00 -0.45593999997E+02  0.45594000000E+02  0.51100000000E-03 0. -1.
    9900012    2    1    2    0    0 -0.14722407703E+02 -0.25333539266E+02  0.28189163669E+02  0.50528850369E+02  0.29999971183E+02 0.  0.
         12    1    1    2    0    0  0.14722407703E+02  0.25333539266E+02 -0.28189163669E+02  0.40659149631E+02  0.00000000000E+00 0. -1.
         11    1    3    3    0    0  0.67912179948E+01 -0.77504898521E+01  0.11764369604E+02  0.15639409427E+02  0.51100000000E-03 0. -1.
        -11    1    3    3    0    0 -0.38647547200E+01 -0.95476316734E+01  0.10267011954E+02  0.14543216094E+02  0.51100000000E-03 0.  1.
        -12    1    3    3    0    0 -0.17648870978E+02 -0.80354177409E+01  0.61577821110E+01  0.20346224848E+02  0.00000000000E+00 0.  1.
</event>
<event>
 7    1  0.2680581E-011  0.5052886E+02  0.7816164E-02  0.1300439E+00
        -11   -1    0    0    0    0  0.00000000000E+00  0.00000000000E+00  0.45593999997E+02  0.45594000000E+02  0.51100000000E-03 0. -1.
         11   -1    0    0    0    0 -0.00000000000E+00 -0.00000000000E+00 -0.45593999997E+02  0.45594000000E+02  0.51100000000E-03 0.  1.
    9900012    2    1    2    0    0  0.32878477866E+02 -0.89970157131E+01 -0.22163593265E+02  0.50528862467E+02  0.30000007955E+02 0.  0.
         12    1    1    2    0    0 -0.32878477866E+02  0.89970157131E+01  0.22163593265E+02  0.40659137533E+02  0.00000000000E+00 0. -1.
         11    1    3    3    0    0  0.89338137901E+01 -0.18586691883E+01 -0.98695732214E+01  0.13441583085E+02  0.51100000000E-03 0.  1.
        -11    1    3    3    0    0  0.75300455529E+01 -0.77478315867E+01  0.61155743746E+01  0.12414939811E+02  0.51100000000E-03 0. -1.
         12    1    3    3    0    0  0.16414618523E+02  0.60948506200E+00 -0.18409594418E+02  0.24672339571E+02  0.00000000000E+00 0. -1.
</event>
<event>
 7    1  0.2680581E-011  0.5052886E+02  0.7816164E-02  0.1300439E+00
        -11   -1    0    0    0    0  0.00000000000E+00  0.00000000000E+00  0.45593999997E+02  0.45594000000E+02  0.51100000000E-03 0. -1.
         11   -1    0    0    0    0 -0.00000000000E+00 -0.00000000000E+00 -0.45593999997E+02  0.45594000000E+02  0.51100000000E-03 0.  1.
    9900012    2    1    2    0    0  0.33945550540E+02 -0.45509833710E+01 -0.21912419912E+02  0.50528855917E+02  0.29999988047E+02 0.  0.
         12    1    1    2    0    0 -0.33945550540E+02  0.45509833710E+01  0.21912419912E+02  0.40659144083E+02  0.00000000000E+00 0. -1.
         11    1    3    3    0    0  0.16648173055E+02  0.59327531027E+01 -0.18163618110E+02  0.25343169662E+02  0.51100000000E-03 0. -1.
        -11    1    3    3    0    0  0.14663243948E+02 -0.14161747232E+01 -0.52207594526E+01  0.15629222740E+02  0.51100000000E-03 0.  1.
         12    1    3    3    0    0  0.26341335374E+01 -0.90675617505E+01  0.14719576507E+01  0.95564635152E+01  0.00000000000E+00 0. -1.
</event>
<event>
 7    1  0.2680581E-011  0.5052886E+02  0.7816164E-02  0.1300439E+00
        -11   -1    0    0    0    0  0.00000000000E+00  0.00000000000E+00  0.45593999997E+02  0.45594000000E+02  0.51100000000E-03 0.  1.
         11   -1    0    0    0    0 -0.00000000000E+00 -0.00000000000E+00 -0.45593999997E+02  0.45594000000E+02  0.51100000000E-03 0. -1.
    9900012    2    1    2    0    0  0.82618213555E+01  0.19937160415E+02  0.34458930358E+02  0.50528856638E+02  0.29999990236E+02 0.  0.
         12    1    1    2    0    0 -0.82618213555E+01 -0.19937160415E+02 -0.34458930358E+02  0.40659143362E+02  0.00000000000E+00 0. -1.
         11    1    3    3    0    0  0.20111225768E+01  0.11597277639E+02 -0.12679396440E+01  0.11838459944E+02  0.51100000000E-03 0.  1.
        -11    1    3    3    0    0  0.16004382441E+01 -0.24367945172E+01  0.48608662659E+01  0.56681029638E+01  0.51100000000E-03 0. -1.
        -12    1    3    3    0    0  0.46502605346E+01  0.10776677294E+02  0.30866003736E+02  0.33022293730E+02  0.00000000000E+00 0.  1.
</event>
<event>
 7    1  0.2680581E-011  0.5052885E+02  0.7816164E-02  0.1300439E+00
        -11   -1    0    0    0    0  0.00000000000E+00  0.00000000000E+00  0.45593999997E+02  0.45594000000E+02  0.51100000000E-03 0.  1.
         11   -1    0    0    0    0 -0.00000000000E+00 -0.00000000000E+00 -0.45593999997E+02  0.45594000000E+02  0.51100000000E-03 0. -1.
    9900012    2    1    2    0    0 -0.26582568040E+02  0.81650855044E+01  0.29662511308E+02  0.50528854387E+02  0.29999983395E+02 0.  0.
         12    1    1    2    0    0  0.26582568040E+02 -0.81650855044E+01 -0.29662511308E+02  0.40659145613E+02  0.00000000000E+00 0. -1.
         11    1    3    3    0    0 -0.42764691614E+01  0.54828092657E+01  0.54521581885E+01  0.88360293745E+01  0.51100000000E-03 0. -1.
        -11    1    3    3    0    0 -0.66465610359E+01  0.94099703460E+01  0.21559211082E+02  0.24444301958E+02  0.51100000000E-03 0.  1.
        -12    1    3    3    0    0 -0.15659537842E+02 -0.67276941073E+01  0.26511420380E+01  0.17248523054E+02  0.00000000000E+00 0.  1.
</event>
<event>
 7    1  0.2680581E-011  0.5052887E+02  0.7816164E-02  0.1300439E+00
        -11   -1    0    0    0    0  0.00000000000E+00  0.00000000000E+00  0.45593999997E+02  0.45594000000E+02  0.51100000000E-03 0.  1.
         11   -1    0    0    0    0 -0.00000000000E+00 -0.00000000000E+00 -0.45593999997E+02  0.45594000000E+02  0.51100000000E-03 0. -1.
    9900012    2    1    2    0    0  0.26891486934E+02 -0.96523290240E+01  0.28928284600E+02  0.50528866032E+02  0.30000018791E+02 0.  0.
         12    1    1    2    0    0 -0.26891486934E+02  0.96523290240E+01 -0.28928284600E+02  0.40659133968E+02  0.00000000000E+00 0. -1.
         11    1    3    3    0    0  0.10433117408E+01 -0.58283357865E+01  0.13189642525E+02  0.14457685417E+02  0.51100000000E-03 0. -1.
        -11    1    3    3    0    0  0.14768913296E+02 -0.88046750960E+00  0.19067220622E+02  0.24134102956E+02  0.51100000000E-03 0.  1.
         12    1    3    3    0    0  0.11079261898E+02 -0.29435257279E+01 -0.33285785465E+01  0.11937077659E+02  0.00000000000E+00 0. -1.
</event>
<event>
 7    1  0.2680581E-011  0.5052885E+02  0.7816164E-02  0.1300439E+00
        -11   -1    0    0    0    0  0.00000000000E+00  0.00000000000E+00  0.45593999997E+02  0.45594000000E+02  0.51100000000E-03 0.  1.
         11   -1    0    0    0    0 -0.00000000000E+00 -0.00000000000E+00 -0.45593999997E+02  0.45594000000E+02  0.51100000000E-03 0. -1.
    9900012    2    1    2    0    0 -0.59683251314E+01 -0.39086415544E+02 -0.94761846037E+01  0.50528845316E+02  0.29999955824E+02 0.  0.
         12    1    1    2    0    0  0.59683251314E+01  0.39086415544E+02  0.94761846037E+01  0.40659154684E+02  0.00000000000E+00 0. -1.
         11    1    3    3    0    0  0.35434188652E+01 -0.25573951460E+01  0.24092411707E+01  0.49900431328E+01  0.51100000000E-03 0. -1.
        -11    1    3    3    0    0  0.55584732162E+00  0.28019089701E+01  0.86515305448E+00  0.29846524405E+01  0.51100000000E-03 0.  1.
        -12    1    3    3    0    0 -0.10067591318E+02 -0.39330929368E+02 -0.12750578829E+02  0.42554149743E+02  0.00000000000E+00 0.  1.
</event>
<event>
 7    1  0.2680581E-011  0.5052885E+02  0.7816164E-02  0.1300439E+00
        -11   -1    0    0    0    0  0.00000000000E+00  0.00000000000E+00  0.45593999997E+02  0.45594000000E+02  0.51100000000E-03 0.  1.
         11   -1    0    0    0    0 -0.00000000000E+00 -0.00000000000E+00 -0.45593999997E+02  0.45594000000E+02  0.51100000000E-03 0. -1.
    9900012    2    1    2    0    0  0.25154141401E+02  0.31430952304E+02  0.57035565302E+01  0.50528854049E+02  0.29999982368E+02 0.  0.
         12    1    1    2    0    0 -0.25154141401E+02 -0.31430952304E+02 -0.57035565302E+01  0.40659145951E+02  0.00000000000E+00 0. -1.
         11    1    3    3    0    0  0.12451914302E+02  0.26050071710E+02 -0.79773295942E+01  0.29954869280E+02  0.51100000000E-03 0. -1.
        -11    1    3    3    0    0  0.13511997410E+01 -0.11396928862E+01  0.19318057047E+00  0.17781899811E+01  0.51100000000E-03 0.  1.
        -12    1    3    3    0    0  0.11351027358E+02  0.65205734799E+01  0.13487705554E+02  0.18795794788E+02  0.00000000000E+00 0.  1.
</event>
<event>
 7    1  0.2680581E-011  0.5052886E+02  0.7816164E-02  0.1300439E+00
        -11   -1    0    0    0    0  0.00000000000E+00  0.00000000000E+00  0.45593999997E+02  0.45594000000E+02  0.51100000000E-03 0. -1.
         11   -1    0    0    0    0 -0.00000000000E+00 -0.00000000000E+00 -0.45593999997E+02  0.45594000000E+02  0.51100000000E-03 0.  1.
    9900012    2    1    2    0    0 -0.68249774693E+01  0.31219354019E+02 -0.25138364408E+02  0.50528858987E+02  0.29999997376E+02 0.  0.
         12    1    1    2    0    0  0.68249774693E+01 -0.31219354019E+02  0.25138364408E+02  0.40659141013E+02  0.00000000000E+00 0. -1.
         11    1    3    3    0    0  0.36265990582E+01  0.39867325122E+00 -0.10643791112E+01  0.38005347313E+01  0.51100000000E-03 0. -1.
        -11    1    3    3    0    0  0.38343576754E+01  0.15232990842E+02 -0.19597260617E+02  0.25115710875E+02  0.51100000000E-03 0.  1.
         12    1    3    3    0    0 -0.14285934203E+02  0.15587689927E+02 -0.44767246790E+01  0.21612613381E+02  0.00000000000E+00 0. -1.
</event>
<event>
 7    1  0.2680581E-011  0.5052886E+02  0.7816164E-02  0.1300439E+00
        -11   -1    0    0    0    0  0.00000000000E+00  0.00000000000E+00  0.45593999997E+02  0.45594000000E+02  0.51100000000E-03 0.  1.
         11   -1    0    0    0    0 -0.00000000000E+00 -0.00000000000E+00 -0.45593999997E+02  0.45594000000E+02  0.51100000000E-03 0. -1.
    9900012    2    1    2    0    0 -0.33241441898E+02  0.23192005685E+02  0.32097987848E+01  0.50528863322E+02  0.30000010554E+02 0.  0.
         12    1    1    2    0    0  0.33241441898E+02 -0.23192005685E+02 -0.32097987848E+01  0.40659136678E+02  0.00000000000E+00 0. -1.
         11    1    3    3    0    0 -0.11193018968E+02  0.14088212078E+02 -0.17264641455E+00  0.17994199071E+02  0.51100000000E-03 0. -1.
        -11    1    3    3    0    0 -0.14324707618E+02  0.10082874599E+02  0.11759365198E+02  0.21098442564E+02  0.51100000000E-03 0.  1.
         12    1    3    3    0    0 -0.77237153120E+01 -0.97908099184E+00 -0.83769199984E+01  0.11436221687E+02  0.00000000000E+00 0. -1.
</event>
<event>
 7    1  0.2680581E-011  0.5052885E+02  0.7816164E-02  0.1300439E+00
        -11   -1    0    0    0    0  0.00000000000E+00  0.00000000000E+00  0.45593999997E+02  0.45594000000E+02  0.51100000000E-03 0.  1.
         11   -1    0    0    0    0 -0.00000000000E+00 -0.00000000000E+00 -0.45593999997E+02  0.45594000000E+02  0.51100000000E-03 0. -1.
    9900012    2    1    2    0    0  0.12052276218E+02 -0.35992601057E+02  0.14575389713E+02  0.50528847547E+02  0.29999962604E+02 0.  0.
         12    1    1    2    0    0 -0.12052276218E+02  0.35992601057E+02 -0.14575389713E+02  0.40659152453E+02  0.00000000000E+00 0. -1.
         11    1    3    3    0    0 -0.62956435827E+00  0.13013172607E+01 -0.81173564473E+00  0.16579182465E+01  0.51100000000E-03 0. -1.
        -11    1    3    3    0    0  0.15762595729E+02 -0.97251241256E+01  0.79164832137E+01  0.20142198741E+02  0.51100000000E-03 0.  1.
         12    1    3    3    0    0 -0.30807551525E+01 -0.27568794192E+02  0.74706421442E+01  0.28728730560E+02  0.00000000000E+00 0. -1.
</event>
<event>
 7    1  0.2680581E-011  0.5052886E+02  0.7816164E-02  0.1300439E+00
        -11   -1    0    0    0    0  0.00000000000E+00  0.00000000000E+00  0.45593999997E+02  0.45594000000E+02  0.51100000000E-03 0. -1.
         11   -1    0    0    0    0 -0.00000000000E+00 -0.00000000000E+00 -0.45593999997E+02  0.45594000000E+02  0.51100000000E-03 0.  1.
    9900012    2    1    2    0    0  0.29355032370E+02  0.80002294786E+01 -0.26971167840E+02  0.50528862136E+02  0.30000006949E+02 0.  0.
         12    1    1    2    0    0 -0.29355032370E+02 -0.80002294786E+01  0.26971167840E+02  0.40659137864E+02  0.00000000000E+00 0. -1.
         11    1    3    3    0    0  0.23983706484E+02  0.59229524233E+01 -0.10326804591E+02  0.26775780763E+02  0.51100000000E-03 0.  1.
        -11    1    3    3    0    0  0.78535746189E+01 -0.49880510181E+01 -0.76181659630E+01  0.12024796886E+02  0.51100000000E-03 0. -1.
        -12    1    3    3    0    0 -0.24822487332E+01  0.70653280734E+01 -0.90261972866E+01  0.11728284487E+02  0.00000000000E+00 0.  1.
</event>
<event>
 7    1  0.2680581E-011  0.5052885E+02  0.7816164E-02  0.1300439E+00
        -11   -1    0    0    0    0  0.00000000000E+00  0.00000000000E+00  0.45593999997E+02  0.45594000000E+02  0.51100000000E-03 0.  1.
         11   -1    0    0    0    0 -0.00000000000E+00 -0.00000000000E+00 -0.45593999997E+02  0.45594000000E+02  0.51100000000E-03 0. -1.
    9900012    2    1    2    0    0  0.39205632756E+02 -0.26466262052E+01  0.10444135558E+02  0.50528852964E+02  0.29999979071E+02 0.  0.
         12    1    1    2    0    0 -0.39205632756E+02  0.26466262052E+01 -0.10444135558E+02  0.40659147036E+02  0.00000000000E+00 0. -1.
         11    1    3    3    0    0 -0.24480698001E+01  0.97354560987E+00 -0.20303305961E+01  0.33261207722E+01  0.51100000000E-03 0. -1.
        -11    1    3    3    0    0  0.22489999061E+02 -0.68303913459E+01 -0.10513290329E+01  0.23527847260E+02  0.51100000000E-03 0.  1.
        -12    1    3    3    0    0  0.19163703496E+02  0.32102195309E+01  0.13525795187E+02  0.23674884932E+02  0.00000000000E+00 0.  1.
</event>
<event>
 7    1  0.2680581E-011  0.5052886E+02  0.7816164E-02  0.1300439E+00
        -11   -1    0    0    0    0  0.00000000000E+00  0.00000000000E+00  0.45593999997E+02  0.45594000000E+02  0.51100000000E-03 0. -1.
         11   -1    0    0    0    0 -0.00000000000E+00 -0.00000000000E+00 -0.45593999997E+02  0.45594000000E+02  0.51100000000E-03 0.  1.
    9900012    2    1    2    0    0 -0.18344338240E+02  0.36179863889E+02 -0.27691702255E+01  0.50528860803E+02  0.30000002896E+02 0.  0.
         12    1    1    2    0    0  0.18344338240E+02 -0.36179863889E+02  0.27691702255E+01  0.40659139197E+02  0.00000000000E+00 0. -1.
         11    1    3    3    0    0  0.97313324423E+00  0.40605381495E+01 -0.58004709297E+01  0.71470568518E+01  0.51100000000E-03 0. -1.
        -11    1    3    3    0    0 -0.14593271838E+02  0.34876011031E+02  0.26579396280E+01  0.37899398039E+02  0.51100000000E-03 0.  1.
         12    1    3    3    0    0 -0.47241996462E+01 -0.27566852912E+01  0.37336107628E+00  0.54824059122E+01  0.00000000000E+00 0. -1.
</event>
<event>
 7    1  0.2680581E-011  0.5052884E+02  0.7816164E-02  0.1300439E+00
        -11   -1    0    0    0    0  0.00000000000E+00  0.00000000000E+00  0.45593999997E+02  0.45594000000E+02  0.51100000000E-03 0.  1.
         11   -1    0    0    0    0 -0.00000000000E+00 -0.00000000000E+00 -0.45593999997E+02  0.45594000000E+02  0.51100000000E-03 0. -1.
    9900012    2    1    2    0    0  0.40248503214E+02 -0.47509789622E+01  0.32639633185E+01  0.50528840286E+02  0.29999940534E+02 0.  0.
         12    1    1    2    0    0 -0.40248503214E+02  0.47509789622E+01 -0.32639633185E+01  0.40659159714E+02  0.00000000000E+00 0. -1.
         11    1    3    3    0    0  0.31081048218E+02 -0.50034210207E+01 -0.35640539156E+01  0.31682302012E+02  0.51100000000E-03 0. -1.
        -11    1    3    3    0    0  0.21539089332E+01 -0.27000327627E+01 -0.42063251254E+01  0.54426713969E+01  0.51100000000E-03 0.  1.
        -12    1    3    3    0    0  0.70135460633E+01  0.29524748212E+01  0.11034342359E+02  0.13403866877E+02  0.00000000000E+00 0.  1.
</event>
<event>
 7    1  0.2680581E-011  0.5052886E+02  0.7816164E-02  0.1300439E+00
        -11   -1    0    0    0    0  0.00000000000E+00  0.00000000000E+00  0.45593999997E+02  0.45594000000E+02  0.51100000000E-03 0. -1.
         11   -1    0    0    0    0 -0.00000000000E+00 -0.00000000000E+00 -0.45593999997E+02  0.45594000000E+02  0.51100000000E-03 0.  1.
    9900012    2    1    2    0    0 -0.15653066275E+02  0.14503609815E+02 -0.34609135043E+02  0.50528863143E+02  0.30000010011E+02 0.  0.
         12    1    1    2    0    0  0.15653066275E+02 -0.14503609815E+02  0.34609135043E+02  0.40659136857E+02  0.00000000000E+00 0. -1.
         11    1    3    3    0    0 -0.14670948351E+01  0.11866945660E+02 -0.18627610715E+02  0.22135145081E+02  0.51100000000E-03 0. -1.
        -11    1    3    3    0    0 -0.61867876247E+01  0.53024448223E+01  0.21246244093E+01  0.84205873517E+01  0.51100000000E-03 0.  1.
        -12    1    3    3    0    0 -0.79991838157E+01 -0.26657806670E+01 -0.18106148738E+02  0.19973130711E+02  0.00000000000E+00 0.  1.
</event>
<event>
 7    1  0.2680581E-011  0.5052885E+02  0.7816164E-02  0.1300439E+00
        -11   -1    0    0    0    0  0.00000000000E+00  0.00000000000E+00  0.45593999997E+02  0.45594000000E+02  0.51100000000E-03 0. -1.
         11   -1    0    0    0    0 -0.00000000000E+00 -0.00000000000E+00 -0.45593999997E+02  0.45594000000E+02  0.51100000000E-03 0.  1.
    9900012    2    1    2    0    0 -0.30127342160E+02 -0.25332254818E+02 -0.10187556298E+02  0.50528853635E+02  0.29999981110E+02 0.  0.
         12    1    1    2    0    0  0.30127342160E+02  0.25332254818E+02  0.10187556298E+02  0.40659146365E+02  0.00000000000E+00 0. -1.
         11    1    3    3    0    0 -0.73186208325E+01 -0.12974144968E+02 -0.44776241332E+01  0.15554413093E+02  0.51100000000E-03 0.  1.
        -11    1    3    3    0    0 -0.25173432989E+02 -0.14718183563E+02 -0.87630300978E+01  0.30448601817E+02  0.51100000000E-03 0. -1.
         12    1    3    3    0    0  0.23647116621E+01  0.23600737129E+01  0.30530979326E+01  0.45258387246E+01  0.00000000000E+00 0. -1.
</event>
<event>
 7    1  0.2680581E-011  0.5052885E+02  0.7816164E-02  0.1300439E+00
        -11   -1    0    0    0    0  0.00000000000E+00  0.00000000000E+00  0.45593999997E+02  0.45594000000E+02  0.51100000000E-03 0. -1.
         11   -1    0    0    0    0 -0.00000000000E+00 -0.00000000000E+00 -0.45593999997E+02  0.45594000000E+02  0.51100000000E-03 0.  1.
    9900012    2    1    2    0    0  0.37234061183E+02  0.21464806039E+01  0.16192082987E+02  0.50528852904E+02  0.29999978887E+02 0.  0.
         12    1    1    2    0    0 -0.37234061183E+02 -0.21464806039E+01 -0.16192082987E+02  0.40659147096E+02  0.00000000000E+00 0. -1.
         11    1    3    3    0    0  0.42784105074E+01 -0.29718680396E+00  0.14289150951E+02  0.14918879034E+02  0.51100000000E-03 0. -1.
        -11    1    3    3    0    0  0.25283022499E+02 -0.23644031742E+00  0.67206603764E+01  0.26162079559E+02  0.51100000000E-03 0.  1.
        -12    1    3    3    0    0  0.76726281765E+01  0.26801077253E+01 -0.48177283406E+01  0.94478943113E+01  0.00000000000E+00 0.  1.
</event>
<event>
 7    1  0.2680581E-011  0.5052884E+02  0.7816164E-02  0.1300439E+00
        -11   -1    0    0    0    0  0.00000000000E+00  0.00000000000E+00  0.45593999997E+02  0.45594000000E+02  0.51100000000E-03 0.  1.
         11   -1    0    0    0    0 -0.00000000000E+00 -0.00000000000E+00 -0.45593999997E+02  0.45594000000E+02  0.51100000000E-03 0. -1.
    9900012    2    1    2    0    0  0.86304240645E+01 -0.11783194585E+02  0.37945211454E+02  0.50528844002E+02  0.29999951829E+02 0.  0.
         12    1    1    2    0    0 -0.86304240645E+01  0.11783194585E+02 -0.37945211454E+02  0.40659155998E+02  0.00000000000E+00 0. -1.
         11    1    3    3    0    0  0.11915404532E+01 -0.17047660628E+01 -0.10981583632E+01  0.23520093606E+01  0.51100000000E-03 0. -1.
        -11    1    3    3    0    0 -0.93367863034E+01 -0.18524397995E+01  0.14082240228E+02  0.16997546934E+02  0.51100000000E-03 0.  1.
        -12    1    3    3    0    0  0.16775669915E+02 -0.82259887224E+01  0.24961129590E+02  0.31179287707E+02  0.00000000000E+00 0.  1.
</event>
<event>
 7    1  0.2680581E-011  0.5052885E+02  0.7816164E-02  0.1300439E+00
        -11   -1    0    0    0    0  0.00000000000E+00  0.00000000000E+00  0.45593999997E+02  0.45594000000E+02  0.51100000000E-03 0.  1.
         11   -1    0    0    0    0 -0.00000000000E+00 -0.00000000000E+00 -0.45593999997E+02  0.45594000000E+02  0.51100000000E-03 0. -1.
    9900012    2    1    2    0    0  0.70478426003E+01  0.36615879917E+02  0.16210244784E+02  0.50528846254E+02  0.29999958674E+02 0.  0.
         12    1    1    2    0    0 -0.70478426003E+01 -0.36615879917E+02 -0.16210244784E+02  0.40659153746E+02  0.00000000000E+00 0. -1.
         11    1    3    3    0    0  0.11375861542E+01  0.14834751866E+02  0.11196920295E+02  0.18620821398E+02  0.51100000000E-03 0. -1.
        -11    1    3    3    0    0 -0.12414399334E+00  0.24741044498E+02  0.32073587962E+01  0.24948383621E+02  0.51100000000E-03 0.  1.
         12    1    3    3    0    0  0.60344004394E+01 -0.29599164473E+01  0.18059656922E+01  0.69596412350E+01  0.00000000000E+00 0. -1.
</event>
<event>
 7    1  0.2680581E-011  0.5052885E+02  0.7816164E-02  0.1300439E+00
        -11   -1    0    0    0    0  0.00000000000E+00  0.00000000000E+00  0.45593999997E+02  0.45594000000E+02  0.51100000000E-03 0.  1.
         11   -1    0    0    0    0 -0.00000000000E+00 -0.00000000000E+00 -0.45593999997E+02  0.45594000000E+02  0.51100000000E-03 0. -1.
    9900012    2    1    2    0    0 -0.14514747381E+02 -0.11344344367E+02  0.36246305626E+02  0.50528847129E+02  0.29999961333E+02 0.  0.
         12    1    1    2    0    0  0.14514747381E+02  0.11344344367E+02 -0.36246305626E+02  0.40659152871E+02  0.00000000000E+00 0. -1.
         11    1    3    3    0    0 -0.31056142106E+01 -0.10450078823E+02  0.10141110884E+02  0.14889295391E+02  0.51100000000E-03 0. -1.
        -11    1    3    3    0    0 -0.15355756636E+02 -0.70916295988E+01  0.18014663370E+02  0.24710697457E+02  0.51100000000E-03 0.  1.
         12    1    3    3    0    0  0.39466234650E+01  0.61973640546E+01  0.80905313721E+01  0.10928854280E+02  0.00000000000E+00 0. -1.
</event>
<event>
 7    1  0.2680581E-011  0.5052886E+02  0.7816164E-02  0.1300439E+00
        -11   -1    0    0    0    0  0.00000000000E+00  0.00000000000E+00  0.45593999997E+02  0.45594000000E+02  0.51100000000E-03 0.  1.
         11   -1    0    0    0    0 -0.00000000000E+00 -0.00000000000E+00 -0.45593999997E+02  0.45594000000E+02  0.51100000000E-03 0. -1.
    9900012    2    1    2    0    0 -0.47751439424E+01  0.50658054001E+01  0.40058721134E+02  0.50528861754E+02  0.30000005788E+02 0.  0.
         12    1    1    2    0    0  0.47751439424E+01 -0.50658054001E+01 -0.40058721134E+02  0.40659138246E+02  0.00000000000E+00 0. -1.
         11    1    3    3    0    0 -0.20328756619E+01 -0.37634527829E+01  0.21263360777E+01  0.47767630967E+01  0.51100000000E-03 0. -1.
        -11    1    3    3    0    0  0.78737149919E+01  0.16591724661E+01  0.29099651624E+02  0.30191687034E+02  0.51100000000E-03 0.  1.
         12    1    3    3    0    0 -0.10615983272E+02  0.71700857169E+01  0.88327334320E+01  0.15560411624E+02  0.00000000000E+00 0. -1.
</event>
<event>
 7    1  0.2680581E-011  0.5052885E+02  0.7816164E-02  0.1300439E+00
        -11   -1    0    0    0    0  0.00000000000E+00  0.00000000000E+00  0.45593999997E+02  0.45594000000E+02  0.51100000000E-03 0.  1.
         11   -1    0    0    0    0 -0.00000000000E+00 -0.00000000000E+00 -0.45593999997E+02  0.45594000000E+02  0.51100000000E-03 0. -1.
    9900012    2    1    2    0    0 -0.14116947749E+02  0.33677619458E+02  0.17880060581E+02  0.50528845650E+02  0.29999956837E+02 0.  0.
         12    1    1    2    0    0  0.14116947749E+02 -0.33677619458E+02 -0.17880060581E+02  0.40659154350E+02  0.00000000000E+00 0. -1.
         11    1    3    3    0    0  0.16199262509E+01  0.15353021658E+02  0.98631268945E+01  0.18319953807E+02  0.51100000000E-03 0.  1.
        -11    1    3    3    0    0 -0.69411796868E+01  0.18741747977E+02  0.11121764101E+02  0.22871963835E+02  0.51100000000E-03 0. -1.
         12    1    3    3    0    0 -0.87956943132E+01 -0.41715017749E+00 -0.31048304143E+01  0.93369280078E+01  0.00000000000E+00 0. -1.
</event>
<event>
 7    1  0.2680581E-011  0.5052886E+02  0.7816164E-02  0.1300439E+00
        -11   -1    0    0    0    0  0.00000000000E+00  0.00000000000E+00  0.45593999997E+02  0.45594000000E+02  0.51100000000E-03 0.  1.
         11   -1    0    0    0    0 -0.00000000000E+00 -0.00000000000E+00 -0.45593999997E+02  0.45594000000E+02  0.51100000000E-03 0. -1.
    9900012    2    1    2    0    0  0.58837883535E+01  0.34511847793E+02  0.20675557782E+02  0.50528864580E+02  0.30000014377E+02 0.  0.
         12    1    1    2    0    0 -0.58837883535E+01 -0.34511847793E+02 -0.20675557782E+02  0.40659135420E+02  0.00000000000E+00 0. -1.
         11    1    3    3    0    0 -0.26013250379E+01 -0.24156249270E+01 -0.96944885478E+00  0.36799411794E+01  0.51100000000E-03 0. -1.
        -11    1    3    3    0    0 -0.18969460397E+00  0.80644110655E+01  0.13336264850E+02  0.15586105039E+02  0.51100000000E-03 0.  1.
         12    1    3    3    0    0  0.86748079954E+01  0.28863061655E+02  0.83087417874E+01  0.31262818362E+02  0.00000000000E+00 0. -1.
</event>
<event>
 7    1  0.2680581E-011  0.5052886E+02  0.7816164E-02  0.1300439E+00
        -11   -1    0    0    0    0  0.00000000000E+00  0.00000000000E+00  0.45593999997E+02  0.45594000000E+02  0.51100000000E-03 0.  1.
         11   -1    0    0    0    0 -0.00000000000E+00 -0.00000000000E+00 -0.45593999997E+02  0.45594000000E+02  0.51100000000E-03 0. -1.
    9900012    2    1    2    0    0  0.27699654006E+02  0.24427830762E+02  0.17005166296E+02  0.50528862915E+02  0.30000009316E+02 0.  0.
         12    1    1    2    0    0 -0.27699654006E+02 -0.24427830762E+02 -0.17005166296E+02  0.40659137085E+02  0.00000000000E+00 0. -1.
         11    1    3    3    0    0  0.11558147631E+02  0.16139596044E+02  0.11645441709E+02  0.23015074408E+02  0.51100000000E-03 0.  1.
        -11    1    3    3    0    0  0.14795307867E+02  0.11359168121E+02  0.10478449708E+02  0.21394619506E+02  0.51100000000E-03 0. -1.
         12    1    3    3    0    0  0.13461985079E+01 -0.30709334030E+01 -0.51187251217E+01  0.61191690008E+01  0.00000000000E+00 0. -1.
</event>
<event>
 7    1  0.2680581E-011  0.5052887E+02  0.7816164E-02  0.1300439E+00
        -11   -1    0    0    0    0  0.00000000000E+00  0.00000000000E+00  0.45593999997E+02  0.45594000000E+02  0.51100000000E-03 0.  1.
         11   -1    0    0    0    0 -0.00000000000E+00 -0.00000000000E+00 -0.45593999997E+02  0.45594000000E+02  0.51100000000E-03 0. -1.
    9900012    2    1    2    0    0 -0.23370638282E+02 -0.19395563020E+02  0.27033127395E+02  0.50528873407E+02  0.30000041208E+02 0.  0.
         12    1    1    2    0    0  0.23370638282E+02  0.19395563020E+02 -0.27033127395E+02  0.40659126593E+02  0.00000000000E+00 0. -1.
         11    1    3    3    0    0 -0.93796427850E+00 -0.42997448610E+01  0.13041066783E+02  0.13763611661E+02  0.51100000000E-03 0. -1.
        -11    1    3    3    0    0  0.24170941182E+00 -0.10726411505E+02  0.27157259507E+01  0.11067497230E+02  0.51100000000E-03 0.  1.
         12    1    3    3    0    0 -0.22674383415E+02 -0.43694066536E+01  0.11276334661E+02  0.25697764517E+02  0.00000000000E+00 0. -1.
</event>
<event>
 7    1  0.2680581E-011  0.5052886E+02  0.7816164E-02  0.1300439E+00
        -11   -1    0    0    0    0  0.00000000000E+00  0.00000000000E+00  0.45593999997E+02  0.45594000000E+02  0.51100000000E-03 0.  1.
         11   -1    0    0    0    0 -0.00000000000E+00 -0.00000000000E+00 -0.45593999997E+02  0.45594000000E+02  0.51100000000E-03 0. -1.
    9900012    2    1    2    0    0  0.16707093872E+02  0.21695830321E+02  0.30055447988E+02  0.50528855977E+02  0.29999988226E+02 0.  0.
         12    1    1    2    0    0 -0.16707093872E+02 -0.21695830321E+02 -0.30055447988E+02  0.40659144023E+02  0.00000000000E+00 0. -1.
         11    1    3    3    0    0  0.44997560393E+01  0.13945443508E+02  0.15792037825E+02  0.21543250868E+02  0.51100000000E-03 0. -1.
        -11    1    3    3    0    0  0.15155303341E+02  0.34072893920E+01  0.17031502920E+02  0.23051354241E+02  0.51100000000E-03 0.  1.
         12    1    3    3    0    0 -0.29479655087E+01  0.43430974210E+01 -0.27680927567E+01  0.59342508675E+01  0.00000000000E+00 0. -1.
</event>
<event>
 7    1  0.2680581E-011  0.5052887E+02  0.7816164E-02  0.1300439E+00
        -11   -1    0    0    0    0  0.00000000000E+00  0.00000000000E+00  0.45593999997E+02  0.45594000000E+02  0.51100000000E-03 0. -1.
         11   -1    0    0    0    0 -0.00000000000E+00 -0.00000000000E+00 -0.45593999997E+02  0.45594000000E+02  0.51100000000E-03 0.  1.
    9900012    2    1    2    0    0 -0.64169010880E+01  0.39977333447E+02  0.37150102211E+01  0.50528866831E+02  0.30000021219E+02 0.  0.
         12    1    1    2    0    0  0.64169010880E+01 -0.39977333447E+02 -0.37150102211E+01  0.40659133169E+02  0.00000000000E+00 0. -1.
         11    1    3    3    0    0  0.67567012283E+01  0.51902057895E+01  0.29983901015E+01  0.90322528246E+01  0.51100000000E-03 0. -1.
        -11    1    3    3    0    0 -0.12931360988E+02  0.22974745134E+02  0.80808166323E+01  0.27574600789E+02  0.51100000000E-03 0.  1.
        -12    1    3    3    0    0 -0.24224132885E+00  0.11812382523E+02 -0.73641965127E+01  0.13922013217E+02  0.00000000000E+00 0.  1.
</event>
<event>
 7    1  0.2680581E-011  0.5052887E+02  0.7816164E-02  0.1300439E+00
        -11   -1    0    0    0    0  0.00000000000E+00  0.00000000000E+00  0.45593999997E+02  0.45594000000E+02  0.51100000000E-03 0.  1.
         11   -1    0    0    0    0 -0.00000000000E+00 -0.00000000000E+00 -0.45593999997E+02  0.45594000000E+02  0.51100000000E-03 0. -1.
    9900012    2    1    2    0    0 -0.19753648276E+02 -0.34080054577E+02  0.10075112503E+02  0.50528872708E+02  0.30000039083E+02 0.  0.
         12    1    1    2    0    0  0.19753648276E+02  0.34080054577E+02 -0.10075112503E+02  0.40659127292E+02  0.00000000000E+00 0. -1.
         11    1    3    3    0    0  0.31561731742E+01 -0.88200437218E+01  0.85349282205E+01  0.12672789762E+02  0.51100000000E-03 0. -1.
        -11    1    3    3    0    0 -0.10837389857E+01  0.10105662521E+01 -0.30536188888E+01  0.33941601197E+01  0.51100000000E-03 0.  1.
        -12    1    3    3    0    0 -0.21826082465E+02 -0.26270577107E+02  0.45938031714E+01  0.34461922826E+02  0.00000000000E+00 0.  1.
</event>
<event>
 7    1  0.2680581E-011  0.5052887E+02  0.7816164E-02  0.1300439E+00
        -11   -1    0    0    0    0  0.00000000000E+00  0.00000000000E+00  0.45593999997E+02  0.45594000000E+02  0.51100000000E-03 0.  1.
         11   -1    0    0    0    0 -0.00000000000E+00 -0.00000000000E+00 -0.45593999997E+02  0.45594000000E+02  0.51100000000E-03 0. -1.
    9900012    2    1    2    0    0  0.32005411293E+02 -0.46864166423E+01  0.24634455443E+02  0.50528865135E+02  0.30000016065E+02 0.  0.
         12    1    1    2    0    0 -0.32005411293E+02  0.46864166423E+01 -0.24634455443E+02  0.40659134865E+02  0.00000000000E+00 0. -1.
         11    1    3    3    0    0  0.84276395020E+01 -0.95523670492E+01  0.62046666511E+01  0.14169358219E+02  0.51100000000E-03 0. -1.
        -11    1    3    3    0    0  0.21646305466E+02 -0.39600029312E+01  0.10698926257E+02  0.24468575497E+02  0.51100000000E-03 0.  1.
        -12    1    3    3    0    0  0.19314663251E+01  0.88259533381E+01  0.77308625351E+01  0.11890931420E+02  0.00000000000E+00 0.  1.
</event>
<event>
 7    1  0.2680581E-011  0.5052885E+02  0.7816164E-02  0.1300439E+00
        -11   -1    0    0    0    0  0.00000000000E+00  0.00000000000E+00  0.45593999997E+02  0.45594000000E+02  0.51100000000E-03 0. -1.
         11   -1    0    0    0    0 -0.00000000000E+00 -0.00000000000E+00 -0.45593999997E+02  0.45594000000E+02  0.51100000000E-03 0.  1.
    9900012    2    1    2    0    0  0.38758100807E+02 -0.12023450242E+02  0.25322609535E+01  0.50528854911E+02  0.29999984987E+02 0.  0.
         12    1    1    2    0    0 -0.38758100807E+02  0.12023450242E+02 -0.25322609535E+01  0.40659145089E+02  0.00000000000E+00 0. -1.
         11    1    3    3    0    0  0.36946551581E+01  0.18483375584E+01  0.76542927621E+01  0.86979897917E+01  0.51100000000E-03 0. -1.
        -11    1    3    3    0    0  0.22925591218E+02 -0.17143760961E+02 -0.11603532061E+01  0.28650265137E+02  0.51100000000E-03 0.  1.
         12    1    3    3    0    0  0.12137854430E+02  0.32719731607E+01 -0.39616786024E+01  0.13180599982E+02  0.00000000000E+00 0. -1.
</event>
<event>
 7    1  0.2680581E-011  0.5052886E+02  0.7816164E-02  0.1300439E+00
        -11   -1    0    0    0    0  0.00000000000E+00  0.00000000000E+00  0.45593999997E+02  0.45594000000E+02  0.51100000000E-03 0.  1.
         11   -1    0    0    0    0 -0.00000000000E+00 -0.00000000000E+00 -0.45593999997E+02  0.45594000000E+02  0.51100000000E-03 0. -1.
    9900012    2    1    2    0    0  0.17141953147E+02 -0.30207900722E+02  0.21137686522E+02  0.50528860619E+02  0.30000002336E+02 0.  0.
         12    1    1    2    0    0 -0.17141953147E+02  0.30207900722E+02 -0.21137686522E+02  0.40659139381E+02  0.00000000000E+00 0. -1.
         11    1    3    3    0    0  0.41062995135E+01  0.16702358030E+01  0.50402803042E+01  0.67123624111E+01  0.51100000000E-03 0. -1.
        -11    1    3    3    0    0  0.15953274889E+02 -0.15650896984E+02  0.15722158915E+02  0.27324784305E+02  0.51100000000E-03 0.  1.
         12    1    3    3    0    0 -0.29176212549E+01 -0.16227239541E+02  0.37524730234E+00  0.16491713903E+02  0.00000000000E+00 0. -1.
</event>
<event>
 7    1  0.2680581E-011  0.5052886E+02  0.7816164E-02  0.1300439E+00
        -11   -1    0    0    0    0  0.00000000000E+00  0.00000000000E+00  0.45593999997E+02  0.45594000000E+02  0.51100000000E-03 0. -1.
         11   -1    0    0    0    0 -0.00000000000E+00 -0.00000000000E+00 -0.45593999997E+02  0.45594000000E+02  0.51100000000E-03 0.  1.
    9900012    2    1    2    0    0  0.14132653856E+02  0.86085305508E+01 -0.37139294592E+02  0.50528857042E+02  0.29999991465E+02 0.  0.
         12    1    1    2    0    0 -0.14132653856E+02 -0.86085305508E+01  0.37139294592E+02  0.40659142958E+02  0.00000000000E+00 0. -1.
         11    1    3    3    0    0 -0.25472377287E+01  0.13237942573E+01  0.35688868183E+01  0.45801533451E+01  0.51100000000E-03 0. -1.
        -11    1    3    3    0    0  0.37637753824E+01 -0.29018713165E+01 -0.73075455375E+01  0.87170570900E+01  0.51100000000E-03 0.  1.
        -12    1    3    3    0    0  0.12916116203E+02  0.10186607610E+02 -0.33400635873E+02  0.37231646607E+02  0.00000000000E+00 0.  1.
</event>
<event>
 7    1  0.2680581E-011  0.5052886E+02  0.7816164E-02  0.1300439E+00
        -11   -1    0    0    0    0  0.00000000000E+00  0.00000000000E+00  0.45593999997E+02  0.45594000000E+02  0.51100000000E-03 0.  1.
         11   -1    0    0    0    0 -0.00000000000E+00 -0.00000000000E+00 -0.45593999997E+02  0.45594000000E+02  0.51100000000E-03 0. -1.
    9900012    2    1    2    0    0 -0.98844881715E+01 -0.34553626976E+02 -0.19013410094E+02  0.50528855801E+02  0.29999987692E+02 0.  0.
         12    1    1    2    0    0  0.98844881715E+01  0.34553626976E+02  0.19013410094E+02  0.40659144199E+02  0.00000000000E+00 0. -1.
         11    1    3    3    0    0 -0.48392637539E+01 -0.56276891540E+01 -0.12811182502E+02  0.14805936521E+02  0.51100000000E-03 0. -1.
        -11    1    3    3    0    0 -0.16042367675E+00 -0.30110702553E+02 -0.59273644137E+01  0.30688984883E+02  0.51100000000E-03 0.  1.
         12    1    3    3    0    0 -0.48848007409E+01  0.11847647311E+01 -0.27486317826E+00  0.50339343970E+01  0.00000000000E+00 0. -1.
</event>
<event>
 7    1  0.2680581E-011  0.5052885E+02  0.7816164E-02  0.1300439E+00
        -11   -1    0    0    0    0  0.00000000000E+00  0.00000000000E+00  0.45593999997E+02  0.45594000000E+02  0.51100000000E-03 0.  1.
         11   -1    0    0    0    0 -0.00000000000E+00 -0.00000000000E+00 -0.45593999997E+02  0.45594000000E+02  0.51100000000E-03 0. -1.
    9900012    2    1    2    0    0  0.20768335887E+02  0.24114859344E+02  0.25304467097E+02  0.50528852545E+02  0.29999977797E+02 0.  0.
         12    1    1    2    0    0 -0.20768335887E+02 -0.24114859344E+02 -0.25304467097E+02  0.40659147455E+02  0.00000000000E+00 0. -1.
         11    1    3    3    0    0  0.24775786022E+00 -0.11256464027E+01 -0.34625789209E+01  0.36493721139E+01  0.51100000000E-03 0. -1.
        -11    1    3    3    0    0  0.42423431831E+01  0.36759109149E+00  0.12038797263E+02  0.12769700024E+02  0.51100000000E-03 0.  1.
        -12    1    3    3    0    0  0.16278234844E+02  0.24872914655E+02  0.16728248754E+02  0.34109780407E+02  0.00000000000E+00 0.  1.
</event>
<event>
 7    1  0.2680581E-011  0.5052887E+02  0.7816164E-02  0.1300439E+00
        -11   -1    0    0    0    0  0.00000000000E+00  0.00000000000E+00  0.45593999997E+02  0.45594000000E+02  0.51100000000E-03 0.  1.
         11   -1    0    0    0    0 -0.00000000000E+00 -0.00000000000E+00 -0.45593999997E+02  0.45594000000E+02  0.51100000000E-03 0. -1.
    9900012    2    1    2    0    0  0.18807682257E+02  0.24094902018E+02  0.26811781420E+02  0.50528870176E+02  0.30000031386E+02 0.  0.
         12    1    1    2    0    0 -0.18807682257E+02 -0.24094902018E+02 -0.26811781420E+02  0.40659129824E+02  0.00000000000E+00 0. -1.
         11    1    3    3    0    0 -0.57994460485E+01  0.30911756560E+01  0.88878030174E+01  0.11053595982E+02  0.51100000000E-03 0. -1.
        -11    1    3    3    0    0  0.98220170924E+01  0.16025217233E+02  0.13861387750E+02  0.23354179021E+02  0.51100000000E-03 0.  1.
        -12    1    3    3    0    0  0.14785111213E+02  0.49785091290E+01  0.40625906525E+01  0.16121095172E+02  0.00000000000E+00 0.  1.
</event>
<event>
 7    1  0.2680581E-011  0.5052886E+02  0.7816164E-02  0.1300439E+00
        -11   -1    0    0    0    0  0.00000000000E+00  0.00000000000E+00  0.45593999997E+02  0.45594000000E+02  0.51100000000E-03 0.  1.
         11   -1    0    0    0    0 -0.00000000000E+00 -0.00000000000E+00 -0.45593999997E+02  0.45594000000E+02  0.51100000000E-03 0. -1.
    9900012    2    1    2    0    0 -0.29906561639E+02 -0.27352398185E+02 -0.32572888769E+01  0.50528855317E+02  0.29999986223E+02 0.  0.
         12    1    1    2    0    0  0.29906561639E+02  0.27352398185E+02  0.32572888769E+01  0.40659144683E+02  0.00000000000E+00 0. -1.
         11    1    3    3    0    0 -0.50084379269E+01 -0.50761254019E+01 -0.25931815207E+01  0.75878910260E+01  0.51100000000E-03 0. -1.
        -11    1    3    3    0    0 -0.23944181669E+02 -0.25700789707E+02 -0.68673898981E+01  0.35791276474E+02  0.51100000000E-03 0.  1.
        -12    1    3    3    0    0 -0.95394204274E+00  0.34245169245E+01  0.62032825420E+01  0.71496878171E+01  0.00000000000E+00 0.  1.
</event>
<event>
 7    1  0.2680581E-011  0.5052886E+02  0.7816164E-02  0.1300439E+00
        -11   -1    0    0    0    0  0.00000000000E+00  0.00000000000E+00  0.45593999997E+02  0.45594000000E+02  0.51100000000E-03 0. -1.
         11   -1    0    0    0    0 -0.00000000000E+00 -0.00000000000E+00 -0.45593999997E+02  0.45594000000E+02  0.51100000000E-03 0.  1.
    9900012    2    1    2    0    0  0.27708385277E+02 -0.12582898729E+02 -0.26964455223E+02  0.50528858340E+02  0.29999995410E+02 0.  0.
         12    1    1    2    0    0 -0.27708385277E+02  0.12582898729E+02  0.26964455223E+02  0.40659141660E+02  0.00000000000E+00 0. -1.
         11    1    3    3    0    0  0.11210200919E+02 -0.91575994477E+01  0.13435298821E+01  0.14537376142E+02  0.51100000000E-03 0. -1.
        -11    1    3    3    0    0  0.10442645915E+02  0.59309403908E+00 -0.50313639881E+01  0.11606689368E+02  0.51100000000E-03 0.  1.
         12    1    3    3    0    0  0.60555384425E+01 -0.40183933202E+01 -0.23276621117E+02  0.24384792829E+02  0.00000000000E+00 0. -1.
</event>
<event>
 7    1  0.2680581E-011  0.5052884E+02  0.7816164E-02  0.1300439E+00
        -11   -1    0    0    0    0  0.00000000000E+00  0.00000000000E+00  0.45593999997E+02  0.45594000000E+02  0.51100000000E-03 0. -1.
         11   -1    0    0    0    0 -0.00000000000E+00 -0.00000000000E+00 -0.45593999997E+02  0.45594000000E+02  0.51100000000E-03 0.  1.
    9900012    2    1    2    0    0 -0.73730863036E+01 -0.14930601429E+02 -0.37092881462E+02  0.50528842165E+02  0.29999946245E+02 0.  0.
         12    1    1    2    0    0  0.73730863036E+01  0.14930601429E+02  0.37092881462E+02  0.40659157835E+02  0.00000000000E+00 0. -1.
         11    1    3    3    0    0  0.42317230015E+01  0.15401825788E+01 -0.27607869749E+01  0.52821952746E+01  0.51100000000E-03 0. -1.
        -11    1    3    3    0    0 -0.12063199019E+02 -0.72826687149E+01 -0.57474829155E+01  0.15218133733E+02  0.51100000000E-03 0.  1.
        -12    1    3    3    0    0  0.45838971410E+00 -0.91881152927E+01 -0.28584611572E+02  0.30028513158E+02  0.00000000000E+00 0.  1.
</event>
<event>
 7    1  0.2680581E-011  0.5052886E+02  0.7816164E-02  0.1300439E+00
        -11   -1    0    0    0    0  0.00000000000E+00  0.00000000000E+00  0.45593999997E+02  0.45594000000E+02  0.51100000000E-03 0. -1.
         11   -1    0    0    0    0 -0.00000000000E+00 -0.00000000000E+00 -0.45593999997E+02  0.45594000000E+02  0.51100000000E-03 0.  1.
    9900012    2    1    2    0    0 -0.33434542892E+02 -0.19690652314E+02 -0.12148045583E+02  0.50528862547E+02  0.30000008197E+02 0.  0.
         12    1    1    2    0    0  0.33434542892E+02  0.19690652314E+02  0.12148045583E+02  0.40659137453E+02  0.00000000000E+00 0. -1.
         11    1    3    3    0    0 -0.13240677172E+02 -0.62609811006E+01  0.54470641978E+01  0.15626449531E+02  0.51100000000E-03 0. -1.
        -11    1    3    3    0    0 -0.26515460538E+01  0.38951556819E+01 -0.17739006104E+00  0.47153368657E+01  0.51100000000E-03 0.  1.
        -12    1    3    3    0    0 -0.17542319667E+02 -0.17324826896E+02 -0.17417719720E+02  0.30187076150E+02  0.00000000000E+00 0.  1.
</event>
<event>
 7    1  0.2680581E-011  0.5052886E+02  0.7816164E-02  0.1300439E+00
        -11   -1    0    0    0    0  0.00000000000E+00  0.00000000000E+00  0.45593999997E+02  0.45594000000E+02  0.51100000000E-03 0.  1.
         11   -1    0    0    0    0 -0.00000000000E+00 -0.00000000000E+00 -0.45593999997E+02  0.45594000000E+02  0.51100000000E-03 0. -1.
    9900012    2    1    2    0    0 -0.35553090025E+02 -0.11035040745E+01  0.19695828433E+02  0.50528860939E+02  0.30000003310E+02 0.  0.
         12    1    1    2    0    0  0.35553090025E+02  0.11035040745E+01 -0.19695828433E+02  0.40659139061E+02  0.00000000000E+00 0. -1.
         11    1    3    3    0    0  0.56549691989E+00 -0.92140785905E+00 -0.40009668276E+01  0.41444559385E+01  0.51100000000E-03 0. -1.
        -11    1    3    3    0    0 -0.16180661524E+02 -0.83515057306E+01  0.12643418754E+02  0.22167938410E+02  0.51100000000E-03 0.  1.
         12    1    3    3    0    0 -0.19937925420E+02  0.81694095151E+01  0.11053376507E+02  0.24216466590E+02  0.00000000000E+00 0. -1.
</event>
<event>
 7    1  0.2680581E-011  0.5052886E+02  0.7816164E-02  0.1300439E+00
        -11   -1    0    0    0    0  0.00000000000E+00  0.00000000000E+00  0.45593999997E+02  0.45594000000E+02  0.51100000000E-03 0.  1.
         11   -1    0    0    0    0 -0.00000000000E+00 -0.00000000000E+00 -0.45593999997E+02  0.45594000000E+02  0.51100000000E-03 0. -1.
    9900012    2    1    2    0    0  0.32363900441E+02 -0.66943582710E+01  0.23683936881E+02  0.50528863873E+02  0.30000012228E+02 0.  0.
         12    1    1    2    0    0 -0.32363900441E+02  0.66943582710E+01 -0.23683936881E+02  0.40659136127E+02  0.00000000000E+00 0. -1.
         11    1    3    3    0    0  0.17717263461E+02 -0.40089062780E+01  0.18936625255E+01  0.18263589792E+02  0.51100000000E-03 0. -1.
        -11    1    3    3    0    0  0.93956527712E+01 -0.95445041870E+01  0.69376985211E+01  0.15083352154E+02  0.51100000000E-03 0.  1.
         12    1    3    3    0    0  0.52509842088E+01  0.68590521940E+01  0.14852575835E+02  0.17181921926E+02  0.00000000000E+00 0. -1.
</event>
<event>
 7    1  0.2680581E-011  0.5052886E+02  0.7816164E-02  0.1300439E+00
        -11   -1    0    0    0    0  0.00000000000E+00  0.00000000000E+00  0.45593999997E+02  0.45594000000E+02  0.51100000000E-03 0.  1.
         11   -1    0    0    0    0 -0.00000000000E+00 -0.00000000000E+00 -0.45593999997E+02  0.45594000000E+02  0.51100000000E-03 0. -1.
    9900012    2    1    2    0    0  0.29555989737E+01 -0.41600005163E+01  0.40337631546E+02  0.50528859720E+02  0.29999999605E+02 0.  0.
         12    1    1    2    0    0 -0.29555989737E+01  0.41600005163E+01 -0.40337631546E+02  0.40659140280E+02  0.00000000000E+00 0. -1.
         11    1    3    3    0    0  0.20307367324E+01 -0.10539452715E+02  0.20006242093E+02  0.22703604960E+02  0.51100000000E-03 0. -1.
        -11    1    3    3    0    0  0.43538664525E+01 -0.27653343314E+01  0.16578804151E+02  0.17362602754E+02  0.51100000000E-03 0.  1.
         12    1    3    3    0    0 -0.34290042112E+01  0.91447865302E+01  0.37525853015E+01  0.10462652006E+02  0.00000000000E+00 0. -1.
</event>
<event>
 7    1  0.2680581E-011  0.5052886E+02  0.7816164E-02  0.1300439E+00
        -11   -1    0    0    0    0  0.00000000000E+00  0.00000000000E+00  0.45593999997E+02  0.45594000000E+02  0.51100000000E-03 0. -1.
         11   -1    0    0    0    0 -0.00000000000E+00 -0.00000000000E+00 -0.45593999997E+02  0.45594000000E+02  0.51100000000E-03 0.  1.
    9900012    2    1    2    0    0  0.33922586332E+02 -0.20381154999E+02 -0.93291257920E+01  0.50528856740E+02  0.29999990548E+02 0.  0.
         12    1    1    2    0    0 -0.33922586332E+02  0.20381154999E+02  0.93291257920E+01  0.40659143260E+02  0.00000000000E+00 0. -1.
         11    1    3    3    0    0  0.77429495043E+01 -0.65731902502E+01  0.62680048803E+01  0.11935157416E+02  0.51100000000E-03 0. -1.
        -11    1    3    3    0    0  0.21416892599E+02 -0.17976310635E+02 -0.88168057046E+01  0.29318374712E+02  0.51100000000E-03 0.  1.
        -12    1    3    3    0    0  0.47627442288E+01  0.41683458860E+01 -0.67803249677E+01  0.92753246133E+01  0.00000000000E+00 0.  1.
</event>
<event>
 7    1  0.2680581E-011  0.5052885E+02  0.7816164E-02  0.1300439E+00
        -11   -1    0    0    0    0  0.00000000000E+00  0.00000000000E+00  0.45593999997E+02  0.45594000000E+02  0.51100000000E-03 0.  1.
         11   -1    0    0    0    0 -0.00000000000E+00 -0.00000000000E+00 -0.45593999997E+02  0.45594000000E+02  0.51100000000E-03 0. -1.
    9900012    2    1    2    0    0 -0.33789647430E+01 -0.18547433321E+02  0.36024177864E+02  0.50528854949E+02  0.29999985103E+02 0.  0.
         12    1    1    2    0    0  0.33789647430E+01  0.18547433321E+02 -0.36024177864E+02  0.40659145051E+02  0.00000000000E+00 0. -1.
         11    1    3    3    0    0  0.44584993113E+01  0.68699217342E+01  0.68866000759E+01  0.10700434646E+02  0.51100000000E-03 0. -1.
        -11    1    3    3    0    0 -0.35061452725E+00 -0.97421014339E+01  0.11433189730E+02  0.15024955859E+02  0.51100000000E-03 0.  1.
        -12    1    3    3    0    0 -0.74868495270E+01 -0.15675253621E+02  0.17704388058E+02  0.24803464444E+02  0.00000000000E+00 0.  1.
</event>
<event>
 7    1  0.2680581E-011  0.5052885E+02  0.7816164E-02  0.1300439E+00
        -11   -1    0    0    0    0  0.00000000000E+00  0.00000000000E+00  0.45593999997E+02  0.45594000000E+02  0.51100000000E-03 0.  1.
         11   -1    0    0    0    0 -0.00000000000E+00 -0.00000000000E+00 -0.45593999997E+02  0.45594000000E+02  0.51100000000E-03 0. -1.
    9900012    2    1    2    0    0 -0.15832907503E+02 -0.37329451997E+02  0.29995387142E+01  0.50528853687E+02  0.29999981266E+02 0.  0.
         12    1    1    2    0    0  0.15832907503E+02  0.37329451997E+02 -0.29995387142E+01  0.40659146313E+02  0.00000000000E+00 0. -1.
         11    1    3    3    0    0 -0.94505856608E+01 -0.20301268644E+02  0.67514556456E+01  0.23388827065E+02  0.51100000000E-03 0. -1.
        -11    1    3    3    0    0 -0.55127268567E+01 -0.12605135448E+02 -0.11662077541E+02  0.18035621694E+02  0.51100000000E-03 0.  1.
         12    1    3    3    0    0 -0.86959498531E+00 -0.44230479050E+01  0.79101606096E+01  0.91044049272E+01  0.00000000000E+00 0. -1.
</event>
<event>
 7    1  0.2680581E-011  0.5052886E+02  0.7816164E-02  0.1300439E+00
        -11   -1    0    0    0    0  0.00000000000E+00  0.00000000000E+00  0.45593999997E+02  0.45594000000E+02  0.51100000000E-03 0.  1.
         11   -1    0    0    0    0 -0.00000000000E+00 -0.00000000000E+00 -0.45593999997E+02  0.45594000000E+02  0.51100000000E-03 0. -1.
    9900012    2    1    2    0    0 -0.51453248643E+01  0.38807087880E+02 -0.10986424770E+02  0.50528856294E+02  0.29999989192E+02 0.  0.
         12    1    1    2    0    0  0.51453248643E+01 -0.38807087880E+02  0.10986424770E+02  0.40659143706E+02  0.00000000000E+00 0. -1.
         11    1    3    3    0    0 -0.14030206214E+02  0.23659926477E+02 -0.78348146734E+01  0.28601103624E+02  0.51100000000E-03 0. -1.
        -11    1    3    3    0    0 -0.77586886807E+00  0.90903745241E+01  0.21187975327E+01  0.93662257465E+01  0.51100000000E-03 0.  1.
         12    1    3    3    0    0  0.96607502182E+01  0.60567868787E+01 -0.52704076290E+01  0.12561526923E+02  0.00000000000E+00 0. -1.
</event>
<event>
 7    1  0.2680581E-011  0.5052886E+02  0.7816164E-02  0.1300439E+00
        -11   -1    0    0    0    0  0.00000000000E+00  0.00000000000E+00  0.45593999997E+02  0.45594000000E+02  0.51100000000E-03 0. -1.
         11   -1    0    0    0    0 -0.00000000000E+00 -0.00000000000E+00 -0.45593999997E+02  0.45594000000E+02  0.51100000000E-03 0.  1.
    9900012    2    1    2    0    0  0.21216901267E+02  0.28624205145E+02 -0.19587330396E+02  0.50528861647E+02  0.30000005463E+02 0.  0.
         12    1    1    2    0    0 -0.21216901267E+02 -0.28624205145E+02  0.19587330396E+02  0.40659138353E+02  0.00000000000E+00 0. -1.
         11    1    3    3    0    0  0.16447404259E+02  0.15003408705E+01 -0.10834914100E+02  0.19752556630E+02  0.51100000000E-03 0. -1.
        -11    1    3    3    0    0  0.75855186014E+01  0.14458190709E+02 -0.66617128439E+01  0.17633995273E+02  0.51100000000E-03 0.  1.
        -12    1    3    3    0    0 -0.28160215938E+01  0.12665673566E+02 -0.20907034519E+01  0.13142309745E+02  0.00000000000E+00 0.  1.
</event>
<event>
 7    1  0.2680581E-011  0.5052886E+02  0.7816164E-02  0.1300439E+00
        -11   -1    0    0    0    0  0.00000000000E+00  0.00000000000E+00  0.45593999997E+02  0.45594000000E+02  0.51100000000E-03 0.  1.
         11   -1    0    0    0    0 -0.00000000000E+00 -0.00000000000E+00 -0.45593999997E+02  0.45594000000E+02  0.51100000000E-03 0. -1.
    9900012    2    1    2    0    0 -0.87308689380E+01 -0.31751309426E+02  0.23849363489E+02  0.50528857590E+02  0.29999993131E+02 0.  0.
         12    1    1    2    0    0  0.87308689380E+01  0.31751309426E+02 -0.23849363489E+02  0.40659142410E+02  0.00000000000E+00 0. -1.
         11    1    3    3    0    0 -0.22044172597E+01 -0.14684145952E+02 -0.17615107371E+01  0.14952809707E+02  0.51100000000E-03 0. -1.
        -11    1    3    3    0    0 -0.52511092801E+01 -0.16199354589E+02  0.97149409564E+01  0.19605440975E+02  0.51100000000E-03 0.  1.
         12    1    3    3    0    0 -0.12753423983E+01 -0.86780888420E+00  0.15895933270E+02  0.15970606908E+02  0.00000000000E+00 0. -1.
</event>
<event>
 7    1  0.2680581E-011  0.5052892E+02  0.7816164E-02  0.1300439E+00
        -11   -1    0    0    0    0  0.00000000000E+00  0.00000000000E+00  0.45593999997E+02  0.45594000000E+02  0.51100000000E-03 0.  1.
         11   -1    0    0    0    0 -0.00000000000E+00 -0.00000000000E+00 -0.45593999997E+02  0.45594000000E+02  0.51100000000E-03 0. -1.
    9900012    2    1    2    0    0  0.75160318577E+01 -0.17465283520E+02  0.35939311564E+02  0.50528917632E+02  0.30000175632E+02 0.  0.
         12    1    1    2    0    0 -0.75160318577E+01  0.17465283520E+02 -0.35939311564E+02  0.40659082368E+02  0.00000000000E+00 0. -1.
         11    1    3    3    0    0 -0.28163446298E+01  0.60448315555E+01  0.32493807461E+01  0.74182384096E+01  0.51100000000E-03 0. -1.
        -11    1    3    3    0    0  0.67075519612E+01 -0.47442516637E+01  0.14821355408E+02  0.16946142734E+02  0.51100000000E-03 0.  1.
        -12    1    3    3    0    0  0.36248245263E+01 -0.18765863412E+02  0.17868575410E+02  0.26164536488E+02  0.00000000000E+00 0.  1.
</event>
<event>
 7    1  0.2680581E-011  0.5052886E+02  0.7816164E-02  0.1300439E+00
        -11   -1    0    0    0    0  0.00000000000E+00  0.00000000000E+00  0.45593999997E+02  0.45594000000E+02  0.51100000000E-03 0.  1.
         11   -1    0    0    0    0 -0.00000000000E+00 -0.00000000000E+00 -0.45593999997E+02  0.45594000000E+02  0.51100000000E-03 0. -1.
    9900012    2    1    2    0    0  0.29294811400E+01 -0.10770709498E+02  0.39097006480E+02  0.50528856397E+02  0.29999989504E+02 0.  0.
         12    1    1    2    0    0 -0.29294811400E+01  0.10770709498E+02 -0.39097006480E+02  0.40659143603E+02  0.00000000000E+00 0. -1.
         11    1    3    3    0    0  0.78082981697E+01 -0.69908806819E+01  0.14088132389E+02  0.17558969431E+02  0.51100000000E-03 0. -1.
        -11    1    3    3    0    0  0.26009180849E+01  0.21422178663E+01  0.22967867886E+02  0.23213720679E+02  0.51100000000E-03 0.  1.
        -12    1    3    3    0    0 -0.74797351146E+01 -0.59220466821E+01  0.20410062054E+01  0.97561662870E+01  0.00000000000E+00 0.  1.
</event>
<event>
 7    1  0.2680581E-011  0.5052887E+02  0.7816164E-02  0.1300439E+00
        -11   -1    0    0    0    0  0.00000000000E+00  0.00000000000E+00  0.45593999997E+02  0.45594000000E+02  0.51100000000E-03 0.  1.
         11   -1    0    0    0    0 -0.00000000000E+00 -0.00000000000E+00 -0.45593999997E+02  0.45594000000E+02  0.51100000000E-03 0. -1.
    9900012    2    1    2    0    0 -0.17707840236E+01 -0.15913723342E+02  0.37373553652E+02  0.50528870899E+02  0.30000033586E+02 0.  0.
         12    1    1    2    0    0  0.17707840236E+01  0.15913723342E+02 -0.37373553652E+02  0.40659129101E+02  0.00000000000E+00 0. -1.
         11    1    3    3    0    0 -0.29836599820E+01 -0.10646145007E+02  0.26573869418E+02  0.28782167509E+02  0.51100000000E-03 0.  1.
        -11    1    3    3    0    0 -0.24026131529E+01 -0.11173092662E+02  0.91203503693E+01  0.14621605271E+02  0.51100000000E-03 0. -1.
         12    1    3    3    0    0  0.36154891113E+01  0.59055143269E+01  0.16793338645E+01  0.71250981191E+01  0.00000000000E+00 0. -1.
</event>
<event>
 7    1  0.2680581E-011  0.5052886E+02  0.7816164E-02  0.1300439E+00
        -11   -1    0    0    0    0  0.00000000000E+00  0.00000000000E+00  0.45593999997E+02  0.45594000000E+02  0.51100000000E-03 0.  1.
         11   -1    0    0    0    0 -0.00000000000E+00 -0.00000000000E+00 -0.45593999997E+02  0.45594000000E+02  0.51100000000E-03 0. -1.
    9900012    2    1    2    0    0 -0.10385545995E+02  0.13786593774E+02  0.36813529484E+02  0.50528859741E+02  0.29999999668E+02 0.  0.
         12    1    1    2    0    0  0.10385545995E+02 -0.13786593774E+02 -0.36813529484E+02  0.40659140259E+02  0.00000000000E+00 0. -1.
         11    1    3    3    0    0 -0.65109692065E+00  0.18679549740E+01  0.17342199817E+00  0.19857639425E+01  0.51100000000E-03 0. -1.
        -11    1    3    3    0    0 -0.14593188466E+02  0.18049195107E+02  0.22188426547E+02  0.32110136507E+02  0.51100000000E-03 0.  1.
        -12    1    3    3    0    0  0.48587393916E+01 -0.61305563062E+01  0.14451680939E+02  0.16432959291E+02  0.00000000000E+00 0.  1.
</event>
<event>
 7    1  0.2680581E-011  0.5052886E+02  0.7816164E-02  0.1300439E+00
        -11   -1    0    0    0    0  0.00000000000E+00  0.00000000000E+00  0.45593999997E+02  0.45594000000E+02  0.51100000000E-03 0.  1.
         11   -1    0    0    0    0 -0.00000000000E+00 -0.00000000000E+00 -0.45593999997E+02  0.45594000000E+02  0.51100000000E-03 0. -1.
    9900012    2    1    2    0    0  0.19795468384E+02  0.35495923501E+02  0.11594097096E+01  0.50528863455E+02  0.30000010958E+02 0.  0.
         12    1    1    2    0    0 -0.19795468384E+02 -0.35495923501E+02 -0.11594097096E+01  0.40659136545E+02  0.00000000000E+00 0. -1.
         11    1    3    3    0    0 -0.48147989350E+01 -0.15089417757E+01 -0.43481630475E+00  0.50644110760E+01  0.51100000000E-03 0. -1.
        -11    1    3    3    0    0  0.17437178113E+02  0.17946338713E+02 -0.18462655028E+00  0.25023196058E+02  0.51100000000E-03 0.  1.
        -12    1    3    3    0    0  0.71730892059E+01  0.19058526563E+02  0.17788525646E+01  0.20441256321E+02  0.00000000000E+00 0.  1.
</event>
<event>
 7    1  0.2680581E-011  0.5052885E+02  0.7816164E-02  0.1300439E+00
        -11   -1    0    0    0    0  0.00000000000E+00  0.00000000000E+00  0.45593999997E+02  0.45594000000E+02  0.51100000000E-03 0. -1.
         11   -1    0    0    0    0 -0.00000000000E+00 -0.00000000000E+00 -0.45593999997E+02  0.45594000000E+02  0.51100000000E-03 0.  1.
    9900012    2    1    2    0    0 -0.20202729720E+02 -0.34442603033E+02  0.76630928808E+01  0.50528853621E+02  0.29999981065E+02 0.  0.
         12    1    1    2    0    0  0.20202729720E+02  0.34442603033E+02 -0.76630928808E+01  0.40659146379E+02  0.00000000000E+00 0. -1.
         11    1    3    3    0    0  0.16861476444E+01 -0.67509361104E+01  0.45574420282E+01  0.83179631128E+01  0.51100000000E-03 0. -1.
        -11    1    3    3    0    0 -0.14819903345E+02 -0.30475482047E+02 -0.29033683384E+00  0.33889066628E+02  0.51100000000E-03 0.  1.
         12    1    3    3    0    0 -0.70689740188E+01  0.27838151246E+01  0.33959876864E+01  0.83218238802E+01  0.00000000000E+00 0. -1.
</event>
<event>
 7    1  0.2680581E-011  0.5052888E+02  0.7816164E-02  0.1300439E+00
        -11   -1    0    0    0    0  0.00000000000E+00  0.00000000000E+00  0.45593999997E+02  0.45594000000E+02  0.51100000000E-03 0.  1.
         11   -1    0    0    0    0 -0.00000000000E+00 -0.00000000000E+00 -0.45593999997E+02  0.45594000000E+02  0.51100000000E-03 0. -1.
    9900012    2    1    2    0    0 -0.34684781069E+02 -0.17592220093E+02  0.11859326480E+02  0.50528882079E+02  0.30000067566E+02 0.  0.
         12    1    1    2    0    0  0.34684781069E+02  0.17592220093E+02 -0.11859326480E+02  0.40659117921E+02  0.00000000000E+00 0. -1.
         11    1    3    3    0    0  0.33795408669E+01 -0.37908969434E+01  0.27431262566E+01  0.57720826421E+01  0.51100000000E-03 0. -1.
        -11    1    3    3    0    0 -0.11111036500E+02 -0.11101758733E+02 -0.12418273423E+01  0.15755834300E+02  0.51100000000E-03 0.  1.
        -12    1    3    3    0    0 -0.26953285436E+02 -0.26995644166E+01  0.10358027565E+02  0.29000965137E+02  0.00000000000E+00 0.  1.
</event>
<event>
 7    1  0.2680581E-011  0.5052886E+02  0.7816164E-02  0.1300439E+00
        -11   -1    0    0    0    0  0.00000000000E+00  0.00000000000E+00  0.45593999997E+02  0.45594000000E+02  0.51100000000E-03 0.  1.
         11   -1    0    0    0    0 -0.00000000000E+00 -0.00000000000E+00 -0.45593999997E+02  0.45594000000E+02  0.51100000000E-03 0. -1.
    9900012    2    1    2    0    0  0.11917119311E+01  0.39860982944E+02 -0.79276240374E+01  0.50528863740E+02  0.30000011823E+02 0.  0.
         12    1    1    2    0    0 -0.11917119311E+01 -0.39860982944E+02  0.79276240374E+01  0.40659136260E+02  0.00000000000E+00 0. -1.
         11    1    3    3    0    0  0.41796803088E+01  0.17058715809E+02  0.36065543794E+01  0.17929772650E+02  0.51100000000E-03 0. -1.
        -11    1    3    3    0    0  0.23423174627E+01 -0.22702077831E+01  0.17786066770E+01  0.37153379991E+01  0.51100000000E-03 0.  1.
         12    1    3    3    0    0 -0.53302858404E+01  0.25072474918E+02 -0.13312785094E+02  0.28883753091E+02  0.00000000000E+00 0. -1.
</event>
<event>
 7    1  0.2680581E-011  0.5052884E+02  0.7816164E-02  0.1300439E+00
        -11   -1    0    0    0    0  0.00000000000E+00  0.00000000000E+00  0.45593999997E+02  0.45594000000E+02  0.51100000000E-03 0. -1.
         11   -1    0    0    0    0 -0.00000000000E+00 -0.00000000000E+00 -0.45593999997E+02  0.45594000000E+02  0.51100000000E-03 0.  1.
    9900012    2    1    2    0    0 -0.22651973467E+02  0.18828583325E+02 -0.28027478982E+02  0.50528843220E+02  0.29999949451E+02 0.  0.
         12    1    1    2    0    0  0.22651973467E+02 -0.18828583325E+02  0.28027478982E+02  0.40659156780E+02  0.00000000000E+00 0. -1.
         11    1    3    3    0    0 -0.75383738654E+01 -0.40328977287E+01 -0.82718012232E+01  0.11895967399E+02  0.51100000000E-03 0. -1.
        -11    1    3    3    0    0 -0.34769063553E+01  0.16703717575E+02 -0.18866850359E+02  0.25437395727E+02  0.51100000000E-03 0.  1.
         12    1    3    3    0    0 -0.11636693246E+02  0.61577634783E+01 -0.88882740021E+00  0.13195480094E+02  0.00000000000E+00 0. -1.
</event>
<event>
 7    1  0.2680581E-011  0.5052888E+02  0.7816164E-02  0.1300439E+00
        -11   -1    0    0    0    0  0.00000000000E+00  0.00000000000E+00  0.45593999997E+02  0.45594000000E+02  0.51100000000E-03 0.  1.
         11   -1    0    0    0    0 -0.00000000000E+00 -0.00000000000E+00 -0.45593999997E+02  0.45594000000E+02  0.51100000000E-03 0. -1.
    9900012    2    1    2    0    0 -0.36202828202E+02 -0.18450009877E+02 -0.14548258164E+01  0.50528878607E+02  0.30000057015E+02 0.  0.
         12    1    1    2    0    0  0.36202828202E+02  0.18450009877E+02  0.14548258164E+01  0.40659121393E+02  0.00000000000E+00 0. -1.
         11    1    3    3    0    0 -0.14928873706E+02 -0.44550947138E+00 -0.25750588642E+01  0.15155879296E+02  0.51100000000E-03 0. -1.
        -11    1    3    3    0    0 -0.15978193135E+02 -0.30384821781E+01  0.79348043677E+01  0.18096854711E+02  0.51100000000E-03 0.  1.
         12    1    3    3    0    0 -0.52957613604E+01 -0.14966018227E+02 -0.68145713199E+01  0.17276144600E+02  0.00000000000E+00 0. -1.
</event>
<event>
 7    1  0.2680581E-011  0.5052887E+02  0.7816164E-02  0.1300439E+00
        -11   -1    0    0    0    0  0.00000000000E+00  0.00000000000E+00  0.45593999997E+02  0.45594000000E+02  0.51100000000E-03 0.  1.
         11   -1    0    0    0    0 -0.00000000000E+00 -0.00000000000E+00 -0.45593999997E+02  0.45594000000E+02  0.51100000000E-03 0. -1.
    9900012    2    1    2    0    0  0.70010880921E+01 -0.14883179191E+02  0.37183875488E+02  0.50528869985E+02  0.30000030805E+02 0.  0.
         12    1    1    2    0    0 -0.70010880921E+01  0.14883179191E+02 -0.37183875488E+02  0.40659130015E+02  0.00000000000E+00 0. -1.
         11    1    3    3    0    0 -0.24099708122E+01 -0.89399883285E+01  0.80421006542E+01  0.12264042312E+02  0.51100000000E-03 0. -1.
        -11    1    3    3    0    0 -0.46764107776E+01  0.36966593691E+01  0.21670165815E+01  0.63427178227E+01  0.51100000000E-03 0.  1.
        -12    1    3    3    0    0  0.14087469682E+02 -0.96398502319E+01  0.26974758252E+02  0.31922109850E+02  0.00000000000E+00 0.  1.
</event>
<event>
 7    1  0.2680581E-011  0.5052887E+02  0.7816164E-02  0.1300439E+00
        -11   -1    0    0    0    0  0.00000000000E+00  0.00000000000E+00  0.45593999997E+02  0.45594000000E+02  0.51100000000E-03 0. -1.
         11   -1    0    0    0    0 -0.00000000000E+00 -0.00000000000E+00 -0.45593999997E+02  0.45594000000E+02  0.51100000000E-03 0.  1.
    9900012    2    1    2    0    0  0.22366936328E+02  0.19947422391E+02 -0.27476989830E+02  0.50528874691E+02  0.30000045111E+02 0.  0.
         12    1    1    2    0    0 -0.22366936328E+02 -0.19947422391E+02  0.27476989830E+02  0.40659125309E+02  0.00000000000E+00 0. -1.
         11    1    3    3    0    0  0.36311257570E+01  0.11163818073E+01 -0.13006836280E+02  0.13550246229E+02  0.51100000000E-03 0. -1.
        -11    1    3    3    0    0  0.17148448978E+02  0.17736109400E+02 -0.19593322369E+02  0.31504557776E+02  0.51100000000E-03 0.  1.
         12    1    3    3    0    0  0.15873615931E+01  0.10949311845E+01  0.51231688184E+01  0.54740706853E+01  0.00000000000E+00 0. -1.
</event>
<event>
 7    1  0.2680581E-011  0.5052886E+02  0.7816164E-02  0.1300439E+00
        -11   -1    0    0    0    0  0.00000000000E+00  0.00000000000E+00  0.45593999997E+02  0.45594000000E+02  0.51100000000E-03 0.  1.
         11   -1    0    0    0    0 -0.00000000000E+00 -0.00000000000E+00 -0.45593999997E+02  0.45594000000E+02  0.51100000000E-03 0. -1.
    9900012    2    1    2    0    0  0.17815283279E+02 -0.28265161881E+02  0.23170279700E+02  0.50528861349E+02  0.30000004558E+02 0.  0.
         12    1    1    2    0    0 -0.17815283279E+02  0.28265161881E+02 -0.23170279700E+02  0.40659138651E+02  0.00000000000E+00 0. -1.
         11    1    3    3    0    0 -0.32471533950E+01 -0.89509853265E+00  0.27415062857E+01  0.43429325955E+01  0.51100000000E-03 0. -1.
        -11    1    3    3    0    0  0.23408584956E+02 -0.20233792834E+02  0.22657656614E+02  0.38350197204E+02  0.51100000000E-03 0.  1.
         12    1    3    3    0    0 -0.23461482817E+01 -0.71362705142E+01 -0.22288831996E+01  0.78357315503E+01  0.00000000000E+00 0. -1.
</event>
<event>
 7    1  0.2680581E-011  0.5052886E+02  0.7816164E-02  0.1300439E+00
        -11   -1    0    0    0    0  0.00000000000E+00  0.00000000000E+00  0.45593999997E+02  0.45594000000E+02  0.51100000000E-03 0.  1.
         11   -1    0    0    0    0 -0.00000000000E+00 -0.00000000000E+00 -0.45593999997E+02  0.45594000000E+02  0.51100000000E-03 0. -1.
    9900012    2    1    2    0    0 -0.11962798394E+00 -0.73308292975E+01  0.39992627647E+02  0.50528860373E+02  0.30000001591E+02 0.  0.
         12    1    1    2    0    0  0.11962798394E+00  0.73308292975E+01 -0.39992627647E+02  0.40659139627E+02  0.00000000000E+00 0. -1.
         11    1    3    3    0    0  0.30091334040E+01 -0.56006890482E+01  0.34070896407E+02  0.34659033222E+02  0.51100000000E-03 0. -1.
        -11    1    3    3    0    0 -0.47265552280E+01  0.22049606643E+01  0.91520263209E+01  0.10533838896E+02  0.51100000000E-03 0.  1.
         12    1    3    3    0    0  0.15977938400E+01 -0.39351009136E+01 -0.32302950802E+01  0.53359882553E+01  0.00000000000E+00 0. -1.
</event>
<event>
 7    1  0.2680581E-011  0.5052887E+02  0.7816164E-02  0.1300439E+00
        -11   -1    0    0    0    0  0.00000000000E+00  0.00000000000E+00  0.45593999997E+02  0.45594000000E+02  0.51100000000E-03 0.  1.
         11   -1    0    0    0    0 -0.00000000000E+00 -0.00000000000E+00 -0.45593999997E+02  0.45594000000E+02  0.51100000000E-03 0. -1.
    9900012    2    1    2    0    0  0.31418346037E+02 -0.12276764470E+02  0.22700959057E+02  0.50528868729E+02  0.30000026989E+02 0.  0.
         12    1    1    2    0    0 -0.31418346037E+02  0.12276764470E+02 -0.22700959057E+02  0.40659131271E+02  0.00000000000E+00 0. -1.
         11    1    3    3    0    0 -0.71375328194E+00 -0.31709956474E+01  0.10565219305E+02  0.11053891458E+02  0.51100000000E-03 0. -1.
        -11    1    3    3    0    0  0.28859926580E+00 -0.73358557308E+00 -0.30974336006E+01  0.31961746668E+01  0.51100000000E-03 0.  1.
        -12    1    3    3    0    0  0.31843500053E+02 -0.83721832500E+01  0.15233173353E+02  0.36278802604E+02  0.00000000000E+00 0.  1.
</event>
<event>
 7    1  0.2680581E-011  0.5052886E+02  0.7816164E-02  0.1300439E+00
        -11   -1    0    0    0    0  0.00000000000E+00  0.00000000000E+00  0.45593999997E+02  0.45594000000E+02  0.51100000000E-03 0.  1.
         11   -1    0    0    0    0 -0.00000000000E+00 -0.00000000000E+00 -0.45593999997E+02  0.45594000000E+02  0.51100000000E-03 0. -1.
    9900012    2    1    2    0    0 -0.19952899083E+02 -0.28897630329E+02  0.20493278887E+02  0.50528859576E+02  0.29999999168E+02 0.  0.
         12    1    1    2    0    0  0.19952899083E+02  0.28897630329E+02 -0.20493278887E+02  0.40659140424E+02  0.00000000000E+00 0. -1.
         11    1    3    3    0    0 -0.37674229945E+01 -0.39123332208E+01  0.15105147530E+02  0.16051956561E+02  0.51100000000E-03 0. -1.
        -11    1    3    3    0    0  0.21226052925E+00 -0.11498524254E+02  0.65109957259E+01  0.13215679330E+02  0.51100000000E-03 0.  1.
        -12    1    3    3    0    0 -0.16397736618E+02 -0.13486772854E+02 -0.11228643693E+01  0.21261223685E+02  0.00000000000E+00 0.  1.
</event>
<event>
 7    1  0.2680581E-011  0.5052894E+02  0.7816164E-02  0.1300439E+00
        -11   -1    0    0    0    0  0.00000000000E+00  0.00000000000E+00  0.45593999997E+02  0.45594000000E+02  0.51100000000E-03 0.  1.
         11   -1    0    0    0    0 -0.00000000000E+00 -0.00000000000E+00 -0.45593999997E+02  0.45594000000E+02  0.51100000000E-03 0. -1.
    9900012    2    1    2    0    0  0.23875973975E+02 -0.25159198173E+02  0.21215834895E+02  0.50528941523E+02  0.30000248252E+02 0.  0.
         12    1    1    2    0    0 -0.23875973975E+02  0.25159198173E+02 -0.21215834895E+02  0.40659058477E+02  0.00000000000E+00 0. -1.
         11    1    3    3    0    0  0.15347212025E+02 -0.71045528250E+01  0.13020719755E+01  0.16961927352E+02  0.51100000000E-03 0. -1.
        -11    1    3    3    0    0  0.72814177350E+01 -0.34866483741E+01 -0.90834005470E+00  0.81240902895E+01  0.51100000000E-03 0.  1.
        -12    1    3    3    0    0  0.12473442151E+01 -0.14567996973E+02  0.20822102974E+02  0.25442923882E+02  0.00000000000E+00 0.  1.
</event>
<event>
 7    1  0.2680581E-011  0.5052886E+02  0.7816164E-02  0.1300439E+00
        -11   -1    0    0    0    0  0.00000000000E+00  0.00000000000E+00  0.45593999997E+02  0.45594000000E+02  0.51100000000E-03 0.  1.
         11   -1    0    0    0    0 -0.00000000000E+00 -0.00000000000E+00 -0.45593999997E+02  0.45594000000E+02  0.51100000000E-03 0. -1.
    9900012    2    1    2    0    0  0.39377878026E+02 -0.30272398333E+00  0.10122072712E+02  0.50528864794E+02  0.30000015029E+02 0.  0.
         12    1    1    2    0    0 -0.39377878026E+02  0.30272398333E+00 -0.10122072712E+02  0.40659135206E+02  0.00000000000E+00 0. -1.
         11    1    3    3    0    0  0.10312858845E+02 -0.67464567499E+01  0.82202861017E+01  0.14813603211E+02  0.51100000000E-03 0. -1.
        -11    1    3    3    0    0  0.26521686607E+02 -0.17784273969E+01  0.39373698148E+01  0.26871277339E+02  0.51100000000E-03 0.  1.
         12    1    3    3    0    0  0.25433325740E+01  0.82221601635E+01 -0.20355832041E+01  0.88439842445E+01  0.00000000000E+00 0. -1.
</event>
<event>
 7    1  0.2680581E-011  0.5052885E+02  0.7816164E-02  0.1300439E+00
        -11   -1    0    0    0    0  0.00000000000E+00  0.00000000000E+00  0.45593999997E+02  0.45594000000E+02  0.51100000000E-03 0.  1.
         11   -1    0    0    0    0 -0.00000000000E+00 -0.00000000000E+00 -0.45593999997E+02  0.45594000000E+02  0.51100000000E-03 0. -1.
    9900012    2    1    2    0    0 -0.35882964365E+02  0.12770431342E+02  0.14230076235E+02  0.50528854437E+02  0.29999983547E+02 0.  0.
         12    1    1    2    0    0  0.35882964365E+02 -0.12770431342E+02 -0.14230076235E+02  0.40659145563E+02  0.00000000000E+00 0. -1.
         11    1    3    3    0    0 -0.88784406005E+01  0.10676083700E+02 -0.24892261844E+01  0.14106796870E+02  0.51100000000E-03 0. -1.
        -11    1    3    3    0    0 -0.18380202282E+02  0.96983471659E+01  0.95411572844E+01  0.22867519679E+02  0.51100000000E-03 0.  1.
         12    1    3    3    0    0 -0.86243214825E+01 -0.76039995239E+01  0.71781451354E+01  0.13554537889E+02  0.00000000000E+00 0. -1.
</event>
<event>
 7    1  0.2680581E-011  0.5052884E+02  0.7816164E-02  0.1300439E+00
        -11   -1    0    0    0    0  0.00000000000E+00  0.00000000000E+00  0.45593999997E+02  0.45594000000E+02  0.51100000000E-03 0.  1.
         11   -1    0    0    0    0 -0.00000000000E+00 -0.00000000000E+00 -0.45593999997E+02  0.45594000000E+02  0.51100000000E-03 0. -1.
    9900012    2    1    2    0    0  0.21550656136E+02  0.25728144063E+02  0.22952109481E+02  0.50528837362E+02  0.29999931646E+02 0.  0.
         12    1    1    2    0    0 -0.21550656136E+02 -0.25728144063E+02 -0.22952109481E+02  0.40659162638E+02  0.00000000000E+00 0. -1.
         11    1    3    3    0    0  0.11988673347E+02  0.14953668957E+02  0.23101627687E+02  0.30017090232E+02  0.51100000000E-03 0. -1.
        -11    1    3    3    0    0  0.35207127451E+01  0.11265668364E+02  0.47450040166E+01  0.12721075635E+02  0.51100000000E-03 0.  1.
        -12    1    3    3    0    0  0.60412700441E+01 -0.49119325907E+00 -0.48945222231E+01  0.77906714959E+01  0.00000000000E+00 0.  1.
</event>
<event>
 7    1  0.2680581E-011  0.5052885E+02  0.7816164E-02  0.1300439E+00
        -11   -1    0    0    0    0  0.00000000000E+00  0.00000000000E+00  0.45593999997E+02  0.45594000000E+02  0.51100000000E-03 0.  1.
         11   -1    0    0    0    0 -0.00000000000E+00 -0.00000000000E+00 -0.45593999997E+02  0.45594000000E+02  0.51100000000E-03 0. -1.
    9900012    2    1    2    0    0  0.13093817890E+02  0.19292911773E+02  0.33309181982E+02  0.50528854462E+02  0.29999983622E+02 0.  0.
         12    1    1    2    0    0 -0.13093817890E+02 -0.19292911773E+02 -0.33309181982E+02  0.40659145538E+02  0.00000000000E+00 0. -1.
         11    1    3    3    0    0 -0.17953505751E+01 -0.23176137845E+01  0.62415001916E+01  0.68957191245E+01  0.51100000000E-03 0.  1.
        -11    1    3    3    0    0  0.27409750824E+01  0.96374420294E+00 -0.36586123698E+01  0.46719580503E+01  0.51100000000E-03 0. -1.
        -12    1    3    3    0    0  0.12148193383E+02  0.20646781354E+02  0.30726294160E+02  0.38961177287E+02  0.00000000000E+00 0.  1.
</event>
<event>
 7    1  0.2680581E-011  0.5052886E+02  0.7816164E-02  0.1300439E+00
        -11   -1    0    0    0    0  0.00000000000E+00  0.00000000000E+00  0.45593999997E+02  0.45594000000E+02  0.51100000000E-03 0. -1.
         11   -1    0    0    0    0 -0.00000000000E+00 -0.00000000000E+00 -0.45593999997E+02  0.45594000000E+02  0.51100000000E-03 0.  1.
    9900012    2    1    2    0    0 -0.27832970648E+02  0.18707533871E+02 -0.22989548341E+02  0.50528863123E+02  0.30000009950E+02 0.  0.
         12    1    1    2    0    0  0.27832970648E+02 -0.18707533871E+02  0.22989548341E+02  0.40659136877E+02  0.00000000000E+00 0. -1.
         11    1    3    3    0    0 -0.84054877557E+01  0.89986582028E+01  0.52020357016E+01  0.13367469827E+02  0.51100000000E-03 0. -1.
        -11    1    3    3    0    0 -0.20208266619E+01  0.59715938429E+01 -0.59156434111E+01  0.86451437611E+01  0.51100000000E-03 0.  1.
         12    1    3    3    0    0 -0.17406656231E+02  0.37372818251E+01 -0.22275940631E+02  0.28516249536E+02  0.00000000000E+00 0. -1.
</event>
<event>
 7    1  0.2680581E-011  0.5052882E+02  0.7816164E-02  0.1300439E+00
        -11   -1    0    0    0    0  0.00000000000E+00  0.00000000000E+00  0.45593999997E+02  0.45594000000E+02  0.51100000000E-03 0.  1.
         11   -1    0    0    0    0 -0.00000000000E+00 -0.00000000000E+00 -0.45593999997E+02  0.45594000000E+02  0.51100000000E-03 0. -1.
    9900012    2    1    2    0    0 -0.20197016496E+02  0.33676415998E+02  0.10542707568E+02  0.50528817118E+02  0.29999870110E+02 0.  0.
         12    1    1    2    0    0  0.20197016496E+02 -0.33676415998E+02 -0.10542707568E+02  0.40659182882E+02  0.00000000000E+00 0. -1.
         11    1    3    3    0    0 -0.15922722794E+01  0.82075647177E+01 -0.65424640486E+01  0.10616180372E+02  0.51100000000E-03 0. -1.
        -11    1    3    3    0    0 -0.18803471203E+01 -0.24937892348E+01  0.17228306118E-02  0.31232504333E+01  0.51100000000E-03 0.  1.
         12    1    3    3    0    0 -0.16724397097E+02  0.27962640515E+02  0.17083448786E+02  0.36789386312E+02  0.00000000000E+00 0. -1.
</event>
<event>
 7    1  0.2680581E-011  0.5052887E+02  0.7816164E-02  0.1300439E+00
        -11   -1    0    0    0    0  0.00000000000E+00  0.00000000000E+00  0.45593999997E+02  0.45594000000E+02  0.51100000000E-03 0.  1.
         11   -1    0    0    0    0 -0.00000000000E+00 -0.00000000000E+00 -0.45593999997E+02  0.45594000000E+02  0.51100000000E-03 0. -1.
    9900012    2    1    2    0    0  0.40295617989E+02 -0.34278330159E+01  0.42044842380E+01  0.50528873644E+02  0.30000041930E+02 0.  0.
         12    1    1    2    0    0 -0.40295617989E+02  0.34278330159E+01 -0.42044842380E+01  0.40659126356E+02  0.00000000000E+00 0. -1.
         11    1    3    3    0    0  0.23525168265E+02  0.63576269905E+00  0.14680047391E+02  0.27737006467E+02  0.51100000000E-03 0.  1.
        -11    1    3    3    0    0  0.15499125713E+01 -0.45813304096E+01 -0.12848092828E+01  0.50041535203E+01  0.51100000000E-03 0. -1.
        -12    1    3    3    0    0  0.15220537153E+02  0.51773469460E+00 -0.91907538703E+01  0.17787713657E+02  0.00000000000E+00 0.  1.
</event>
<event>
 7    1  0.2680581E-011  0.5052886E+02  0.7816164E-02  0.1300439E+00
        -11   -1    0    0    0    0  0.00000000000E+00  0.00000000000E+00  0.45593999997E+02  0.45594000000E+02  0.51100000000E-03 0.  1.
         11   -1    0    0    0    0 -0.00000000000E+00 -0.00000000000E+00 -0.45593999997E+02  0.45594000000E+02  0.51100000000E-03 0. -1.
    9900012    2    1    2    0    0  0.38669430265E+02  0.12110586519E+02  0.33428295379E+01  0.50528860164E+02  0.30000000955E+02 0.  0.
         12    1    1    2    0    0 -0.38669430265E+02 -0.12110586519E+02 -0.33428295379E+01  0.40659139836E+02  0.00000000000E+00 0. -1.
         11    1    3    3    0    0  0.33819041156E+01  0.15795401228E+01  0.32067775747E+01  0.49209394551E+01  0.51100000000E-03 0. -1.
        -11    1    3    3    0    0  0.20533767993E+02 -0.70756879457E+01 -0.44842917024E+01  0.22176786518E+02  0.51100000000E-03 0.  1.
        -12    1    3    3    0    0  0.14753758156E+02  0.17606734342E+02  0.46203436656E+01  0.23431134192E+02  0.00000000000E+00 0.  1.
</event>
<event>
 7    1  0.2680581E-011  0.5052889E+02  0.7816164E-02  0.1300439E+00
        -11   -1    0    0    0    0  0.00000000000E+00  0.00000000000E+00  0.45593999997E+02  0.45594000000E+02  0.51100000000E-03 0. -1.
         11   -1    0    0    0    0 -0.00000000000E+00 -0.00000000000E+00 -0.45593999997E+02  0.45594000000E+02  0.51100000000E-03 0.  1.
    9900012    2    1    2    0    0  0.37204913444E+02 -0.51325001437E+01  0.15576116674E+02  0.50528885982E+02  0.30000079430E+02 0.  0.
         12    1    1    2    0    0 -0.37204913444E+02  0.51325001437E+01 -0.15576116674E+02  0.40659114018E+02  0.00000000000E+00 0. -1.
         11    1    3    3    0    0  0.11817454775E+02  0.35770753101E+01  0.12987083602E+02  0.17919599490E+02  0.51100000000E-03 0. -1.
        -11    1    3    3    0    0  0.63775961896E+01 -0.82847094035E+01  0.76236041741E+01  0.12939454545E+02  0.51100000000E-03 0.  1.
        -12    1    3    3    0    0  0.19009862479E+02 -0.42486605031E+00 -0.50345711015E+01  0.19669831947E+02  0.00000000000E+00 0.  1.
</event>
<event>
 7    1  0.2680581E-011  0.5052887E+02  0.7816164E-02  0.1300439E+00
        -11   -1    0    0    0    0  0.00000000000E+00  0.00000000000E+00  0.45593999997E+02  0.45594000000E+02  0.51100000000E-03 0. -1.
         11   -1    0    0    0    0 -0.00000000000E+00 -0.00000000000E+00 -0.45593999997E+02  0.45594000000E+02  0.51100000000E-03 0.  1.
    9900012    2    1    2    0    0 -0.12893572568E+02  0.35486520626E+02  0.15087335935E+02  0.50528867382E+02  0.30000022893E+02 0.  0.
         12    1    1    2    0    0  0.12893572568E+02 -0.35486520626E+02 -0.15087335935E+02  0.40659132618E+02  0.00000000000E+00 0. -1.
         11    1    3    3    0    0 -0.74984410473E+01  0.24700808823E+01 -0.15564858020E+01  0.80467736403E+01  0.51100000000E-03 0. -1.
        -11    1    3    3    0    0 -0.11776496663E+02  0.16322320467E+02  0.38234073291E+01  0.20487129202E+02  0.51100000000E-03 0.  1.
        -12    1    3    3    0    0  0.63813651422E+01  0.16694119277E+02  0.12820414408E+02  0.21994964539E+02  0.00000000000E+00 0.  1.
</event>
<event>
 7    1  0.2680581E-011  0.5052886E+02  0.7816164E-02  0.1300439E+00
        -11   -1    0    0    0    0  0.00000000000E+00  0.00000000000E+00  0.45593999997E+02  0.45594000000E+02  0.51100000000E-03 0. -1.
         11   -1    0    0    0    0 -0.00000000000E+00 -0.00000000000E+00 -0.45593999997E+02  0.45594000000E+02  0.51100000000E-03 0.  1.
    9900012    2    1    2    0    0 -0.90007664005E+00  0.40358046811E+02 -0.48562572367E+01  0.50528864314E+02  0.30000013569E+02 0.  0.
         12    1    1    2    0    0  0.90007664005E+00 -0.40358046811E+02  0.48562572367E+01  0.40659135686E+02  0.00000000000E+00 0. -1.
         11    1    3    3    0    0 -0.38253709261E+01  0.10778850668E+02 -0.97526933947E+01  0.15031038326E+02  0.51100000000E-03 0. -1.
        -11    1    3    3    0    0  0.61775381618E+01  0.18378131169E+02 -0.51972116326E+01  0.20073083769E+02  0.51100000000E-03 0.  1.
         12    1    3    3    0    0 -0.32522438757E+01  0.11201064975E+02  0.10093647791E+02  0.15424742219E+02  0.00000000000E+00 0. -1.
</event>
<event>
 7    1  0.2680581E-011  0.5052886E+02  0.7816164E-02  0.1300439E+00
        -11   -1    0    0    0    0  0.00000000000E+00  0.00000000000E+00  0.45593999997E+02  0.45594000000E+02  0.51100000000E-03 0. -1.
         11   -1    0    0    0    0 -0.00000000000E+00 -0.00000000000E+00 -0.45593999997E+02  0.45594000000E+02  0.51100000000E-03 0.  1.
    9900012    2    1    2    0    0 -0.12046808274E+01  0.35159020375E+02 -0.20385229649E+02  0.50528861329E+02  0.30000004497E+02 0.  0.
         12    1    1    2    0    0  0.12046808274E+01 -0.35159020375E+02  0.20385229649E+02  0.40659138671E+02  0.00000000000E+00 0. -1.
         11    1    3    3    0    0 -0.15792712297E+01  0.53341166367E+01  0.10287821270E+00  0.55639448325E+01  0.51100000000E-03 0. -1.
        -11    1    3    3    0    0 -0.32511230279E+01  0.60276344524E+00 -0.14556373318E+02  0.14927194282E+02  0.51100000000E-03 0.  1.
         12    1    3    3    0    0  0.36257134302E+01  0.29222140293E+02 -0.59317345439E+01  0.30037722215E+02  0.00000000000E+00 0. -1.
</event>
<event>
 7    1  0.2680581E-011  0.5052887E+02  0.7816164E-02  0.1300439E+00
        -11   -1    0    0    0    0  0.00000000000E+00  0.00000000000E+00  0.45593999997E+02  0.45594000000E+02  0.51100000000E-03 0.  1.
         11   -1    0    0    0    0 -0.00000000000E+00 -0.00000000000E+00 -0.45593999997E+02  0.45594000000E+02  0.51100000000E-03 0. -1.
    9900012    2    1    2    0    0  0.23051542053E+02 -0.21928549661E+02  0.25316602253E+02  0.50528865345E+02  0.30000016701E+02 0.  0.
         12    1    1    2    0    0 -0.23051542053E+02  0.21928549661E+02 -0.25316602253E+02  0.40659134655E+02  0.00000000000E+00 0. -1.
         11    1    3    3    0    0  0.18774921610E+00  0.17922799088E+01 -0.22621247425E+01  0.28921835439E+01  0.51100000000E-03 0. -1.
        -11    1    3    3    0    0  0.10886790821E+02  0.14073343050E+01  0.86177882856E+01  0.13955969311E+02  0.51100000000E-03 0.  1.
        -12    1    3    3    0    0  0.11977002017E+02 -0.25128163875E+02  0.18960938710E+02  0.33680712489E+02  0.00000000000E+00 0.  1.
</event>
<event>
 7    1  0.2680581E-011  0.5052885E+02  0.7816164E-02  0.1300439E+00
        -11   -1    0    0    0    0  0.00000000000E+00  0.00000000000E+00  0.45593999997E+02  0.45594000000E+02  0.51100000000E-03 0.  1.
         11   -1    0    0    0    0 -0.00000000000E+00 -0.00000000000E+00 -0.45593999997E+02  0.45594000000E+02  0.51100000000E-03 0. -1.
    9900012    2    1    2    0    0 -0.14683254570E+02 -0.44018356261E+01  0.37658890961E+02  0.50528853550E+02  0.29999980851E+02 0.  0.
         12    1    1    2    0    0  0.14683254570E+02  0.44018356261E+01 -0.37658890961E+02  0.40659146450E+02  0.00000000000E+00 0. -1.
         11    1    3    3    0    0 -0.70805082598E+01  0.34383918162E+01 -0.85036246080E+00  0.79170229300E+01  0.51100000000E-03 0. -1.
        -11    1    3    3    0    0 -0.24772326028E+01 -0.87670494779E+01  0.95908145351E+01  0.13228059632E+02  0.51100000000E-03 0.  1.
         12    1    3    3    0    0 -0.51255137072E+01  0.92682203565E+00  0.28918438887E+02  0.29383770988E+02  0.00000000000E+00 0. -1.
</event>
<event>
 7    1  0.2680581E-011  0.5052888E+02  0.7816164E-02  0.1300439E+00
        -11   -1    0    0    0    0  0.00000000000E+00  0.00000000000E+00  0.45593999997E+02  0.45594000000E+02  0.51100000000E-03 0.  1.
         11   -1    0    0    0    0 -0.00000000000E+00 -0.00000000000E+00 -0.45593999997E+02  0.45594000000E+02  0.51100000000E-03 0. -1.
    9900012    2    1    2    0    0  0.18228577022E+01  0.21430370811E+02  0.34504793255E+02  0.50528876044E+02  0.30000049223E+02 0.  0.
         12    1    1    2    0    0 -0.18228577022E+01 -0.21430370811E+02 -0.34504793255E+02  0.40659123956E+02  0.00000000000E+00 0. -1.
         11    1    3    3    0    0  0.60301300737E+01  0.10729980185E+02  0.33367085354E+01  0.12752590623E+02  0.51100000000E-03 0. -1.
        -11    1    3    3    0    0  0.59067655450E+01  0.20356246179E+01  0.17975036431E+02  0.19029860266E+02  0.51100000000E-03 0.  1.
         12    1    3    3    0    0 -0.10114037916E+02  0.86647660076E+01  0.13193048288E+02  0.18746425155E+02  0.00000000000E+00 0. -1.
</event>
<event>
 7    1  0.2680581E-011  0.5052885E+02  0.7816164E-02  0.1300439E+00
        -11   -1    0    0    0    0  0.00000000000E+00  0.00000000000E+00  0.45593999997E+02  0.45594000000E+02  0.51100000000E-03 0.  1.
         11   -1    0    0    0    0 -0.00000000000E+00 -0.00000000000E+00 -0.45593999997E+02  0.45594000000E+02  0.51100000000E-03 0. -1.
    9900012    2    1    2    0    0  0.32747730159E+02  0.13064477105E+02  0.20250236024E+02  0.50528850333E+02  0.29999971072E+02 0.  0.
         12    1    1    2    0    0 -0.32747730159E+02 -0.13064477105E+02 -0.20250236024E+02  0.40659149667E+02  0.00000000000E+00 0. -1.
         11    1    3    3    0    0  0.54391706094E+01  0.84242040806E+01 -0.20738530039E+01  0.10239758681E+02  0.51100000000E-03 0. -1.
        -11    1    3    3    0    0  0.13813881450E+02  0.66264066556E+01  0.21791868816E+02  0.26638658611E+02  0.51100000000E-03 0.  1.
         12    1    3    3    0    0  0.13494678100E+02 -0.19861336309E+01  0.53222021251E+00  0.13650433040E+02  0.00000000000E+00 0. -1.
</event>
<event>
 7    1  0.2680581E-011  0.5052886E+02  0.7816164E-02  0.1300439E+00
        -11   -1    0    0    0    0  0.00000000000E+00  0.00000000000E+00  0.45593999997E+02  0.45594000000E+02  0.51100000000E-03 0. -1.
         11   -1    0    0    0    0 -0.00000000000E+00 -0.00000000000E+00 -0.45593999997E+02  0.45594000000E+02  0.51100000000E-03 0.  1.
    9900012    2    1    2    0    0  0.21851290659E+02 -0.30846662637E+02 -0.14972315282E+02  0.50528859279E+02  0.29999998263E+02 0.  0.
         12    1    1    2    0    0 -0.21851290659E+02  0.30846662637E+02  0.14972315282E+02  0.40659140721E+02  0.00000000000E+00 0. -1.
         11    1    3    3    0    0  0.62522953117E+01 -0.25516113697E+02 -0.31909767031E+01  0.26464043294E+02  0.51100000000E-03 0. -1.
        -11    1    3    3    0    0 -0.28383772720E+00 -0.27674619524E+01 -0.66006218025E+01  0.71629336137E+01  0.51100000000E-03 0.  1.
        -12    1    3    3    0    0  0.15882833074E+02 -0.25630869874E+01 -0.51807167761E+01  0.16901882371E+02  0.00000000000E+00 0.  1.
</event>
<event>
 7    1  0.2680581E-011  0.5052887E+02  0.7816164E-02  0.1300439E+00
        -11   -1    0    0    0    0  0.00000000000E+00  0.00000000000E+00  0.45593999997E+02  0.45594000000E+02  0.51100000000E-03 0. -1.
         11   -1    0    0    0    0 -0.00000000000E+00 -0.00000000000E+00 -0.45593999997E+02  0.45594000000E+02  0.51100000000E-03 0.  1.
    9900012    2    1    2    0    0  0.19000991178E+02  0.34270411130E+02 -0.10847411973E+02  0.50528867062E+02  0.30000021921E+02 0.  0.
         12    1    1    2    0    0 -0.19000991178E+02 -0.34270411130E+02  0.10847411973E+02  0.40659132938E+02  0.00000000000E+00 0. -1.
         11    1    3    3    0    0 -0.23117991059E+01  0.57396079601E+01 -0.26860679097E+01  0.67455522916E+01  0.51100000000E-03 0. -1.
        -11    1    3    3    0    0  0.25083548417E+01  0.54737124708E+01 -0.12347520983E+02  0.13737344974E+02  0.51100000000E-03 0.  1.
        -12    1    3    3    0    0  0.18804435442E+02  0.23057090699E+02  0.41861769200E+01  0.30045969797E+02  0.00000000000E+00 0.  1.
</event>
<event>
 7    1  0.2680581E-011  0.5052886E+02  0.7816164E-02  0.1300439E+00
        -11   -1    0    0    0    0  0.00000000000E+00  0.00000000000E+00  0.45593999997E+02  0.45594000000E+02  0.51100000000E-03 0.  1.
         11   -1    0    0    0    0 -0.00000000000E+00 -0.00000000000E+00 -0.45593999997E+02  0.45594000000E+02  0.51100000000E-03 0. -1.
    9900012    2    1    2    0    0 -0.36774479633E+02 -0.17314320074E+02 -0.10088264183E+01  0.50528858806E+02  0.29999996827E+02 0.  0.
         12    1    1    2    0    0  0.36774479633E+02  0.17314320074E+02  0.10088264183E+01  0.40659141194E+02  0.00000000000E+00 0. -1.
         11    1    3    3    0    0 -0.24824004069E+02 -0.47969964367E+01 -0.40912249970E+01  0.25612115787E+02  0.51100000000E-03 0. -1.
        -11    1    3    3    0    0 -0.44454137249E+01  0.41056569092E+01  0.28201473321E+01  0.66761780292E+01  0.51100000000E-03 0.  1.
         12    1    3    3    0    0 -0.75050618385E+01 -0.16622980546E+02  0.26225124656E+00  0.18240564990E+02  0.00000000000E+00 0. -1.
</event>
<event>
 7    1  0.2680581E-011  0.5052885E+02  0.7816164E-02  0.1300439E+00
        -11   -1    0    0    0    0  0.00000000000E+00  0.00000000000E+00  0.45593999997E+02  0.45594000000E+02  0.51100000000E-03 0. -1.
         11   -1    0    0    0    0 -0.00000000000E+00 -0.00000000000E+00 -0.45593999997E+02  0.45594000000E+02  0.51100000000E-03 0.  1.
    9900012    2    1    2    0    0 -0.38509995676E+02  0.12810003045E+02 -0.24597681864E+01  0.50528850913E+02  0.29999972835E+02 0.  0.
         12    1    1    2    0    0  0.38509995676E+02 -0.12810003045E+02  0.24597681864E+01  0.40659149087E+02  0.00000000000E+00 0. -1.
         11    1    3    3    0    0 -0.17173562754E+02  0.22265265180E+00  0.29735712945E+01  0.17430518017E+02  0.51100000000E-03 0.  1.
        -11    1    3    3    0    0 -0.86841106289E+01 -0.52145000318E+01  0.13735968860E+01  0.10222111165E+02  0.51100000000E-03 0. -1.
         12    1    3    3    0    0 -0.12652322293E+02  0.17801850425E+02 -0.68069363669E+01  0.22876221731E+02  0.00000000000E+00 0. -1.
</event>
<event>
 7    1  0.2680581E-011  0.5052888E+02  0.7816164E-02  0.1300439E+00
        -11   -1    0    0    0    0  0.00000000000E+00  0.00000000000E+00  0.45593999997E+02  0.45594000000E+02  0.51100000000E-03 0. -1.
         11   -1    0    0    0    0 -0.00000000000E+00 -0.00000000000E+00 -0.45593999997E+02  0.45594000000E+02  0.51100000000E-03 0.  1.
    9900012    2    1    2    0    0 -0.36794687679E+02 -0.16076784168E+02 -0.63915541416E+01  0.50528880544E+02  0.30000062901E+02 0.  0.
         12    1    1    2    0    0  0.36794687679E+02  0.16076784168E+02  0.63915541416E+01  0.40659119456E+02  0.00000000000E+00 0. -1.
         11    1    3    3    0    0 -0.99991957674E+01 -0.96032185844E+01 -0.53030641388E+01  0.14843456898E+02  0.51100000000E-03 0.  1.
        -11    1    3    3    0    0 -0.26283445008E+02 -0.99850821680E+00 -0.73910913181E+01  0.27321140739E+02  0.51100000000E-03 0. -1.
         12    1    3    3    0    0 -0.51204690455E+00 -0.54750573669E+01  0.63026013153E+01  0.83642829067E+01  0.00000000000E+00 0. -1.
</event>
<event>
 7    1  0.2680581E-011  0.5052886E+02  0.7816164E-02  0.1300439E+00
        -11   -1    0    0    0    0  0.00000000000E+00  0.00000000000E+00  0.45593999997E+02  0.45594000000E+02  0.51100000000E-03 0.  1.
         11   -1    0    0    0    0 -0.00000000000E+00 -0.00000000000E+00 -0.45593999997E+02  0.45594000000E+02  0.51100000000E-03 0. -1.
    9900012    2    1    2    0    0  0.17459317648E+02  0.50292951554E+01  0.36373671846E+02  0.50528860977E+02  0.30000003427E+02 0.  0.
         12    1    1    2    0    0 -0.17459317648E+02 -0.50292951554E+01 -0.36373671846E+02  0.40659139023E+02  0.00000000000E+00 0. -1.
         11    1    3    3    0    0 -0.10827129786E+01 -0.24807159102E+01 -0.94093862713E+00  0.28655862546E+01  0.51100000000E-03 0. -1.
        -11    1    3    3    0    0  0.41260496419E+00 -0.32592490209E+01  0.20311004120E+02  0.20574980818E+02  0.51100000000E-03 0.  1.
        -12    1    3    3    0    0  0.18129425662E+02  0.10769260087E+02  0.17003606353E+02  0.27088293905E+02  0.00000000000E+00 0.  1.
</event>
<event>
 7    1  0.2680581E-011  0.5052900E+02  0.7816164E-02  0.1300438E+00
        -11   -1    0    0    0    0  0.00000000000E+00  0.00000000000E+00  0.45593999997E+02  0.45594000000E+02  0.51100000000E-03 0.  1.
         11   -1    0    0    0    0 -0.00000000000E+00 -0.00000000000E+00 -0.45593999997E+02  0.45594000000E+02  0.51100000000E-03 0. -1.
    9900012    2    1    2    0    0  0.37720037907E+01  0.14056738995E+02  0.37964908407E+02  0.50529001068E+02  0.30000429243E+02 0.  0.
         12    1    1    2    0    0 -0.37720037907E+01 -0.14056738995E+02 -0.37964908407E+02  0.40658998932E+02  0.00000000000E+00 0. -1.
         11    1    3    3    0    0  0.47845127460E+01  0.13590132957E+02  0.17097782997E+02  0.22358834041E+02  0.51100000000E-03 0. -1.
        -11    1    3    3    0    0  0.24527896846E+01  0.19174620430E+01 -0.28117741772E+01  0.41951057445E+01  0.51100000000E-03 0.  1.
         12    1    3    3    0    0 -0.34652986399E+01 -0.14508560047E+01  0.23678899588E+02  0.23975061283E+02  0.00000000000E+00 0. -1.
</event>
<event>
 7    1  0.2680581E-011  0.5052886E+02  0.7816164E-02  0.1300439E+00
        -11   -1    0    0    0    0  0.00000000000E+00  0.00000000000E+00  0.45593999997E+02  0.45594000000E+02  0.51100000000E-03 0. -1.
         11   -1    0    0    0    0 -0.00000000000E+00 -0.00000000000E+00 -0.45593999997E+02  0.45594000000E+02  0.51100000000E-03 0.  1.
    9900012    2    1    2    0    0 -0.29816064168E+02  0.25895343398E+02  0.96746711693E+01  0.50528858907E+02  0.29999997133E+02 0.  0.
         12    1    1    2    0    0  0.29816064168E+02 -0.25895343398E+02 -0.96746711693E+01  0.40659141093E+02  0.00000000000E+00 0. -1.
         11    1    3    3    0    0  0.21405129480E+01  0.54378561942E+01  0.10784720634E+02  0.12266306497E+02  0.51100000000E-03 0. -1.
        -11    1    3    3    0    0 -0.30081080741E+01  0.27115231547E+01 -0.14626346589E+01  0.43058532733E+01  0.51100000000E-03 0.  1.
         12    1    3    3    0    0 -0.28948469042E+02  0.17745964050E+02  0.35258519430E+00  0.33956699136E+02  0.00000000000E+00 0. -1.
</event>
<event>
 7    1  0.2680581E-011  0.5052885E+02  0.7816164E-02  0.1300439E+00
        -11   -1    0    0    0    0  0.00000000000E+00  0.00000000000E+00  0.45593999997E+02  0.45594000000E+02  0.51100000000E-03 0.  1.
         11   -1    0    0    0    0 -0.00000000000E+00 -0.00000000000E+00 -0.45593999997E+02  0.45594000000E+02  0.51100000000E-03 0. -1.
    9900012    2    1    2    0    0 -0.17270392907E+01 -0.49633826221E+01  0.40318093191E+02  0.50528850103E+02  0.29999970374E+02 0.  0.
         12    1    1    2    0    0  0.17270392907E+01  0.49633826221E+01 -0.40318093191E+02  0.40659149897E+02  0.00000000000E+00 0. -1.
         11    1    3    3    0    0 -0.26141661578E+01 -0.26819757450E+01 -0.21733835405E+01  0.43301795428E+01  0.51100000000E-03 0. -1.
        -11    1    3    3    0    0 -0.82435879135E+01 -0.96638178918E-01  0.14565601590E+02  0.16736870393E+02  0.51100000000E-03 0.  1.
        -12    1    3    3    0    0  0.91307147806E+01 -0.21847686981E+01  0.27925875142E+02  0.29461800168E+02  0.00000000000E+00 0.  1.
</event>
<event>
 7    1  0.2680581E-011  0.5052886E+02  0.7816164E-02  0.1300439E+00
        -11   -1    0    0    0    0  0.00000000000E+00  0.00000000000E+00  0.45593999997E+02  0.45594000000E+02  0.51100000000E-03 0. -1.
         11   -1    0    0    0    0 -0.00000000000E+00 -0.00000000000E+00 -0.45593999997E+02  0.45594000000E+02  0.51100000000E-03 0.  1.
    9900012    2    1    2    0    0  0.24472356480E+02  0.90270324762E+01 -0.31189450181E+02  0.50528863885E+02  0.30000012266E+02 0.  0.
         12    1    1    2    0    0 -0.24472356480E+02 -0.90270324762E+01  0.31189450181E+02  0.40659136115E+02  0.00000000000E+00 0. -1.
         11    1    3    3    0    0  0.66870943670E+01  0.92524623379E+01 -0.12969894397E+02  0.17278409977E+02  0.51100000000E-03 0. -1.
        -11    1    3    3    0    0 -0.23652030888E+01  0.31107563419E+01  0.21029177350E+01  0.44377081846E+01  0.51100000000E-03 0.  1.
        -12    1    3    3    0    0  0.20150465202E+02 -0.33361862036E+01 -0.20322473519E+02  0.28812745724E+02  0.00000000000E+00 0.  1.
</event>
<event>
 7    1  0.2680581E-011  0.5052886E+02  0.7816164E-02  0.1300439E+00
        -11   -1    0    0    0    0  0.00000000000E+00  0.00000000000E+00  0.45593999997E+02  0.45594000000E+02  0.51100000000E-03 0.  1.
         11   -1    0    0    0    0 -0.00000000000E+00 -0.00000000000E+00 -0.45593999997E+02  0.45594000000E+02  0.51100000000E-03 0. -1.
    9900012    2    1    2    0    0 -0.30311781017E+02  0.21703260491E+02  0.16227459164E+02  0.50528855699E+02  0.29999987382E+02 0.  0.
         12    1    1    2    0    0  0.30311781017E+02 -0.21703260491E+02 -0.16227459164E+02  0.40659144301E+02  0.00000000000E+00 0. -1.
         11    1    3    3    0    0 -0.14290520381E+02 -0.21614353112E+01  0.67008016434E+01  0.15930835455E+02  0.51100000000E-03 0. -1.
        -11    1    3    3    0    0 -0.11043717163E+02  0.73736774455E+01 -0.26007181697E+01  0.13531391026E+02  0.51100000000E-03 0.  1.
         12    1    3    3    0    0 -0.49775434740E+01  0.16491018357E+02  0.12127375690E+02  0.21066629218E+02  0.00000000000E+00 0. -1.
</event>
<event>
 7    1  0.2680581E-011  0.5052887E+02  0.7816164E-02  0.1300439E+00
        -11   -1    0    0    0    0  0.00000000000E+00  0.00000000000E+00  0.45593999997E+02  0.45594000000E+02  0.51100000000E-03 0.  1.
         11   -1    0    0    0    0 -0.00000000000E+00 -0.00000000000E+00 -0.45593999997E+02  0.45594000000E+02  0.51100000000E-03 0. -1.
    9900012    2    1    2    0    0 -0.64308993915E+00  0.50020551707E+01  0.40345149222E+02  0.50528865893E+02  0.30000018369E+02 0.  0.
         12    1    1    2    0    0  0.64308993915E+00 -0.50020551707E+01 -0.40345149222E+02  0.40659134107E+02  0.00000000000E+00 0. -1.
         11    1    3    3    0    0 -0.34637878191E+01  0.43344715335E+01  0.20460939613E+02  0.21199894331E+02  0.51100000000E-03 0. -1.
        -11    1    3    3    0    0 -0.11266087574E+01 -0.25999702316E+01  0.23103990514E+02  0.23277101847E+02  0.51100000000E-03 0.  1.
         12    1    3    3    0    0  0.39473066374E+01  0.32675538689E+01 -0.32197809046E+01  0.60518697152E+01  0.00000000000E+00 0. -1.
</event>
<event>
 7    1  0.2680581E-011  0.5052886E+02  0.7816164E-02  0.1300439E+00
        -11   -1    0    0    0    0  0.00000000000E+00  0.00000000000E+00  0.45593999997E+02  0.45594000000E+02  0.51100000000E-03 0. -1.
         11   -1    0    0    0    0 -0.00000000000E+00 -0.00000000000E+00 -0.45593999997E+02  0.45594000000E+02  0.51100000000E-03 0.  1.
    9900012    2    1    2    0    0 -0.14829925339E+02  0.16335740251E+01 -0.37822880243E+02  0.50528861795E+02  0.30000005913E+02 0.  0.
         12    1    1    2    0    0  0.14829925339E+02 -0.16335740251E+01  0.37822880243E+02  0.40659138205E+02  0.00000000000E+00 0. -1.
         11    1    3    3    0    0  0.42981292053E+01  0.46053232290E+01 -0.75581329172E+01  0.98391203959E+01  0.51100000000E-03 0. -1.
        -11    1    3    3    0    0  0.22122043038E+00 -0.70284978174E+01 -0.11202442498E+02  0.13226618549E+02  0.51100000000E-03 0.  1.
         12    1    3    3    0    0 -0.19349274975E+02  0.40567486136E+01 -0.19062304827E+02  0.27463122850E+02  0.00000000000E+00 0. -1.
</event>
<event>
 7    1  0.2680581E-011  0.5052887E+02  0.7816164E-02  0.1300439E+00
        -11   -1    0    0    0    0  0.00000000000E+00  0.00000000000E+00  0.45593999997E+02  0.45594000000E+02  0.51100000000E-03 0.  1.
         11   -1    0    0    0    0 -0.00000000000E+00 -0.00000000000E+00 -0.45593999997E+02  0.45594000000E+02  0.51100000000E-03 0. -1.
    9900012    2    1    2    0    0 -0.19859556598E+02 -0.22880557415E+02  0.27115364521E+02  0.50528869549E+02  0.30000029481E+02 0.  0.
         12    1    1    2    0    0  0.19859556598E+02  0.22880557415E+02 -0.27115364521E+02  0.40659130451E+02  0.00000000000E+00 0. -1.
         11    1    3    3    0    0 -0.10823487450E+02 -0.27242906763E+02  0.23845738282E+02  0.37788134169E+02  0.51100000000E-03 0.  1.
        -11    1    3    3    0    0 -0.30104470837E+01  0.11885808809E+00 -0.20564686651E+01  0.36477366298E+01  0.51100000000E-03 0. -1.
        -12    1    3    3    0    0 -0.60256220644E+01  0.42434912599E+01  0.53260949044E+01  0.90929987500E+01  0.00000000000E+00 0.  1.
</event>
<event>
 7    1  0.2680581E-011  0.5052884E+02  0.7816164E-02  0.1300439E+00
        -11   -1    0    0    0    0  0.00000000000E+00  0.00000000000E+00  0.45593999997E+02  0.45594000000E+02  0.51100000000E-03 0.  1.
         11   -1    0    0    0    0 -0.00000000000E+00 -0.00000000000E+00 -0.45593999997E+02  0.45594000000E+02  0.51100000000E-03 0. -1.
    9900012    2    1    2    0    0 -0.23640003788E+02 -0.31420122714E+01  0.32930920497E+02  0.50528836888E+02  0.29999930204E+02 0.  0.
         12    1    1    2    0    0  0.23640003788E+02  0.31420122714E+01 -0.32930920497E+02  0.40659163112E+02  0.00000000000E+00 0. -1.
         11    1    3    3    0    0 -0.82948984466E+01  0.71991072621E-01  0.13163500291E+02  0.15559185812E+02  0.51100000000E-03 0. -1.
        -11    1    3    3    0    0  0.32138077485E+01  0.28676793858E+01  0.13937821393E+02  0.14588180516E+02  0.51100000000E-03 0.  1.
         12    1    3    3    0    0 -0.18558913090E+02 -0.60816827298E+01  0.58295988132E+01  0.20381470561E+02  0.00000000000E+00 0. -1.
</event>
<event>
 7    1  0.2680581E-011  0.5052879E+02  0.7816164E-02  0.1300439E+00
        -11   -1    0    0    0    0  0.00000000000E+00  0.00000000000E+00  0.45593999997E+02  0.45594000000E+02  0.51100000000E-03 0.  1.
         11   -1    0    0    0    0 -0.00000000000E+00 -0.00000000000E+00 -0.45593999997E+02  0.45594000000E+02  0.51100000000E-03 0. -1.
    9900012    2    1    2    0    0  0.21071204185E+02 -0.30874355164E+02  0.15998426844E+02  0.50528792998E+02  0.29999796796E+02 0.  0.
         12    1    1    2    0    0 -0.21071204185E+02  0.30874355164E+02 -0.15998426844E+02  0.40659207002E+02  0.00000000000E+00 0. -1.
         11    1    3    3    0    0  0.37211016213E+01 -0.18896898060E+01  0.55518025791E+01  0.69455048036E+01  0.51100000000E-03 0. -1.
        -11    1    3    3    0    0 -0.24483558970E+01 -0.17972780277E+02  0.10439623268E+02  0.20928473707E+02  0.51100000000E-03 0.  1.
        -12    1    3    3    0    0  0.19798458460E+02 -0.11011885081E+02  0.70009965484E-02  0.22654814487E+02  0.00000000000E+00 0.  1.
</event>
<event>
 7    1  0.2680581E-011  0.5052886E+02  0.7816164E-02  0.1300439E+00
        -11   -1    0    0    0    0  0.00000000000E+00  0.00000000000E+00  0.45593999997E+02  0.45594000000E+02  0.51100000000E-03 0. -1.
         11   -1    0    0    0    0 -0.00000000000E+00 -0.00000000000E+00 -0.45593999997E+02  0.45594000000E+02  0.51100000000E-03 0.  1.
    9900012    2    1    2    0    0  0.19866583250E+02 -0.13398714690E+02 -0.32847516648E+02  0.50528855453E+02  0.29999986636E+02 0.  0.
         12    1    1    2    0    0 -0.19866583250E+02  0.13398714690E+02  0.32847516648E+02  0.40659144547E+02  0.00000000000E+00 0. -1.
         11    1    3    3    0    0  0.32289854890E+00 -0.11482062667E+02 -0.74648078568E+01  0.13699101546E+02  0.51100000000E-03 0. -1.
        -11    1    3    3    0    0 -0.19942051033E+01  0.26797684271E+01 -0.83354632047E+01  0.89798641368E+01  0.51100000000E-03 0.  1.
        -12    1    3    3    0    0  0.21537889804E+02 -0.45964204500E+01 -0.17047245586E+02  0.27849889771E+02  0.00000000000E+00 0.  1.
</event>
<event>
 7    1  0.2680581E-011  0.5052884E+02  0.7816164E-02  0.1300439E+00
        -11   -1    0    0    0    0  0.00000000000E+00  0.00000000000E+00  0.45593999997E+02  0.45594000000E+02  0.51100000000E-03 0.  1.
         11   -1    0    0    0    0 -0.00000000000E+00 -0.00000000000E+00 -0.45593999997E+02  0.45594000000E+02  0.51100000000E-03 0. -1.
    9900012    2    1    2    0    0 -0.84765347221E+01  0.39107271390E+02 -0.72067149531E+01  0.50528842890E+02  0.29999948449E+02 0.  0.
         12    1    1    2    0    0  0.84765347221E+01 -0.39107271390E+02  0.72067149531E+01  0.40659157110E+02  0.00000000000E+00 0. -1.
         11    1    3    3    0    0 -0.73990014642E+01  0.25893985164E+02 -0.13506855440E+02  0.30127708750E+02  0.51100000000E-03 0.  1.
        -11    1    3    3    0    0  0.35592438602E+01  0.19840441567E+01 -0.30341386694E+01  0.50804178763E+01  0.51100000000E-03 0. -1.
        -12    1    3    3    0    0 -0.46367771181E+01  0.11229242069E+02  0.93342791562E+01  0.15320716264E+02  0.00000000000E+00 0.  1.
</event>
<event>
 7    1  0.2680581E-011  0.5052885E+02  0.7816164E-02  0.1300439E+00
        -11   -1    0    0    0    0  0.00000000000E+00  0.00000000000E+00  0.45593999997E+02  0.45594000000E+02  0.51100000000E-03 0. -1.
         11   -1    0    0    0    0 -0.00000000000E+00 -0.00000000000E+00 -0.45593999997E+02  0.45594000000E+02  0.51100000000E-03 0.  1.
    9900012    2    1    2    0    0  0.96269719975E+01  0.37522710572E+02 -0.12350455096E+02  0.50528854170E+02  0.29999982736E+02 0.  0.
         12    1    1    2    0    0 -0.96269719975E+01 -0.37522710572E+02  0.12350455096E+02  0.40659145830E+02  0.00000000000E+00 0. -1.
         11    1    3    3    0    0  0.18194347877E+02  0.20624248468E+02 -0.33415397625E+01  0.27704869748E+02  0.51100000000E-03 0.  1.
        -11    1    3    3    0    0 -0.31685498998E+01  0.15610927531E+01  0.10736450220E+01  0.36918061902E+01  0.51100000000E-03 0. -1.
        -12    1    3    3    0    0 -0.53988259797E+01  0.15337369351E+02 -0.10082560355E+02  0.19132178232E+02  0.00000000000E+00 0.  1.
</event>
<event>
 7    1  0.2680581E-011  0.5052886E+02  0.7816164E-02  0.1300439E+00
        -11   -1    0    0    0    0  0.00000000000E+00  0.00000000000E+00  0.45593999997E+02  0.45594000000E+02  0.51100000000E-03 0.  1.
         11   -1    0    0    0    0 -0.00000000000E+00 -0.00000000000E+00 -0.45593999997E+02  0.45594000000E+02  0.51100000000E-03 0. -1.
    9900012    2    1    2    0    0 -0.14925244919E+02  0.28782849481E+02  0.24534675864E+02  0.50528859823E+02  0.29999999919E+02 0.  0.
         12    1    1    2    0    0  0.14925244919E+02 -0.28782849481E+02 -0.24534675864E+02  0.40659140177E+02  0.00000000000E+00 0. -1.
         11    1    3    3    0    0 -0.75079078346E+01  0.60606285864E+01 -0.30659781734E+01  0.10124234358E+02  0.51100000000E-03 0. -1.
        -11    1    3    3    0    0 -0.55615295989E+01  0.15685805875E+02  0.61322034028E+01  0.17736376075E+02  0.51100000000E-03 0.  1.
         12    1    3    3    0    0 -0.18558074852E+01  0.70364150194E+01  0.21468450635E+02  0.22668249390E+02  0.00000000000E+00 0. -1.
</event>
<event>
 7    1  0.2680581E-011  0.5052886E+02  0.7816164E-02  0.1300439E+00
        -11   -1    0    0    0    0  0.00000000000E+00  0.00000000000E+00  0.45593999997E+02  0.45594000000E+02  0.51100000000E-03 0. -1.
         11   -1    0    0    0    0 -0.00000000000E+00 -0.00000000000E+00 -0.45593999997E+02  0.45594000000E+02  0.51100000000E-03 0.  1.
    9900012    2    1    2    0    0  0.28593443363E+02 -0.19476710198E+02 -0.21359741328E+02  0.50528858431E+02  0.29999995687E+02 0.  0.
         12    1    1    2    0    0 -0.28593443363E+02  0.19476710198E+02  0.21359741328E+02  0.40659141569E+02  0.00000000000E+00 0. -1.
         11    1    3    3    0    0  0.15516218575E+02 -0.44587570977E+00 -0.17375767979E+01  0.15619571614E+02  0.51100000000E-03 0.  1.
        -11    1    3    3    0    0  0.15447570055E+02 -0.10150802330E+02 -0.81280719079E+01  0.20192368899E+02  0.51100000000E-03 0. -1.
         12    1    3    3    0    0 -0.23703452662E+01 -0.88800321588E+01 -0.11494092622E+02  0.14716917919E+02  0.00000000000E+00 0. -1.
</event>
<event>
 7    1  0.2680581E-011  0.5052886E+02  0.7816164E-02  0.1300439E+00
        -11   -1    0    0    0    0  0.00000000000E+00  0.00000000000E+00  0.45593999997E+02  0.45594000000E+02  0.51100000000E-03 0.  1.
         11   -1    0    0    0    0 -0.00000000000E+00 -0.00000000000E+00 -0.45593999997E+02  0.45594000000E+02  0.51100000000E-03 0. -1.
    9900012    2    1    2    0    0  0.18177508882E+01 -0.15019786081E+02  0.37739466214E+02  0.50528862007E+02  0.30000006556E+02 0.  0.
         12    1    1    2    0    0 -0.18177508882E+01  0.15019786081E+02 -0.37739466214E+02  0.40659137993E+02  0.00000000000E+00 0. -1.
         11    1    3    3    0    0  0.57586138035E+01 -0.57214796846E+01  0.69872493447E+01  0.10710677681E+02  0.51100000000E-03 0. -1.
        -11    1    3    3    0    0  0.67793880628E+01  0.28135492658E+01  0.17256527956E+02  0.18752704321E+02  0.51100000000E-03 0.  1.
        -12    1    3    3    0    0 -0.10720250978E+02 -0.12111855662E+02  0.13495688913E+02  0.21065480005E+02  0.00000000000E+00 0.  1.
</event>
<event>
 7    1  0.2680581E-011  0.5052886E+02  0.7816164E-02  0.1300439E+00
        -11   -1    0    0    0    0  0.00000000000E+00  0.00000000000E+00  0.45593999997E+02  0.45594000000E+02  0.51100000000E-03 0.  1.
         11   -1    0    0    0    0 -0.00000000000E+00 -0.00000000000E+00 -0.45593999997E+02  0.45594000000E+02  0.51100000000E-03 0. -1.
    9900012    2    1    2    0    0  0.22710326621E+02 -0.11304808849E+02  0.31774330587E+02  0.50528859298E+02  0.29999998323E+02 0.  0.
         12    1    1    2    0    0 -0.22710326621E+02  0.11304808849E+02 -0.31774330587E+02  0.40659140702E+02  0.00000000000E+00 0. -1.
         11    1    3    3    0    0  0.13795439237E+02 -0.45482562981E+01  0.34581278697E+02  0.37508207311E+02  0.51100000000E-03 0. -1.
        -11    1    3    3    0    0  0.31431130248E+00 -0.34969016235E+01 -0.95389625143E+00  0.36382730627E+01  0.51100000000E-03 0.  1.
        -12    1    3    3    0    0  0.86005760819E+01 -0.32596509269E+01 -0.18530518583E+01  0.93823789251E+01  0.00000000000E+00 0.  1.
</event>
<event>
 7    1  0.2680581E-011  0.5052887E+02  0.7816164E-02  0.1300439E+00
        -11   -1    0    0    0    0  0.00000000000E+00  0.00000000000E+00  0.45593999997E+02  0.45594000000E+02  0.51100000000E-03 0.  1.
         11   -1    0    0    0    0 -0.00000000000E+00 -0.00000000000E+00 -0.45593999997E+02  0.45594000000E+02  0.51100000000E-03 0. -1.
    9900012    2    1    2    0    0 -0.20745123761E+02  0.28907211377E+01  0.34848942367E+02  0.50528865569E+02  0.30000017384E+02 0.  0.
         12    1    1    2    0    0  0.20745123761E+02 -0.28907211377E+01 -0.34848942367E+02  0.40659134431E+02  0.00000000000E+00 0. -1.
         11    1    3    3    0    0  0.39753143310E+01  0.12651512345E+01  0.15241160572E+02  0.15801794440E+02  0.51100000000E-03 0. -1.
        -11    1    3    3    0    0 -0.60280709762E+01 -0.57493046900E+01  0.78454689425E+01  0.11443055855E+02  0.51100000000E-03 0.  1.
         12    1    3    3    0    0 -0.18692367116E+02  0.73748745932E+01  0.11762312853E+02  0.23284015274E+02  0.00000000000E+00 0. -1.
</event>
<event>
 7    1  0.2680581E-011  0.5052887E+02  0.7816164E-02  0.1300439E+00
        -11   -1    0    0    0    0  0.00000000000E+00  0.00000000000E+00  0.45593999997E+02  0.45594000000E+02  0.51100000000E-03 0.  1.
         11   -1    0    0    0    0 -0.00000000000E+00 -0.00000000000E+00 -0.45593999997E+02  0.45594000000E+02  0.51100000000E-03 0. -1.
    9900012    2    1    2    0    0 -0.21690094400E+02  0.31776048924E+02  0.13152456694E+02  0.50528873136E+02  0.30000040383E+02 0.  0.
         12    1    1    2    0    0  0.21690094400E+02 -0.31776048924E+02 -0.13152456694E+02  0.40659126864E+02  0.00000000000E+00 0. -1.
         11    1    3    3    0    0 -0.14009661089E+02  0.97242719287E+01 -0.25768480430E+01  0.17247382830E+02  0.51100000000E-03 0. -1.
        -11    1    3    3    0    0 -0.20886807267E+00  0.15827465979E+02  0.13012960495E+01  0.15882244075E+02  0.51100000000E-03 0.  1.
         12    1    3    3    0    0 -0.74715652382E+01  0.62243110161E+01  0.14428008687E+02  0.17399246231E+02  0.00000000000E+00 0. -1.
</event>
<event>
 7    1  0.2680581E-011  0.5052886E+02  0.7816164E-02  0.1300439E+00
        -11   -1    0    0    0    0  0.00000000000E+00  0.00000000000E+00  0.45593999997E+02  0.45594000000E+02  0.51100000000E-03 0.  1.
         11   -1    0    0    0    0 -0.00000000000E+00 -0.00000000000E+00 -0.45593999997E+02  0.45594000000E+02  0.51100000000E-03 0. -1.
    9900012    2    1    2    0    0  0.17193752117E+02  0.33271227574E+02  0.15829265041E+02  0.50528864153E+02  0.30000013078E+02 0.  0.
         12    1    1    2    0    0 -0.17193752117E+02 -0.33271227574E+02 -0.15829265041E+02  0.40659135847E+02  0.00000000000E+00 0. -1.
         11    1    3    3    0    0  0.41163575823E+01  0.12128409278E+02 -0.44539906773E+01  0.13560263441E+02  0.51100000000E-03 0. -1.
        -11    1    3    3    0    0  0.13188990822E+02  0.23426397629E+02  0.14059820750E+02  0.30338492786E+02  0.51100000000E-03 0.  1.
        -12    1    3    3    0    0 -0.11159628696E+00 -0.22835793332E+01  0.62234349684E+01  0.66301079259E+01  0.00000000000E+00 0.  1.
</event>
<event>
 7    1  0.2680581E-011  0.5052887E+02  0.7816164E-02  0.1300439E+00
        -11   -1    0    0    0    0  0.00000000000E+00  0.00000000000E+00  0.45593999997E+02  0.45594000000E+02  0.51100000000E-03 0.  1.
         11   -1    0    0    0    0 -0.00000000000E+00 -0.00000000000E+00 -0.45593999997E+02  0.45594000000E+02  0.51100000000E-03 0. -1.
    9900012    2    1    2    0    0 -0.11336411785E+02  0.47018031435E+01  0.38762660692E+02  0.50528867583E+02  0.30000023505E+02 0.  0.
         12    1    1    2    0    0  0.11336411785E+02 -0.47018031435E+01 -0.38762660692E+02  0.40659132417E+02  0.00000000000E+00 0. -1.
         11    1    3    3    0    0 -0.11004277749E+02  0.71123221421E+01  0.15978268287E+02  0.20663598736E+02  0.51100000000E-03 0. -1.
        -11    1    3    3    0    0 -0.26946551928E+01  0.30829035290E+01  0.23489718982E+02  0.23843916601E+02  0.51100000000E-03 0.  1.
         12    1    3    3    0    0  0.23625211573E+01 -0.54934225277E+01 -0.70532657597E+00  0.60213522455E+01  0.00000000000E+00 0. -1.
</event>
<event>
 7    1  0.2680581E-011  0.5052886E+02  0.7816164E-02  0.1300439E+00
        -11   -1    0    0    0    0  0.00000000000E+00  0.00000000000E+00  0.45593999997E+02  0.45594000000E+02  0.51100000000E-03 0.  1.
         11   -1    0    0    0    0 -0.00000000000E+00 -0.00000000000E+00 -0.45593999997E+02  0.45594000000E+02  0.51100000000E-03 0. -1.
    9900012    2    1    2    0    0 -0.29808006239E+02 -0.73060837534E+01  0.26669635999E+02  0.50528861051E+02  0.30000003650E+02 0.  0.
         12    1    1    2    0    0  0.29808006239E+02  0.73060837534E+01 -0.26669635999E+02  0.40659138949E+02  0.00000000000E+00 0. -1.
         11    1    3    3    0    0 -0.15890049009E+02 -0.15725897079E+02  0.12031119298E+02  0.25387897280E+02  0.51100000000E-03 0.  1.
        -11    1    3    3    0    0  0.16017082278E+01 -0.79626308226E+00  0.35011292225E+01  0.39315913110E+01  0.51100000000E-03 0. -1.
        -12    1    3    3    0    0 -0.15519665459E+02  0.92160764083E+01  0.11137387478E+02  0.21209372460E+02  0.00000000000E+00 0.  1.
</event>
<event>
 7    1  0.2680581E-011  0.5052886E+02  0.7816164E-02  0.1300439E+00
        -11   -1    0    0    0    0  0.00000000000E+00  0.00000000000E+00  0.45593999997E+02  0.45594000000E+02  0.51100000000E-03 0. -1.
         11   -1    0    0    0    0 -0.00000000000E+00 -0.00000000000E+00 -0.45593999997E+02  0.45594000000E+02  0.51100000000E-03 0.  1.
    9900012    2    1    2    0    0  0.25213859008E+02  0.56527829685E+01 -0.31392246312E+02  0.50528858717E+02  0.29999996557E+02 0.  0.
         12    1    1    2    0    0 -0.25213859008E+02 -0.56527829685E+01  0.31392246312E+02  0.40659141283E+02  0.00000000000E+00 0. -1.
         11    1    3    3    0    0  0.13180352253E+02 -0.40940621268E+01 -0.99289433521E+01  0.17001968903E+02  0.51100000000E-03 0. -1.
        -11    1    3    3    0    0 -0.18475230847E+01 -0.40526989769E+01 -0.97434140517E+01  0.10713161447E+02  0.51100000000E-03 0.  1.
         12    1    3    3    0    0  0.13881029839E+02  0.13799544072E+02 -0.11719888908E+02  0.22813728367E+02  0.00000000000E+00 0. -1.
</event>
<event>
 7    1  0.2680581E-011  0.5052887E+02  0.7816164E-02  0.1300439E+00
        -11   -1    0    0    0    0  0.00000000000E+00  0.00000000000E+00  0.45593999997E+02  0.45594000000E+02  0.51100000000E-03 0. -1.
         11   -1    0    0    0    0 -0.00000000000E+00 -0.00000000000E+00 -0.45593999997E+02  0.45594000000E+02  0.51100000000E-03 0.  1.
    9900012    2    1    2    0    0  0.36925315314E+02  0.80019212279E+01 -0.15021827525E+02  0.50528868719E+02  0.30000026959E+02 0.  0.
         12    1    1    2    0    0 -0.36925315314E+02 -0.80019212279E+01  0.15021827525E+02  0.40659131281E+02  0.00000000000E+00 0. -1.
         11    1    3    3    0    0 -0.21575002904E+01  0.55727247071E+00 -0.30601369054E+01  0.37854719984E+01  0.51100000000E-03 0. -1.
        -11    1    3    3    0    0  0.42922957724E+01  0.58517915242E+01  0.41610878047E+01  0.83655196503E+01  0.51100000000E-03 0.  1.
        -12    1    3    3    0    0  0.34790519832E+02  0.15928572330E+01 -0.16122778424E+02  0.38377877070E+02  0.00000000000E+00 0.  1.
</event>
<event>
 7    1  0.2680581E-011  0.5052887E+02  0.7816164E-02  0.1300439E+00
        -11   -1    0    0    0    0  0.00000000000E+00  0.00000000000E+00  0.45593999997E+02  0.45594000000E+02  0.51100000000E-03 0.  1.
         11   -1    0    0    0    0 -0.00000000000E+00 -0.00000000000E+00 -0.45593999997E+02  0.45594000000E+02  0.51100000000E-03 0. -1.
    9900012    2    1    2    0    0 -0.15802038899E+02 -0.41027274710E+01  0.37237459272E+02  0.50528865982E+02  0.30000018639E+02 0.  0.
         12    1    1    2    0    0  0.15802038899E+02  0.41027274710E+01 -0.37237459272E+02  0.40659134018E+02  0.00000000000E+00 0. -1.
         11    1    3    3    0    0 -0.14399977509E+02 -0.13857886912E+01  0.24407882777E+02  0.28372953750E+02  0.51100000000E-03 0.  1.
        -11    1    3    3    0    0 -0.71258154634E+01 -0.50958168784E+01  0.10214012108E+01  0.88197424209E+01  0.51100000000E-03 0. -1.
        -12    1    3    3    0    0  0.57237540735E+01  0.23788780985E+01  0.11808175284E+02  0.13336169811E+02  0.00000000000E+00 0.  1.
</event>
<event>
 7    1  0.2680581E-011  0.5052886E+02  0.7816164E-02  0.1300439E+00
        -11   -1    0    0    0    0  0.00000000000E+00  0.00000000000E+00  0.45593999997E+02  0.45594000000E+02  0.51100000000E-03 0.  1.
         11   -1    0    0    0    0 -0.00000000000E+00 -0.00000000000E+00 -0.45593999997E+02  0.45594000000E+02  0.51100000000E-03 0. -1.
    9900012    2    1    2    0    0  0.58085211253E+01  0.40011726658E+02  0.42998334803E+01  0.50528858890E+02  0.29999997082E+02 0.  0.
         12    1    1    2    0    0 -0.58085211253E+01 -0.40011726658E+02 -0.42998334803E+01  0.40659141110E+02  0.00000000000E+00 0. -1.
         11    1    3    3    0    0  0.58766629659E+01  0.28838129818E+01 -0.42339219363E+01  0.77960015490E+01  0.51100000000E-03 0. -1.
        -11    1    3    3    0    0  0.68348960587E+01  0.41452111442E+01  0.32259463727E+01  0.86200527738E+01  0.51100000000E-03 0.  1.
        -12    1    3    3    0    0 -0.69030378993E+01  0.32982702532E+02  0.53078090439E+01  0.34112804567E+02  0.00000000000E+00 0.  1.
</event>
<event>
 7    1  0.2680581E-011  0.5052886E+02  0.7816164E-02  0.1300439E+00
        -11   -1    0    0    0    0  0.00000000000E+00  0.00000000000E+00  0.45593999997E+02  0.45594000000E+02  0.51100000000E-03 0. -1.
         11   -1    0    0    0    0 -0.00000000000E+00 -0.00000000000E+00 -0.45593999997E+02  0.45594000000E+02  0.51100000000E-03 0.  1.
    9900012    2    1    2    0    0 -0.23969445315E+02  0.21997410577E+02 -0.24387396847E+02  0.50528861965E+02  0.30000006429E+02 0.  0.
         12    1    1    2    0    0  0.23969445315E+02 -0.21997410577E+02  0.24387396847E+02  0.40659138035E+02  0.00000000000E+00 0. -1.
         11    1    3    3    0    0 -0.74802967297E+00  0.91600665973E-01  0.25264350298E+01  0.26364395109E+01  0.51100000000E-03 0. -1.
        -11    1    3    3    0    0 -0.89165068306E+01 -0.24021792612E+00  0.15954431511E+01  0.90613044217E+01  0.51100000000E-03 0.  1.
        -12    1    3    3    0    0 -0.14304908812E+02  0.22146027837E+02 -0.28509275027E+02  0.38831118032E+02  0.00000000000E+00 0.  1.
</event>
<event>
 7    1  0.2680581E-011  0.5052886E+02  0.7816164E-02  0.1300439E+00
        -11   -1    0    0    0    0  0.00000000000E+00  0.00000000000E+00  0.45593999997E+02  0.45594000000E+02  0.51100000000E-03 0.  1.
         11   -1    0    0    0    0 -0.00000000000E+00 -0.00000000000E+00 -0.45593999997E+02  0.45594000000E+02  0.51100000000E-03 0. -1.
    9900012    2    1    2    0    0  0.61941108862E+01  0.14248759436E+02  0.37573552546E+02  0.50528855812E+02  0.29999987727E+02 0.  0.
         12    1    1    2    0    0 -0.61941108862E+01 -0.14248759436E+02 -0.37573552546E+02  0.40659144188E+02  0.00000000000E+00 0. -1.
         11    1    3    3    0    0 -0.31741605101E+01 -0.50532909837E+01  0.93040421131E+01  0.11053336357E+02  0.51100000000E-03 0. -1.
        -11    1    3    3    0    0 -0.16197039303E+01  0.10247487152E+02  0.21148217562E+02  0.23555923672E+02  0.51100000000E-03 0.  1.
         12    1    3    3    0    0  0.10987975327E+02  0.90545632679E+01  0.71212928716E+01  0.15919595784E+02  0.00000000000E+00 0. -1.
</event>
<event>
 7    1  0.2680581E-011  0.5052886E+02  0.7816164E-02  0.1300439E+00
        -11   -1    0    0    0    0  0.00000000000E+00  0.00000000000E+00  0.45593999997E+02  0.45594000000E+02  0.51100000000E-03 0. -1.
         11   -1    0    0    0    0 -0.00000000000E+00 -0.00000000000E+00 -0.45593999997E+02  0.45594000000E+02  0.51100000000E-03 0.  1.
    9900012    2    1    2    0    0 -0.66081328249E+01  0.36858970919E+02 -0.15840280670E+02  0.50528860212E+02  0.30000001100E+02 0.  0.
         12    1    1    2    0    0  0.66081328249E+01 -0.36858970919E+02  0.15840280670E+02  0.40659139788E+02  0.00000000000E+00 0. -1.
         11    1    3    3    0    0  0.81276181463E+01  0.49683543555E+01 -0.35583021793E+01  0.10168787361E+02  0.51100000000E-03 0. -1.
        -11    1    3    3    0    0 -0.49006284093E+01  0.16715371153E+02 -0.13785629368E+02  0.22214035404E+02  0.51100000000E-03 0.  1.
         12    1    3    3    0    0 -0.98351225619E+01  0.15175245410E+02  0.15036508775E+01  0.18146037447E+02  0.00000000000E+00 0. -1.
</event>
<event>
 7    1  0.2680581E-011  0.5052886E+02  0.7816164E-02  0.1300439E+00
        -11   -1    0    0    0    0  0.00000000000E+00  0.00000000000E+00  0.45593999997E+02  0.45594000000E+02  0.51100000000E-03 0.  1.
         11   -1    0    0    0    0 -0.00000000000E+00 -0.00000000000E+00 -0.45593999997E+02  0.45594000000E+02  0.51100000000E-03 0. -1.
    9900012    2    1    2    0    0  0.33712526263E+01 -0.33590153181E+02 -0.22660578365E+02  0.50528861460E+02  0.30000004893E+02 0.  0.
         12    1    1    2    0    0 -0.33712526263E+01  0.33590153181E+02  0.22660578365E+02  0.40659138540E+02  0.00000000000E+00 0. -1.
         11    1    3    3    0    0  0.72391661555E+01 -0.79362792289E+01 -0.25330296137E+01  0.11036588871E+02  0.51100000000E-03 0. -1.
        -11    1    3    3    0    0 -0.48413079913E+01 -0.32907575836E+01  0.36001846139E+01  0.68723124241E+01  0.51100000000E-03 0.  1.
        -12    1    3    3    0    0  0.97339446208E+00 -0.22363116369E+02 -0.23727733365E+02  0.32619960165E+02  0.00000000000E+00 0.  1.
</event>
<event>
 7    1  0.2842019E-011  0.5052886E+02  0.7816164E-02  0.1300439E+00
        -11   -1    0    0    0    0  0.00000000000E+00  0.00000000000E+00  0.45593999997E+02  0.45594000000E+02  0.51100000000E-03 0. -1.
         11   -1    0    0    0    0 -0.00000000000E+00 -0.00000000000E+00 -0.45593999997E+02  0.45594000000E+02  0.51100000000E-03 0.  1.
    9900012    2    1    2    0    0 -0.51000070971E+01  0.16080360795E+02 -0.36994291583E+02  0.50528859756E+02  0.29999999713E+02 0.  0.
         12    1    1    2    0    0  0.51000070971E+01 -0.16080360795E+02  0.36994291583E+02  0.40659140244E+02  0.00000000000E+00 0. -1.
         11    1    3    3    0    0  0.60613092312E+01 -0.24347899637E+01 -0.69125572126E+00  0.65685239207E+01  0.51100000000E-03 0. -1.
        -11    1    3    3    0    0 -0.41973710400E+01  0.33903961875E+01 -0.18662913678E+01  0.57092691026E+01  0.51100000000E-03 0.  1.
        -12    1    3    3    0    0 -0.69639452883E+01  0.15124754572E+02 -0.34436744494E+02  0.38251066732E+02  0.00000000000E+00 0.  1.
</event>
<event>
 7    1  0.2680581E-011  0.5052885E+02  0.7816164E-02  0.1300439E+00
        -11   -1    0    0    0    0  0.00000000000E+00  0.00000000000E+00  0.45593999997E+02  0.45594000000E+02  0.51100000000E-03 0.  1.
         11   -1    0    0    0    0 -0.00000000000E+00 -0.00000000000E+00 -0.45593999997E+02  0.45594000000E+02  0.51100000000E-03 0. -1.
    9900012    2    1    2    0    0  0.54155371309E+01 -0.17412322923E+02  0.36340736124E+02  0.50528854239E+02  0.29999982946E+02 0.  0.
         12    1    1    2    0    0 -0.54155371309E+01  0.17412322923E+02 -0.36340736124E+02  0.40659145761E+02  0.00000000000E+00 0. -1.
         11    1    3    3    0    0  0.16845846353E+01 -0.57005440213E+01 -0.21326802373E+01  0.63152476427E+01  0.51100000000E-03 0. -1.
        -11    1    3    3    0    0  0.17986598878E+01  0.42296702848E+01  0.36610570834E+01  0.58761064778E+01  0.51100000000E-03 0.  1.
        -12    1    3    3    0    0  0.19322926077E+01 -0.15941449186E+02  0.34812359278E+02  0.38337500119E+02  0.00000000000E+00 0.  1.
</event>
<event>
 7    1  0.2680581E-011  0.5052886E+02  0.7816164E-02  0.1300439E+00
        -11   -1    0    0    0    0  0.00000000000E+00  0.00000000000E+00  0.45593999997E+02  0.45594000000E+02  0.51100000000E-03 0. -1.
         11   -1    0    0    0    0 -0.00000000000E+00 -0.00000000000E+00 -0.45593999997E+02  0.45594000000E+02  0.51100000000E-03 0.  1.
    9900012    2    1    2    0    0  0.18249535223E+02 -0.34463242636E+02  0.11506741407E+02  0.50528859249E+02  0.29999998173E+02 0.  0.
         12    1    1    2    0    0 -0.18249535223E+02  0.34463242636E+02 -0.11506741407E+02  0.40659140751E+02  0.00000000000E+00 0. -1.
         11    1    3    3    0    0 -0.46703641109E+01 -0.33668773607E+01 -0.16187165466E+01  0.59806694951E+01  0.51100000000E-03 0. -1.
        -11    1    3    3    0    0  0.23294271828E+01 -0.11659387490E+02  0.10925769855E+02  0.16147445458E+02  0.51100000000E-03 0.  1.
        -12    1    3    3    0    0  0.20590472151E+02 -0.19436977785E+02  0.21996880991E+01  0.28400744295E+02  0.00000000000E+00 0.  1.
</event>
<event>
 7    1  0.2680581E-011  0.5052885E+02  0.7816164E-02  0.1300439E+00
        -11   -1    0    0    0    0  0.00000000000E+00  0.00000000000E+00  0.45593999997E+02  0.45594000000E+02  0.51100000000E-03 0. -1.
         11   -1    0    0    0    0 -0.00000000000E+00 -0.00000000000E+00 -0.45593999997E+02  0.45594000000E+02  0.51100000000E-03 0.  1.
    9900012    2    1    2    0    0 -0.17762152252E+02  0.23139470793E+02 -0.28323795198E+02  0.50528849301E+02  0.29999967934E+02 0.  0.
         12    1    1    2    0    0  0.17762152252E+02 -0.23139470793E+02  0.28323795198E+02  0.40659150699E+02  0.00000000000E+00 0. -1.
         11    1    3    3    0    0 -0.74045798357E+01  0.45099906454E+01 -0.60356512709E+00  0.86909210840E+01  0.51100000000E-03 0. -1.
        -11    1    3    3    0    0 -0.10657279133E+02 -0.11819320476E+01 -0.14438189243E+02  0.17984322916E+02  0.51100000000E-03 0.  1.
         12    1    3    3    0    0  0.29970671694E+00  0.19811412195E+02 -0.13282040828E+02  0.23853605301E+02  0.00000000000E+00 0. -1.
</event>
<event>
 7    1  0.2680581E-011  0.5052886E+02  0.7816164E-02  0.1300439E+00
        -11   -1    0    0    0    0  0.00000000000E+00  0.00000000000E+00  0.45593999997E+02  0.45594000000E+02  0.51100000000E-03 0. -1.
         11   -1    0    0    0    0 -0.00000000000E+00 -0.00000000000E+00 -0.45593999997E+02  0.45594000000E+02  0.51100000000E-03 0.  1.
    9900012    2    1    2    0    0  0.19951378472E+02  0.34888776774E+02 -0.61547954081E+01  0.50528858909E+02  0.29999997141E+02 0.  0.
         12    1    1    2    0    0 -0.19951378472E+02 -0.34888776774E+02  0.61547954081E+01  0.40659141091E+02  0.00000000000E+00 0. -1.
         11    1    3    3    0    0  0.39426110568E+01  0.18673023923E+01  0.68200764598E+01  0.80959522817E+01  0.51100000000E-03 0. -1.
        -11    1    3    3    0    0 -0.26883563074E+01  0.77856406088E+01  0.51094556013E+00  0.82525465737E+01  0.51100000000E-03 0.  1.
        -12    1    3    3    0    0  0.18697123722E+02  0.25235833773E+02 -0.13485817428E+02  0.34180360054E+02  0.00000000000E+00 0.  1.
</event>
<event>
 7    1  0.2680581E-011  0.5052879E+02  0.7816164E-02  0.1300439E+00
        -11   -1    0    0    0    0  0.00000000000E+00  0.00000000000E+00  0.45593999997E+02  0.45594000000E+02  0.51100000000E-03 0. -1.
         11   -1    0    0    0    0 -0.00000000000E+00 -0.00000000000E+00 -0.45593999997E+02  0.45594000000E+02  0.51100000000E-03 0.  1.
    9900012    2    1    2    0    0 -0.37851950481E+02  0.13873837860E+02  0.52837210087E+01  0.50528791451E+02  0.29999792093E+02 0.  0.
         12    1    1    2    0    0  0.37851950481E+02 -0.13873837860E+02 -0.52837210087E+01  0.40659208549E+02  0.00000000000E+00 0. -1.
         11    1    3    3    0    0 -0.26162469898E+02  0.58630854889E+01  0.69126372380E+01  0.27688177197E+02  0.51100000000E-03 0. -1.
        -11    1    3    3    0    0 -0.14369629686E+02  0.76212953860E+01 -0.62984647418E+01  0.17442507246E+02  0.51100000000E-03 0.  1.
         12    1    3    3    0    0  0.26801491034E+01  0.38945698531E+00  0.46695485125E+01  0.53981070081E+01  0.00000000000E+00 0. -1.
</event>
<event>
 7    1  0.2680581E-011  0.5052886E+02  0.7816164E-02  0.1300439E+00
        -11   -1    0    0    0    0  0.00000000000E+00  0.00000000000E+00  0.45593999997E+02  0.45594000000E+02  0.51100000000E-03 0. -1.
         11   -1    0    0    0    0 -0.00000000000E+00 -0.00000000000E+00 -0.45593999997E+02  0.45594000000E+02  0.51100000000E-03 0.  1.
    9900012    2    1    2    0    0 -0.22483520632E+01 -0.30394988179E+02  0.26911993287E+02  0.50528858641E+02  0.29999996325E+02 0.  0.
         12    1    1    2    0    0  0.22483520632E+01  0.30394988179E+02 -0.26911993287E+02  0.40659141359E+02  0.00000000000E+00 0. -1.
         11    1    3    3    0    0 -0.20904303341E+01  0.16679951771E+01  0.10215123053E+02  0.10559396107E+02  0.51100000000E-03 0. -1.
        -11    1    3    3    0    0  0.40107493237E+01 -0.11333048532E+02 -0.14451433620E+01  0.12108366478E+02  0.51100000000E-03 0.  1.
         12    1    3    3    0    0 -0.41686710528E+01 -0.20729934824E+02  0.18142013596E+02  0.27861096056E+02  0.00000000000E+00 0. -1.
</event>
<event>
 7    1  0.2680581E-011  0.5052885E+02  0.7816164E-02  0.1300439E+00
        -11   -1    0    0    0    0  0.00000000000E+00  0.00000000000E+00  0.45593999997E+02  0.45594000000E+02  0.51100000000E-03 0.  1.
         11   -1    0    0    0    0 -0.00000000000E+00 -0.00000000000E+00 -0.45593999997E+02  0.45594000000E+02  0.51100000000E-03 0. -1.
    9900012    2    1    2    0    0  0.16137113889E+02  0.21592041842E+02  0.30439182020E+02  0.50528849522E+02  0.29999968606E+02 0.  0.
         12    1    1    2    0    0 -0.16137113889E+02 -0.21592041842E+02 -0.30439182020E+02  0.40659150478E+02  0.00000000000E+00 0. -1.
         11    1    3    3    0    0 -0.32767062460E+01  0.10251477256E+02  0.83029707469E+01  0.13592972936E+02  0.51100000000E-03 0.  1.
        -11    1    3    3    0    0  0.16672317878E+02  0.92539848530E+01  0.25685271930E+02  0.31989617276E+02  0.51100000000E-03 0. -1.
         12    1    3    3    0    0  0.27415022571E+01  0.20865797330E+01 -0.35490606570E+01  0.49462593093E+01  0.00000000000E+00 0. -1.
</event>
<event>
 7    1  0.2680581E-011  0.5052889E+02  0.7816164E-02  0.1300439E+00
        -11   -1    0    0    0    0  0.00000000000E+00  0.00000000000E+00  0.45593999997E+02  0.45594000000E+02  0.51100000000E-03 0.  1.
         11   -1    0    0    0    0 -0.00000000000E+00 -0.00000000000E+00 -0.45593999997E+02  0.45594000000E+02  0.51100000000E-03 0. -1.
    9900012    2    1    2    0    0  0.11951272413E+02  0.90949232018E+01  0.37783761876E+02  0.50528890297E+02  0.30000092546E+02 0.  0.
         12    1    1    2    0    0 -0.11951272413E+02 -0.90949232018E+01 -0.37783761876E+02  0.40659109703E+02  0.00000000000E+00 0. -1.
         11    1    3    3    0    0 -0.63168357989E+01  0.34325377519E+01  0.18983449843E+02  0.20299164962E+02  0.51100000000E-03 0. -1.
        -11    1    3    3    0    0  0.62271510251E+01  0.76037905399E+01  0.14037880835E+02  0.17136427255E+02  0.51100000000E-03 0.  1.
        -12    1    3    3    0    0  0.12040957187E+02 -0.19414050900E+01  0.47624311977E+01  0.13093298080E+02  0.00000000000E+00 0.  1.
</event>
<event>
 7    1  0.2680581E-011  0.5052885E+02  0.7816164E-02  0.1300439E+00
        -11   -1    0    0    0    0  0.00000000000E+00  0.00000000000E+00  0.45593999997E+02  0.45594000000E+02  0.51100000000E-03 0. -1.
         11   -1    0    0    0    0 -0.00000000000E+00 -0.00000000000E+00 -0.45593999997E+02  0.45594000000E+02  0.51100000000E-03 0.  1.
    9900012    2    1    2    0    0  0.35736675514E+02  0.19044910010E+01 -0.19298428977E+02  0.50528850676E+02  0.29999972115E+02 0.  0.
         12    1    1    2    0    0 -0.35736675514E+02 -0.19044910010E+01  0.19298428977E+02  0.40659149324E+02  0.00000000000E+00 0. -1.
         11    1    3    3    0    0  0.20454443254E+02 -0.79389741961E+01 -0.14832121759E+02  0.26484021527E+02  0.51100000000E-03 0. -1.
        -11    1    3    3    0    0  0.51141752551E+01 -0.18310862304E+00 -0.78486562868E+01  0.93696170187E+01  0.51100000000E-03 0.  1.
         12    1    3    3    0    0  0.10168057005E+02  0.10026573820E+02  0.33823490694E+01  0.14675212130E+02  0.00000000000E+00 0. -1.
</event>
<event>
 7    1  0.2680581E-011  0.5052886E+02  0.7816164E-02  0.1300439E+00
        -11   -1    0    0    0    0  0.00000000000E+00  0.00000000000E+00  0.45593999997E+02  0.45594000000E+02  0.51100000000E-03 0.  1.
         11   -1    0    0    0    0 -0.00000000000E+00 -0.00000000000E+00 -0.45593999997E+02  0.45594000000E+02  0.51100000000E-03 0. -1.
    9900012    2    1    2    0    0 -0.26725044225E+00 -0.27271455751E+02  0.30155626073E+02  0.50528861969E+02  0.30000006440E+02 0.  0.
         12    1    1    2    0    0  0.26725044225E+00  0.27271455751E+02 -0.30155626073E+02  0.40659138031E+02  0.00000000000E+00 0. -1.
         11    1    3    3    0    0  0.91184243614E+01 -0.63555315364E+01  0.86859751888E+01  0.14106190456E+02  0.51100000000E-03 0. -1.
        -11    1    3    3    0    0 -0.71808715019E+01 -0.12560622467E+02  0.23452881179E+02  0.27556701329E+02  0.51100000000E-03 0.  1.
         12    1    3    3    0    0 -0.22048033017E+01 -0.83553017471E+01 -0.19832302946E+01  0.88659701830E+01  0.00000000000E+00 0. -1.
</event>
<event>
 7    1  0.2680581E-011  0.5052891E+02  0.7816164E-02  0.1300439E+00
        -11   -1    0    0    0    0  0.00000000000E+00  0.00000000000E+00  0.45593999997E+02  0.45594000000E+02  0.51100000000E-03 0. -1.
         11   -1    0    0    0    0 -0.00000000000E+00 -0.00000000000E+00 -0.45593999997E+02  0.45594000000E+02  0.51100000000E-03 0.  1.
    9900012    2    1    2    0    0  0.24959408146E+02 -0.31848710422E+02  0.39811393617E+01  0.50528906538E+02  0.30000141912E+02 0.  0.
         12    1    1    2    0    0 -0.24959408146E+02  0.31848710422E+02 -0.39811393617E+01  0.40659093462E+02  0.00000000000E+00 0. -1.
         11    1    3    3    0    0  0.11203116601E+02 -0.70110151506E+01  0.48912585104E+01  0.14092145511E+02  0.51100000000E-03 0. -1.
        -11    1    3    3    0    0  0.18370467353E+02 -0.19150449825E+02 -0.63832803419E+01  0.27293956610E+02  0.51100000000E-03 0.  1.
         12    1    3    3    0    0 -0.46141758082E+01 -0.56872454465E+01  0.54731611932E+01  0.91428044168E+01  0.00000000000E+00 0. -1.
</event>
<event>
 7    1  0.2680581E-011  0.5052887E+02  0.7816164E-02  0.1300439E+00
        -11   -1    0    0    0    0  0.00000000000E+00  0.00000000000E+00  0.45593999997E+02  0.45594000000E+02  0.51100000000E-03 0. -1.
         11   -1    0    0    0    0 -0.00000000000E+00 -0.00000000000E+00 -0.45593999997E+02  0.45594000000E+02  0.51100000000E-03 0.  1.
    9900012    2    1    2    0    0 -0.40417106118E+02 -0.62349078467E+00 -0.43856464559E+01  0.50528866924E+02  0.30000021501E+02 0.  0.
         12    1    1    2    0    0  0.40417106118E+02  0.62349078467E+00  0.43856464559E+01  0.40659133076E+02  0.00000000000E+00 0. -1.
         11    1    3    3    0    0 -0.11697413590E+02  0.44734867078E+01 -0.66363303631E+01  0.14173300567E+02  0.51100000000E-03 0. -1.
        -11    1    3    3    0    0  0.17386954810E+01 -0.52151107781E+01  0.21332837416E+01  0.58967230041E+01  0.51100000000E-03 0.  1.
         12    1    3    3    0    0 -0.30458388009E+02  0.11813328567E+00  0.11740016564E+00  0.30458843352E+02  0.00000000000E+00 0. -1.
</event>
<event>
 7    1  0.2680581E-011  0.5052886E+02  0.7816164E-02  0.1300439E+00
        -11   -1    0    0    0    0  0.00000000000E+00  0.00000000000E+00  0.45593999997E+02  0.45594000000E+02  0.51100000000E-03 0.  1.
         11   -1    0    0    0    0 -0.00000000000E+00 -0.00000000000E+00 -0.45593999997E+02  0.45594000000E+02  0.51100000000E-03 0. -1.
    9900012    2    1    2    0    0  0.37944032553E+02  0.95051098239E+01  0.11093654357E+02  0.50528857287E+02  0.29999992210E+02 0.  0.
         12    1    1    2    0    0 -0.37944032553E+02 -0.95051098239E+01 -0.11093654357E+02  0.40659142713E+02  0.00000000000E+00 0. -1.
         11    1    3    3    0    0  0.62470532457E+00  0.41271486963E+01  0.42400886188E+01  0.59499550301E+01  0.51100000000E-03 0. -1.
        -11    1    3    3    0    0  0.19722078018E+02 -0.63242423630E+01  0.10358535519E+02  0.23157194588E+02  0.51100000000E-03 0.  1.
        -12    1    3    3    0    0  0.17597249210E+02  0.11702203491E+02 -0.35049697808E+01  0.21421707669E+02  0.00000000000E+00 0.  1.
</event>
<event>
 7    1  0.2680581E-011  0.5052886E+02  0.7816164E-02  0.1300439E+00
        -11   -1    0    0    0    0  0.00000000000E+00  0.00000000000E+00  0.45593999997E+02  0.45594000000E+02  0.51100000000E-03 0.  1.
         11   -1    0    0    0    0 -0.00000000000E+00 -0.00000000000E+00 -0.45593999997E+02  0.45594000000E+02  0.51100000000E-03 0. -1.
    9900012    2    1    2    0    0  0.15003897280E+02 -0.10586023018E+02  0.36276509621E+02  0.50528856290E+02  0.29999989178E+02 0.  0.
         12    1    1    2    0    0 -0.15003897280E+02  0.10586023018E+02 -0.36276509621E+02  0.40659143710E+02  0.00000000000E+00 0. -1.
         11    1    3    3    0    0 -0.40873590423E+01 -0.28468106329E+01 -0.57801287426E+00  0.50144724413E+01  0.51100000000E-03 0. -1.
        -11    1    3    3    0    0  0.54693123543E+01 -0.95215092868E+01  0.25238353139E+02  0.27523571464E+02  0.51100000000E-03 0.  1.
         12    1    3    3    0    0  0.13621943968E+02  0.17822969014E+01  0.11616169357E+02  0.17990812384E+02  0.00000000000E+00 0. -1.
</event>
<event>
 7    1  0.2680581E-011  0.5052886E+02  0.7816164E-02  0.1300439E+00
        -11   -1    0    0    0    0  0.00000000000E+00  0.00000000000E+00  0.45593999997E+02  0.45594000000E+02  0.51100000000E-03 0.  1.
         11   -1    0    0    0    0 -0.00000000000E+00 -0.00000000000E+00 -0.45593999997E+02  0.45594000000E+02  0.51100000000E-03 0. -1.
    9900012    2    1    2    0    0 -0.11253504260E+02  0.37963855593E+02  0.92341716186E+01  0.50528860620E+02  0.30000002341E+02 0.  0.
         12    1    1    2    0    0  0.11253504260E+02 -0.37963855593E+02 -0.92341716186E+01  0.40659139380E+02  0.00000000000E+00 0. -1.
         11    1    3    3    0    0  0.79408604835E+01  0.70907214480E+01  0.19443187486E+01  0.10822013284E+02  0.51100000000E-03 0. -1.
        -11    1    3    3    0    0 -0.71209257871E+01  0.14231283517E+02 -0.37797501858E+01  0.16356146439E+02  0.51100000000E-03 0.  1.
        -12    1    3    3    0    0 -0.12073438956E+02  0.16641850628E+02  0.11069603056E+02  0.23350700897E+02  0.00000000000E+00 0.  1.
</event>
<event>
 7    1  0.2680581E-011  0.5052886E+02  0.7816164E-02  0.1300439E+00
        -11   -1    0    0    0    0  0.00000000000E+00  0.00000000000E+00  0.45593999997E+02  0.45594000000E+02  0.51100000000E-03 0.  1.
         11   -1    0    0    0    0 -0.00000000000E+00 -0.00000000000E+00 -0.45593999997E+02  0.45594000000E+02  0.51100000000E-03 0. -1.
    9900012    2    1    2    0    0 -0.72873055533E+01 -0.11082979435E+02  0.38434734381E+02  0.50528855121E+02  0.29999985625E+02 0.  0.
         12    1    1    2    0    0  0.72873055533E+01  0.11082979435E+02 -0.38434734381E+02  0.40659144879E+02  0.00000000000E+00 0. -1.
         11    1    3    3    0    0  0.52247944421E+01 -0.46495584090E+01  0.47737339904E+01  0.84679045125E+01  0.51100000000E-03 0. -1.
        -11    1    3    3    0    0 -0.14195952607E+02 -0.89931680917E+01  0.34916300889E+02  0.38749841429E+02  0.51100000000E-03 0.  1.
         12    1    3    3    0    0  0.16838526114E+01  0.25597470657E+01 -0.12553004981E+01  0.33111091794E+01  0.00000000000E+00 0. -1.
</event>
<event>
 7    1  0.2680581E-011  0.5052882E+02  0.7816164E-02  0.1300439E+00
        -11   -1    0    0    0    0  0.00000000000E+00  0.00000000000E+00  0.45593999997E+02  0.45594000000E+02  0.51100000000E-03 0.  1.
         11   -1    0    0    0    0 -0.00000000000E+00 -0.00000000000E+00 -0.45593999997E+02  0.45594000000E+02  0.51100000000E-03 0. -1.
    9900012    2    1    2    0    0 -0.67308303376E+01  0.15812825670E+02  0.36848597744E+02  0.50528822827E+02  0.29999887464E+02 0.  0.
         12    1    1    2    0    0  0.67308303376E+01 -0.15812825670E+02 -0.36848597744E+02  0.40659177173E+02  0.00000000000E+00 0. -1.
         11    1    3    3    0    0  0.33667530668E+00  0.65277372830E+01 -0.26447208171E+01  0.70511880389E+01  0.51100000000E-03 0. -1.
        -11    1    3    3    0    0  0.38512410504E+01  0.25906656225E+01  0.16693979305E+02  0.17327219953E+02  0.51100000000E-03 0.  1.
         12    1    3    3    0    0 -0.10918746695E+02  0.66944227645E+01  0.22799339256E+02  0.26150414835E+02  0.00000000000E+00 0. -1.
</event>
<event>
 7    1  0.2680581E-011  0.5052889E+02  0.7816164E-02  0.1300439E+00
        -11   -1    0    0    0    0  0.00000000000E+00  0.00000000000E+00  0.45593999997E+02  0.45594000000E+02  0.51100000000E-03 0. -1.
         11   -1    0    0    0    0 -0.00000000000E+00 -0.00000000000E+00 -0.45593999997E+02  0.45594000000E+02  0.51100000000E-03 0.  1.
    9900012    2    1    2    0    0  0.31978384161E+02  0.44094703821E+00 -0.25106805506E+02  0.50528890682E+02  0.30000093717E+02 0.  0.
         12    1    1    2    0    0 -0.31978384161E+02 -0.44094703821E+00  0.25106805506E+02  0.40659109318E+02  0.00000000000E+00 0. -1.
         11    1    3    3    0    0 -0.44177724598E+00 -0.13117342553E+00  0.79176868465E+00  0.91611763095E+00  0.51100000000E-03 0. -1.
        -11    1    3    3    0    0  0.20037007916E+02  0.86565072750E+01 -0.27075095636E+02  0.34777544599E+02  0.51100000000E-03 0.  1.
        -12    1    3    3    0    0  0.12383153491E+02 -0.80843868113E+01  0.11765214454E+01  0.14835228452E+02  0.00000000000E+00 0.  1.
</event>
<event>
 7    1  0.2680581E-011  0.5052887E+02  0.7816164E-02  0.1300439E+00
        -11   -1    0    0    0    0  0.00000000000E+00  0.00000000000E+00  0.45593999997E+02  0.45594000000E+02  0.51100000000E-03 0. -1.
         11   -1    0    0    0    0 -0.00000000000E+00 -0.00000000000E+00 -0.45593999997E+02  0.45594000000E+02  0.51100000000E-03 0.  1.
    9900012    2    1    2    0    0  0.17250696833E+01  0.23672195806E+01 -0.40553487446E+02  0.50528868947E+02  0.30000027651E+02 0.  0.
         12    1    1    2    0    0 -0.17250696833E+01 -0.23672195806E+01  0.40553487446E+02  0.40659131053E+02  0.00000000000E+00 0. -1.
         11    1    3    3    0    0  0.21309564577E+01  0.24668583917E+01 -0.60130986490E+01  0.68398626721E+01  0.51100000000E-03 0. -1.
        -11    1    3    3    0    0 -0.92894193789E+01  0.85100589160E+01 -0.25248345628E+02  0.28216898703E+02  0.51100000000E-03 0.  1.
         12    1    3    3    0    0  0.88835326044E+01 -0.86096977271E+01 -0.92920431685E+01  0.15472107572E+02  0.00000000000E+00 0. -1.
</event>
<event>
 7    1  0.2680581E-011  0.5052886E+02  0.7816164E-02  0.1300439E+00
        -11   -1    0    0    0    0  0.00000000000E+00  0.00000000000E+00  0.45593999997E+02  0.45594000000E+02  0.51100000000E-03 0. -1.
         11   -1    0    0    0    0 -0.00000000000E+00 -0.00000000000E+00 -0.45593999997E+02  0.45594000000E+02  0.51100000000E-03 0.  1.
    9900012    2    1    2    0    0 -0.36141576482E+02  0.15599206665E+02 -0.10179232676E+02  0.50528861088E+02  0.30000003763E+02 0.  0.
         12    1    1    2    0    0  0.36141576482E+02 -0.15599206665E+02  0.10179232676E+02  0.40659138912E+02  0.00000000000E+00 0. -1.
         11    1    3    3    0    0 -0.51262145295E+01  0.21710896649E+01 -0.75814144641E+01  0.94058253903E+01  0.51100000000E-03 0.  1.
        -11    1    3    3    0    0 -0.32980225486E+02  0.16056479064E+02 -0.50490497686E+01  0.37026999566E+02  0.51100000000E-03 0. -1.
         12    1    3    3    0    0  0.19648635334E+01 -0.26283620641E+01  0.24512315565E+01  0.40960361312E+01  0.00000000000E+00 0. -1.
</event>
<event>
 7    1  0.2680581E-011  0.5052885E+02  0.7816164E-02  0.1300439E+00
        -11   -1    0    0    0    0  0.00000000000E+00  0.00000000000E+00  0.45593999997E+02  0.45594000000E+02  0.51100000000E-03 0. -1.
         11   -1    0    0    0    0 -0.00000000000E+00 -0.00000000000E+00 -0.45593999997E+02  0.45594000000E+02  0.51100000000E-03 0.  1.
    9900012    2    1    2    0    0  0.28838993165E+02 -0.80918239904E+01 -0.27495480125E+02  0.50528848883E+02  0.29999966663E+02 0.  0.
         12    1    1    2    0    0 -0.28838993165E+02  0.80918239904E+01  0.27495480125E+02  0.40659151117E+02  0.00000000000E+00 0. -1.
         11    1    3    3    0    0  0.72582914130E+01 -0.21738161047E+01 -0.57201855565E+00  0.75983864196E+01  0.51100000000E-03 0. -1.
        -11    1    3    3    0    0 -0.40465427581E+01 -0.66248965741E+01 -0.71481907841E+01  0.10552743466E+02  0.51100000000E-03 0.  1.
         12    1    3    3    0    0  0.25627244510E+02  0.70688868838E+00 -0.19775270785E+02  0.32377718997E+02  0.00000000000E+00 0. -1.
</event>
<event>
 7    1  0.2680581E-011  0.5052885E+02  0.7816164E-02  0.1300439E+00
        -11   -1    0    0    0    0  0.00000000000E+00  0.00000000000E+00  0.45593999997E+02  0.45594000000E+02  0.51100000000E-03 0. -1.
         11   -1    0    0    0    0 -0.00000000000E+00 -0.00000000000E+00 -0.45593999997E+02  0.45594000000E+02  0.51100000000E-03 0.  1.
    9900012    2    1    2    0    0 -0.76777732807E+01  0.39635186624E+02 -0.48239071200E+01  0.50528852184E+02  0.29999976698E+02 0.  0.
         12    1    1    2    0    0  0.76777732807E+01 -0.39635186624E+02  0.48239071200E+01  0.40659147816E+02  0.00000000000E+00 0. -1.
         11    1    3    3    0    0 -0.11589372769E+02  0.12771753802E+02 -0.11622087174E+02  0.20796734524E+02  0.51100000000E-03 0. -1.
        -11    1    3    3    0    0  0.17076176135E+01  0.14225228326E+02 -0.15731650647E+01  0.14413463408E+02  0.51100000000E-03 0.  1.
        -12    1    3    3    0    0  0.22039818743E+01  0.12638204496E+02  0.83713451184E+01  0.15318654252E+02  0.00000000000E+00 0.  1.
</event>
<event>
 7    1  0.2680581E-011  0.5052886E+02  0.7816164E-02  0.1300439E+00
        -11   -1    0    0    0    0  0.00000000000E+00  0.00000000000E+00  0.45593999997E+02  0.45594000000E+02  0.51100000000E-03 0.  1.
         11   -1    0    0    0    0 -0.00000000000E+00 -0.00000000000E+00 -0.45593999997E+02  0.45594000000E+02  0.51100000000E-03 0. -1.
    9900012    2    1    2    0    0 -0.16563727093E+02  0.18756149915E+01  0.37084909211E+02  0.50528862306E+02  0.30000007466E+02 0.  0.
         12    1    1    2    0    0  0.16563727093E+02 -0.18756149915E+01 -0.37084909211E+02  0.40659137694E+02  0.00000000000E+00 0. -1.
         11    1    3    3    0    0 -0.68142922718E+01 -0.32358793657E+01 -0.38880790675E-01  0.75436732705E+01  0.51100000000E-03 0. -1.
        -11    1    3    3    0    0 -0.35504040780E+01  0.94169764383E+01  0.78767560746E+01  0.12779988297E+02  0.51100000000E-03 0.  1.
         12    1    3    3    0    0 -0.61990307434E+01 -0.43054820811E+01  0.29247033927E+02  0.30205200738E+02  0.00000000000E+00 0. -1.
</event>
<event>
 7    1  0.2680581E-011  0.5052885E+02  0.7816164E-02  0.1300439E+00
        -11   -1    0    0    0    0  0.00000000000E+00  0.00000000000E+00  0.45593999997E+02  0.45594000000E+02  0.51100000000E-03 0.  1.
         11   -1    0    0    0    0 -0.00000000000E+00 -0.00000000000E+00 -0.45593999997E+02  0.45594000000E+02  0.51100000000E-03 0. -1.
    9900012    2    1    2    0    0  0.13400104116E+02 -0.23133820470E+02  0.30633805712E+02  0.50528849833E+02  0.29999969552E+02 0.  0.
         12    1    1    2    0    0 -0.13400104116E+02  0.23133820470E+02 -0.30633805712E+02  0.40659150167E+02  0.00000000000E+00 0. -1.
         11    1    3    3    0    0 -0.46333318662E+01  0.56727434697E+00  0.35416981951E+01  0.58594531087E+01  0.51100000000E-03 0. -1.
        -11    1    3    3    0    0  0.11522127607E+02 -0.11017411279E+01  0.58101189795E+01  0.12951090337E+02  0.51100000000E-03 0.  1.
        -12    1    3    3    0    0  0.65113083759E+01 -0.22599353690E+02  0.21281988538E+02  0.31718306387E+02  0.00000000000E+00 0.  1.
</event>
<event>
 7    1  0.2680581E-011  0.5052887E+02  0.7816164E-02  0.1300439E+00
        -11   -1    0    0    0    0  0.00000000000E+00  0.00000000000E+00  0.45593999997E+02  0.45594000000E+02  0.51100000000E-03 0.  1.
         11   -1    0    0    0    0 -0.00000000000E+00 -0.00000000000E+00 -0.45593999997E+02  0.45594000000E+02  0.51100000000E-03 0. -1.
    9900012    2    1    2    0    0 -0.15494694044E+02 -0.30330926606E+02  0.22206168992E+02  0.50528873182E+02  0.30000040525E+02 0.  0.
         12    1    1    2    0    0  0.15494694044E+02  0.30330926606E+02 -0.22206168992E+02  0.40659126818E+02  0.00000000000E+00 0. -1.
         11    1    3    3    0    0 -0.81522992769E+01 -0.11774064455E+02  0.17527241534E+02  0.22633885512E+02  0.51100000000E-03 0.  1.
        -11    1    3    3    0    0 -0.12000616422E+02 -0.67446844215E+01 -0.13627580750E+01  0.13833389761E+02  0.51100000000E-03 0. -1.
         12    1    3    3    0    0  0.46582216550E+01 -0.11812177729E+02  0.60416855330E+01  0.14061597910E+02  0.00000000000E+00 0. -1.
</event>
<event>
 7    1  0.2680581E-011  0.5052885E+02  0.7816164E-02  0.1300439E+00
        -11   -1    0    0    0    0  0.00000000000E+00  0.00000000000E+00  0.45593999997E+02  0.45594000000E+02  0.51100000000E-03 0.  1.
         11   -1    0    0    0    0 -0.00000000000E+00 -0.00000000000E+00 -0.45593999997E+02  0.45594000000E+02  0.51100000000E-03 0. -1.
    9900012    2    1    2    0    0 -0.17970835245E+02  0.35829734462E+02  0.68151268675E+01  0.50528846723E+02  0.29999960098E+02 0.  0.
         12    1    1    2    0    0  0.17970835245E+02 -0.35829734462E+02 -0.68151268675E+01  0.40659153277E+02  0.00000000000E+00 0. -1.
         11    1    3    3    0    0 -0.48148536412E+01  0.17226319114E+02  0.53021316905E+01  0.18655870028E+02  0.51100000000E-03 0. -1.
        -11    1    3    3    0    0 -0.17922317535E+02  0.74267160248E+01 -0.11492776238E+01  0.19434155913E+02  0.51100000000E-03 0.  1.
         12    1    3    3    0    0  0.47663359305E+01  0.11176699323E+02  0.26622728008E+01  0.12438820781E+02  0.00000000000E+00 0. -1.
</event>
<event>
 7    1  0.2680581E-011  0.5052886E+02  0.7816164E-02  0.1300439E+00
        -11   -1    0    0    0    0  0.00000000000E+00  0.00000000000E+00  0.45593999997E+02  0.45594000000E+02  0.51100000000E-03 0.  1.
         11   -1    0    0    0    0 -0.00000000000E+00 -0.00000000000E+00 -0.45593999997E+02  0.45594000000E+02  0.51100000000E-03 0. -1.
    9900012    2    1    2    0    0  0.19682156378E+02  0.16866539921E+01  0.35537775962E+02  0.50528860785E+02  0.30000002842E+02 0.  0.
         12    1    1    2    0    0 -0.19682156378E+02 -0.16866539921E+01 -0.35537775962E+02  0.40659139215E+02  0.00000000000E+00 0. -1.
         11    1    3    3    0    0 -0.41722398299E+00 -0.25546256427E+01  0.16222484754E+02  0.16427696122E+02  0.51100000000E-03 0. -1.
        -11    1    3    3    0    0  0.19705464387E+01  0.20062673936E+01  0.15093899369E+02  0.15353630208E+02  0.51100000000E-03 0.  1.
         12    1    3    3    0    0  0.18128833922E+02  0.22350122412E+01  0.42213918385E+01  0.18747534455E+02  0.00000000000E+00 0. -1.
</event>
<event>
 7    1  0.2680581E-011  0.5052887E+02  0.7816164E-02  0.1300439E+00
        -11   -1    0    0    0    0  0.00000000000E+00  0.00000000000E+00  0.45593999997E+02  0.45594000000E+02  0.51100000000E-03 0.  1.
         11   -1    0    0    0    0 -0.00000000000E+00 -0.00000000000E+00 -0.45593999997E+02  0.45594000000E+02  0.51100000000E-03 0. -1.
    9900012    2    1    2    0    0 -0.22551796867E+02  0.29687588019E+02  0.16224325627E+02  0.50528866139E+02  0.30000019116E+02 0.  0.
         12    1    1    2    0    0  0.22551796867E+02 -0.29687588019E+02 -0.16224325627E+02  0.40659133861E+02  0.00000000000E+00 0. -1.
         11    1    3    3    0    0 -0.11299242302E+02  0.52834547723E+01  0.10458468546E+02  0.16277817283E+02  0.51100000000E-03 0. -1.
        -11    1    3    3    0    0 -0.43702629311E+01  0.20353137797E+02  0.12082036469E+02  0.24069171605E+02  0.51100000000E-03 0.  1.
         12    1    3    3    0    0 -0.68822916341E+01  0.40509954496E+01 -0.63161793887E+01  0.10181877250E+02  0.00000000000E+00 0. -1.
</event>
<event>
 7    1  0.2680581E-011  0.5052885E+02  0.7816164E-02  0.1300439E+00
        -11   -1    0    0    0    0  0.00000000000E+00  0.00000000000E+00  0.45593999997E+02  0.45594000000E+02  0.51100000000E-03 0. -1.
         11   -1    0    0    0    0 -0.00000000000E+00 -0.00000000000E+00 -0.45593999997E+02  0.45594000000E+02  0.51100000000E-03 0.  1.
    9900012    2    1    2    0    0  0.12310765905E+02  0.27526120181E+02 -0.27274969185E+02  0.50528853508E+02  0.29999980723E+02 0.  0.
         12    1    1    2    0    0 -0.12310765905E+02 -0.27526120181E+02  0.27274969185E+02  0.40659146492E+02  0.00000000000E+00 0. -1.
         11    1    3    3    0    0  0.14249172525E+02  0.65312140451E+01 -0.71720692010E+01  0.17237582529E+02  0.51100000000E-03 0. -1.
        -11    1    3    3    0    0  0.70961725939E+01  0.10467175839E+02 -0.10194312251E+02  0.16243196670E+02  0.51100000000E-03 0.  1.
         12    1    3    3    0    0 -0.90345792142E+01  0.10527730297E+02 -0.99085877330E+01  0.17048074309E+02  0.00000000000E+00 0. -1.
</event>
<event>
 7    1  0.2680581E-011  0.5052885E+02  0.7816164E-02  0.1300439E+00
        -11   -1    0    0    0    0  0.00000000000E+00  0.00000000000E+00  0.45593999997E+02  0.45594000000E+02  0.51100000000E-03 0.  1.
         11   -1    0    0    0    0 -0.00000000000E+00 -0.00000000000E+00 -0.45593999997E+02  0.45594000000E+02  0.51100000000E-03 0. -1.
    9900012    2    1    2    0    0  0.23855435310E+02 -0.13174138664E+02  0.30174939783E+02  0.50528847103E+02  0.29999961255E+02 0.  0.
         12    1    1    2    0    0 -0.23855435310E+02  0.13174138664E+02 -0.30174939783E+02  0.40659152897E+02  0.00000000000E+00 0. -1.
         11    1    3    3    0    0  0.18064145926E+01 -0.11478323519E+02  0.54088359326E+01  0.12816807360E+02  0.51100000000E-03 0. -1.
        -11    1    3    3    0    0  0.88720760190E+01 -0.51878233747E+01  0.21294793321E+02  0.23645199663E+02  0.51100000000E-03 0.  1.
         12    1    3    3    0    0  0.13176944698E+02  0.34920082298E+01  0.34713105294E+01  0.14066840081E+02  0.00000000000E+00 0. -1.
</event>
<event>
 7    1  0.2680581E-011  0.5052889E+02  0.7816164E-02  0.1300439E+00
        -11   -1    0    0    0    0  0.00000000000E+00  0.00000000000E+00  0.45593999997E+02  0.45594000000E+02  0.51100000000E-03 0. -1.
         11   -1    0    0    0    0 -0.00000000000E+00 -0.00000000000E+00 -0.45593999997E+02  0.45594000000E+02  0.51100000000E-03 0.  1.
    9900012    2    1    2    0    0  0.23298876639E+02  0.13423892005E+02 -0.30497944630E+02  0.50528890863E+02  0.30000094266E+02 0.  0.
         12    1    1    2    0    0 -0.23298876639E+02 -0.13423892005E+02  0.30497944630E+02  0.40659109137E+02  0.00000000000E+00 0. -1.
         11    1    3    3    0    0  0.24723781213E+01  0.39724466942E+01 -0.18501912079E+02  0.19084384642E+02  0.51100000000E-03 0. -1.
        -11    1    3    3    0    0  0.17985856047E+02 -0.82886240992E+00 -0.99940357972E+01  0.20592687595E+02  0.51100000000E-03 0.  1.
         12    1    3    3    0    0  0.28406424708E+01  0.10280307721E+02 -0.20019967538E+01  0.10851818625E+02  0.00000000000E+00 0. -1.
</event>
<event>
 7    1  0.2680581E-011  0.5052887E+02  0.7816164E-02  0.1300439E+00
        -11   -1    0    0    0    0  0.00000000000E+00  0.00000000000E+00  0.45593999997E+02  0.45594000000E+02  0.51100000000E-03 0. -1.
         11   -1    0    0    0    0 -0.00000000000E+00 -0.00000000000E+00 -0.45593999997E+02  0.45594000000E+02  0.51100000000E-03 0.  1.
    9900012    2    1    2    0    0 -0.87781941485E+01  0.38724612886E+02 -0.87471589990E+01  0.50528866632E+02  0.30000020614E+02 0.  0.
         12    1    1    2    0    0  0.87781941485E+01 -0.38724612886E+02  0.87471589990E+01  0.40659133368E+02  0.00000000000E+00 0. -1.
         11    1    3    3    0    0 -0.89401505511E+01  0.17881672544E+02 -0.27843743353E+01  0.20184975738E+02  0.51100000000E-03 0. -1.
        -11    1    3    3    0    0 -0.66160234592E+01  0.55078168163E+01 -0.99022291108E+01  0.13121050039E+02  0.51100000000E-03 0.  1.
         12    1    3    3    0    0  0.67779798619E+01  0.15335123526E+02  0.39394444470E+01  0.17222840855E+02  0.00000000000E+00 0. -1.
</event>
<event>
 7    1  0.2680581E-011  0.5052886E+02  0.7816164E-02  0.1300439E+00
        -11   -1    0    0    0    0  0.00000000000E+00  0.00000000000E+00  0.45593999997E+02  0.45594000000E+02  0.51100000000E-03 0.  1.
         11   -1    0    0    0    0 -0.00000000000E+00 -0.00000000000E+00 -0.45593999997E+02  0.45594000000E+02  0.51100000000E-03 0. -1.
    9900012    2    1    2    0    0 -0.53952589431E+01 -0.37454422880E+02 -0.14873558255E+02  0.50528863911E+02  0.30000012344E+02 0.  0.
         12    1    1    2    0    0  0.53952589431E+01  0.37454422880E+02  0.14873558255E+02  0.40659136089E+02  0.00000000000E+00 0. -1.
         11    1    3    3    0    0  0.36807676968E+01 -0.16643650753E+01 -0.65555213496E+01  0.77001962552E+01  0.51100000000E-03 0. -1.
        -11    1    3    3    0    0 -0.97373159217E+00 -0.23232612554E+02 -0.13647765022E+02  0.26962268630E+02  0.51100000000E-03 0.  1.
        -12    1    3    3    0    0 -0.81022950477E+01 -0.12557445250E+02  0.53297281165E+01  0.15866399026E+02  0.00000000000E+00 0.  1.
</event>
<event>
 7    1  0.2680581E-011  0.5052887E+02  0.7816164E-02  0.1300439E+00
        -11   -1    0    0    0    0  0.00000000000E+00  0.00000000000E+00  0.45593999997E+02  0.45594000000E+02  0.51100000000E-03 0. -1.
         11   -1    0    0    0    0 -0.00000000000E+00 -0.00000000000E+00 -0.45593999997E+02  0.45594000000E+02  0.51100000000E-03 0.  1.
    9900012    2    1    2    0    0  0.71021819413E+01 -0.36097448338E+02 -0.17311799428E+02  0.50528866164E+02  0.30000019193E+02 0.  0.
         12    1    1    2    0    0 -0.71021819413E+01  0.36097448338E+02  0.17311799428E+02  0.40659133836E+02  0.00000000000E+00 0. -1.
         11    1    3    3    0    0 -0.41987034948E+01 -0.77052860026E+01 -0.12550099125E+02  0.15313573448E+02  0.51100000000E-03 0. -1.
        -11    1    3    3    0    0  0.44417023076E+01 -0.22668030002E+01  0.44433168636E+01  0.66790852848E+01  0.51100000000E-03 0.  1.
        -12    1    3    3    0    0  0.68591831284E+01 -0.26125359335E+02 -0.92050171663E+01  0.28536207432E+02  0.00000000000E+00 0.  1.
</event>
<event>
 7    1  0.2680581E-011  0.5052886E+02  0.7816164E-02  0.1300439E+00
        -11   -1    0    0    0    0  0.00000000000E+00  0.00000000000E+00  0.45593999997E+02  0.45594000000E+02  0.51100000000E-03 0.  1.
         11   -1    0    0    0    0 -0.00000000000E+00 -0.00000000000E+00 -0.45593999997E+02  0.45594000000E+02  0.51100000000E-03 0. -1.
    9900012    2    1    2    0    0 -0.40402952175E+02 -0.30817826803E+01  0.33570532122E+01  0.50528859143E+02  0.29999997851E+02 0.  0.
         12    1    1    2    0    0  0.40402952175E+02  0.30817826803E+01 -0.33570532122E+01  0.40659140857E+02  0.00000000000E+00 0. -1.
         11    1    3    3    0    0 -0.15131101017E+01 -0.40773829649E+01  0.51621806641E+01  0.67500121105E+01  0.51100000000E-03 0. -1.
        -11    1    3    3    0    0 -0.17082760334E+02 -0.93553667051E+01 -0.24565900851E+01  0.19631057585E+02  0.51100000000E-03 0.  1.
        -12    1    3    3    0    0 -0.21807081740E+02  0.10350966990E+02  0.65146263323E+00  0.24147789447E+02  0.00000000000E+00 0.  1.
</event>
<event>
 7    1  0.2680581E-011  0.5052886E+02  0.7816164E-02  0.1300439E+00
        -11   -1    0    0    0    0  0.00000000000E+00  0.00000000000E+00  0.45593999997E+02  0.45594000000E+02  0.51100000000E-03 0.  1.
         11   -1    0    0    0    0 -0.00000000000E+00 -0.00000000000E+00 -0.45593999997E+02  0.45594000000E+02  0.51100000000E-03 0. -1.
    9900012    2    1    2    0    0 -0.15956461192E+02 -0.37329918931E+02  0.22436957665E+01  0.50528859923E+02  0.30000000221E+02 0.  0.
         12    1    1    2    0    0  0.15956461192E+02  0.37329918931E+02 -0.22436957665E+01  0.40659140077E+02  0.00000000000E+00 0. -1.
         11    1    3    3    0    0  0.29593738699E+01 -0.73010325875E+01 -0.69902130631E+01  0.10532143631E+02  0.51100000000E-03 0. -1.
        -11    1    3    3    0    0 -0.64939881553E+01 -0.24413792727E+02  0.53618533605E+01  0.25825464743E+02  0.51100000000E-03 0.  1.
        -12    1    3    3    0    0 -0.12421846906E+02 -0.56150936163E+01  0.38720554691E+01  0.14171251548E+02  0.00000000000E+00 0.  1.
</event>
<event>
 7    1  0.2680581E-011  0.5052887E+02  0.7816164E-02  0.1300439E+00
        -11   -1    0    0    0    0  0.00000000000E+00  0.00000000000E+00  0.45593999997E+02  0.45594000000E+02  0.51100000000E-03 0.  1.
         11   -1    0    0    0    0 -0.00000000000E+00 -0.00000000000E+00 -0.45593999997E+02  0.45594000000E+02  0.51100000000E-03 0. -1.
    9900012    2    1    2    0    0  0.33154691614E+02  0.10019194495E+02 -0.21296648042E+02  0.50528867543E+02  0.30000023383E+02 0.  0.
         12    1    1    2    0    0 -0.33154691614E+02 -0.10019194495E+02  0.21296648042E+02  0.40659132457E+02  0.00000000000E+00 0. -1.
         11    1    3    3    0    0 -0.88483927966E+00 -0.83859269224E+00 -0.19526243655E+01  0.23019384067E+01  0.51100000000E-03 0. -1.
        -11    1    3    3    0    0  0.25499307416E+02  0.11820890260E+02 -0.25263358625E+02  0.37791340470E+02  0.51100000000E-03 0.  1.
         12    1    3    3    0    0  0.85402234777E+01 -0.96310307309E+00  0.59193349485E+01  0.10435588666E+02  0.00000000000E+00 0. -1.
</event>
<event>
 7    1  0.3587934E-011  0.5052886E+02  0.7816164E-02  0.1300439E+00
        -11   -1    0    0    0    0  0.00000000000E+00  0.00000000000E+00  0.45593999997E+02  0.45594000000E+02  0.51100000000E-03 0. -1.
         11   -1    0    0    0    0 -0.00000000000E+00 -0.00000000000E+00 -0.45593999997E+02  0.45594000000E+02  0.51100000000E-03 0.  1.
    9900012    2    1    2    0    0  0.23241622273E+02  0.13087674270E+02 -0.30687218513E+02  0.50528860760E+02  0.30000002765E+02 0.  0.
         12    1    1    2    0    0 -0.23241622273E+02 -0.13087674270E+02  0.30687218513E+02  0.40659139240E+02  0.00000000000E+00 0. -1.
         11    1    3    3    0    0  0.87999387726E+00  0.26186099783E+00  0.26661857400E+01  0.28198416742E+01  0.51100000000E-03 0. -1.
        -11    1    3    3    0    0 -0.28280329968E+01  0.75994777551E+01 -0.10738345514E+02  0.13455924250E+02  0.51100000000E-03 0.  1.
        -12    1    3    3    0    0  0.25189661393E+02  0.52263355166E+01 -0.22615058740E+02  0.34253094836E+02  0.00000000000E+00 0.  1.
</event>
<event>
 7    1  0.2680581E-011  0.5052886E+02  0.7816164E-02  0.1300439E+00
        -11   -1    0    0    0    0  0.00000000000E+00  0.00000000000E+00  0.45593999997E+02  0.45594000000E+02  0.51100000000E-03 0.  1.
         11   -1    0    0    0    0 -0.00000000000E+00 -0.00000000000E+00 -0.45593999997E+02  0.45594000000E+02  0.51100000000E-03 0. -1.
    9900012    2    1    2    0    0  0.14622150376E+02 -0.24274948450E+02  0.29156221719E+02  0.50528859960E+02  0.30000000335E+02 0.  0.
         12    1    1    2    0    0 -0.14622150376E+02  0.24274948450E+02 -0.29156221719E+02  0.40659140040E+02  0.00000000000E+00 0. -1.
         11    1    3    3    0    0  0.72088101279E+01 -0.83686571267E+01  0.11396453208E+02  0.15870743888E+02  0.51100000000E-03 0.  1.
        -11    1    3    3    0    0  0.11181116515E+02 -0.95453237726E+01  0.21753405172E+02  0.26255308211E+02  0.51100000000E-03 0. -1.
         12    1    3    3    0    0 -0.37677762667E+01 -0.63609675504E+01 -0.39936366611E+01  0.84028078613E+01  0.00000000000E+00 0. -1.
</event>
<event>
 7    1  0.2680581E-011  0.5052885E+02  0.7816164E-02  0.1300439E+00
        -11   -1    0    0    0    0  0.00000000000E+00  0.00000000000E+00  0.45593999997E+02  0.45594000000E+02  0.51100000000E-03 0. -1.
         11   -1    0    0    0    0 -0.00000000000E+00 -0.00000000000E+00 -0.45593999997E+02  0.45594000000E+02  0.51100000000E-03 0.  1.
    9900012    2    1    2    0    0  0.19781877210E+02 -0.27078297258E+02 -0.22991512317E+02  0.50528849899E+02  0.29999969753E+02 0.  0.
         12    1    1    2    0    0 -0.19781877210E+02  0.27078297258E+02  0.22991512317E+02  0.40659150101E+02  0.00000000000E+00 0. -1.
         11    1    3    3    0    0  0.62741716758E+01 -0.26279308903E+01  0.18486422191E+01  0.70490232867E+01  0.51100000000E-03 0. -1.
        -11    1    3    3    0    0 -0.55721375423E+01 -0.75420370688E+01 -0.28179777511E+01  0.97914268012E+01  0.51100000000E-03 0.  1.
        -12    1    3    3    0    0  0.19079843076E+02 -0.16908329299E+02 -0.22022176785E+02  0.33688399811E+02  0.00000000000E+00 0.  1.
</event>
<event>
 7    1  0.2680581E-011  0.5052886E+02  0.7816164E-02  0.1300439E+00
        -11   -1    0    0    0    0  0.00000000000E+00  0.00000000000E+00  0.45593999997E+02  0.45594000000E+02  0.51100000000E-03 0.  1.
         11   -1    0    0    0    0 -0.00000000000E+00 -0.00000000000E+00 -0.45593999997E+02  0.45594000000E+02  0.51100000000E-03 0. -1.
    9900012    2    1    2    0    0 -0.19549585062E+02  0.24890741463E+02  0.25523133392E+02  0.50528860501E+02  0.30000001979E+02 0.  0.
         12    1    1    2    0    0  0.19549585062E+02 -0.24890741463E+02 -0.25523133392E+02  0.40659139499E+02  0.00000000000E+00 0. -1.
         11    1    3    3    0    0  0.21851496366E+01  0.15765430557E+01  0.64835704744E+01  0.70211860322E+01  0.51100000000E-03 0. -1.
        -11    1    3    3    0    0 -0.15297093134E+02  0.17072619561E+02  0.24059449147E+02  0.33231498470E+02  0.51100000000E-03 0.  1.
        -12    1    3    3    0    0 -0.64376415641E+01  0.62415788457E+01 -0.50198862297E+01  0.10276175999E+02  0.00000000000E+00 0.  1.
</event>
<event>
 7    1  0.2680581E-011  0.5052886E+02  0.7816164E-02  0.1300439E+00
        -11   -1    0    0    0    0  0.00000000000E+00  0.00000000000E+00  0.45593999997E+02  0.45594000000E+02  0.51100000000E-03 0. -1.
         11   -1    0    0    0    0 -0.00000000000E+00 -0.00000000000E+00 -0.45593999997E+02  0.45594000000E+02  0.51100000000E-03 0.  1.
    9900012    2    1    2    0    0  0.13414914997E+02 -0.34404867769E+02 -0.17015008696E+02  0.50528863370E+02  0.30000010700E+02 0.  0.
         12    1    1    2    0    0 -0.13414914997E+02  0.34404867769E+02  0.17015008696E+02  0.40659136630E+02  0.00000000000E+00 0. -1.
         11    1    3    3    0    0 -0.11772940079E+01 -0.10920249591E+02 -0.12744592732E+02  0.16824461848E+02  0.51100000000E-03 0.  1.
        -11    1    3    3    0    0 -0.37714250207E+01 -0.57425508511E+01  0.24608601474E+01  0.72976962042E+01  0.51100000000E-03 0. -1.
        -12    1    3    3    0    0  0.18363634025E+02 -0.17742067327E+02 -0.67312761112E+01  0.26406705318E+02  0.00000000000E+00 0.  1.
</event>
<event>
 7    1  0.2680581E-011  0.5052882E+02  0.7816164E-02  0.1300439E+00
        -11   -1    0    0    0    0  0.00000000000E+00  0.00000000000E+00  0.45593999997E+02  0.45594000000E+02  0.51100000000E-03 0.  1.
         11   -1    0    0    0    0 -0.00000000000E+00 -0.00000000000E+00 -0.45593999997E+02  0.45594000000E+02  0.51100000000E-03 0. -1.
    9900012    2    1    2    0    0 -0.11236022086E+02 -0.27402395403E+02  0.27857307533E+02  0.50528818391E+02  0.29999873982E+02 0.  0.
         12    1    1    2    0    0  0.11236022086E+02  0.27402395403E+02 -0.27857307533E+02  0.40659181609E+02  0.00000000000E+00 0. -1.
         11    1    3    3    0    0  0.98811908662E+00 -0.62592612517E+01 -0.41434165889E+01  0.75711711139E+01  0.51100000000E-03 0. -1.
        -11    1    3    3    0    0 -0.55417039483E+01  0.81523099797E+00  0.78071527268E+01  0.96086793157E+01  0.51100000000E-03 0.  1.
         12    1    3    3    0    0 -0.66824372245E+01 -0.21958365149E+02  0.24193571395E+02  0.33348967962E+02  0.00000000000E+00 0. -1.
</event>
<event>
 7    1  0.2680581E-011  0.5052885E+02  0.7816164E-02  0.1300439E+00
        -11   -1    0    0    0    0  0.00000000000E+00  0.00000000000E+00  0.45593999997E+02  0.45594000000E+02  0.51100000000E-03 0.  1.
         11   -1    0    0    0    0 -0.00000000000E+00 -0.00000000000E+00 -0.45593999997E+02  0.45594000000E+02  0.51100000000E-03 0. -1.
    9900012    2    1    2    0    0 -0.38907639813E+00  0.14418864700E+02  0.38014619127E+02  0.50528852111E+02  0.29999976476E+02 0.  0.
         12    1    1    2    0    0  0.38907639813E+00 -0.14418864700E+02 -0.38014619127E+02  0.40659147889E+02  0.00000000000E+00 0. -1.
         11    1    3    3    0    0  0.27895726951E+01 -0.51840081377E+01  0.52599222571E+01  0.78944561944E+01  0.51100000000E-03 0. -1.
        -11    1    3    3    0    0  0.78079630638E+01  0.63542995841E+01  0.12732574338E+02  0.16231446637E+02  0.51100000000E-03 0.  1.
         12    1    3    3    0    0 -0.10986612157E+02  0.13248573254E+02  0.20022122533E+02  0.26402949280E+02  0.00000000000E+00 0. -1.
</event>
<event>
 7    1  0.2680581E-011  0.5052887E+02  0.7816164E-02  0.1300439E+00
        -11   -1    0    0    0    0  0.00000000000E+00  0.00000000000E+00  0.45593999997E+02  0.45594000000E+02  0.51100000000E-03 0.  1.
         11   -1    0    0    0    0 -0.00000000000E+00 -0.00000000000E+00 -0.45593999997E+02  0.45594000000E+02  0.51100000000E-03 0. -1.
    9900012    2    1    2    0    0  0.28669465579E+02 -0.32567253236E+01  0.28646467806E+02  0.50528872683E+02  0.30000039006E+02 0.  0.
         12    1    1    2    0    0 -0.28669465579E+02  0.32567253236E+01 -0.28646467806E+02  0.40659127317E+02  0.00000000000E+00 0. -1.
         11    1    3    3    0    0 -0.47287475956E+00  0.24508133829E+01  0.27342260072E+01  0.37021735367E+01  0.51100000000E-03 0. -1.
        -11    1    3    3    0    0  0.25603721742E+02  0.21580785211E+01  0.27948327117E+02  0.37964679096E+02  0.51100000000E-03 0.  1.
         12    1    3    3    0    0  0.35386185966E+01 -0.78656172277E+01 -0.20360853182E+01  0.88620200500E+01  0.00000000000E+00 0. -1.
</event>
<event>
 7    1  0.2680581E-011  0.5052887E+02  0.7816164E-02  0.1300439E+00
        -11   -1    0    0    0    0  0.00000000000E+00  0.00000000000E+00  0.45593999997E+02  0.45594000000E+02  0.51100000000E-03 0.  1.
         11   -1    0    0    0    0 -0.00000000000E+00 -0.00000000000E+00 -0.45593999997E+02  0.45594000000E+02  0.51100000000E-03 0. -1.
    9900012    2    1    2    0    0 -0.17950352188E+02  0.24388798278E+02  0.27131835024E+02  0.50528866993E+02  0.30000021711E+02 0.  0.
         12    1    1    2    0    0  0.17950352188E+02 -0.24388798278E+02 -0.27131835024E+02  0.40659133007E+02  0.00000000000E+00 0. -1.
         11    1    3    3    0    0  0.49852035865E+01  0.51490575151E+01  0.58975894788E+00  0.71911656892E+01  0.51100000000E-03 0. -1.
        -11    1    3    3    0    0 -0.56742590012E+01  0.42342732772E+01  0.17257398885E+02  0.18653259821E+02  0.51100000000E-03 0.  1.
        -12    1    3    3    0    0 -0.17261296773E+02  0.15005467486E+02  0.92846771913E+01  0.24684441483E+02  0.00000000000E+00 0.  1.
</event>
<event>
 7    1  0.2680581E-011  0.5052887E+02  0.7816164E-02  0.1300439E+00
        -11   -1    0    0    0    0  0.00000000000E+00  0.00000000000E+00  0.45593999997E+02  0.45594000000E+02  0.51100000000E-03 0.  1.
         11   -1    0    0    0    0 -0.00000000000E+00 -0.00000000000E+00 -0.45593999997E+02  0.45594000000E+02  0.51100000000E-03 0. -1.
    9900012    2    1    2    0    0 -0.10794509592E+02  0.37883192957E+02  0.10075087350E+02  0.50528866573E+02  0.30000020435E+02 0.  0.
         12    1    1    2    0    0  0.10794509592E+02 -0.37883192957E+02 -0.10075087350E+02  0.40659133427E+02  0.00000000000E+00 0. -1.
         11    1    3    3    0    0 -0.15586219179E+01 -0.20970909040E+01  0.29376215666E+01  0.39315026735E+01  0.51100000000E-03 0. -1.
        -11    1    3    3    0    0 -0.38888150882E+01  0.99571009410E+01 -0.72114422181E+01  0.12894636135E+02  0.51100000000E-03 0.  1.
        -12    1    3    3    0    0 -0.53470725855E+01  0.30023182920E+02  0.14348908002E+02  0.33702727764E+02  0.00000000000E+00 0.  1.
</event>
<event>
 7    1  0.2680581E-011  0.5052889E+02  0.7816164E-02  0.1300439E+00
        -11   -1    0    0    0    0  0.00000000000E+00  0.00000000000E+00  0.45593999997E+02  0.45594000000E+02  0.51100000000E-03 0.  1.
         11   -1    0    0    0    0 -0.00000000000E+00 -0.00000000000E+00 -0.45593999997E+02  0.45594000000E+02  0.51100000000E-03 0. -1.
    9900012    2    1    2    0    0 -0.26575610437E+02 -0.85544786320E+01  0.29558770486E+02  0.50528891704E+02  0.30000096825E+02 0.  0.
         12    1    1    2    0    0  0.26575610437E+02  0.85544786320E+01 -0.29558770486E+02  0.40659108296E+02  0.00000000000E+00 0. -1.
         11    1    3    3    0    0  0.40235079980E+01 -0.63176461226E+01  0.69543589689E+01  0.10220781676E+02  0.51100000000E-03 0. -1.
        -11    1    3    3    0    0 -0.77059991389E+01  0.30424646562E+01  0.11876588852E+02  0.14480758852E+02  0.51100000000E-03 0.  1.
        -12    1    3    3    0    0 -0.22893119296E+02 -0.52792971656E+01  0.10727822665E+02  0.25827351176E+02  0.00000000000E+00 0.  1.
</event>
<event>
 7    1  0.2680581E-011  0.5052885E+02  0.7816164E-02  0.1300439E+00
        -11   -1    0    0    0    0  0.00000000000E+00  0.00000000000E+00  0.45593999997E+02  0.45594000000E+02  0.51100000000E-03 0.  1.
         11   -1    0    0    0    0 -0.00000000000E+00 -0.00000000000E+00 -0.45593999997E+02  0.45594000000E+02  0.51100000000E-03 0. -1.
    9900012    2    1    2    0    0 -0.53704117317E+01 -0.38538770059E+02 -0.11793588756E+02  0.50528845366E+02  0.29999955975E+02 0.  0.
         12    1    1    2    0    0  0.53704117317E+01  0.38538770059E+02  0.11793588756E+02  0.40659154634E+02  0.00000000000E+00 0. -1.
         11    1    3    3    0    0 -0.51272030629E+01 -0.77364272319E+01 -0.12333814951E+02  0.15435786636E+02  0.51100000000E-03 0. -1.
        -11    1    3    3    0    0  0.76307061618E+01 -0.90757379802E+01  0.15694346895E+01  0.11960761762E+02  0.51100000000E-03 0.  1.
        -12    1    3    3    0    0 -0.78739148305E+01 -0.21726604846E+02 -0.10292084939E+01  0.23132296968E+02  0.00000000000E+00 0.  1.
</event>
<event>
 7    1  0.2680581E-011  0.5052886E+02  0.7816164E-02  0.1300439E+00
        -11   -1    0    0    0    0  0.00000000000E+00  0.00000000000E+00  0.45593999997E+02  0.45594000000E+02  0.51100000000E-03 0. -1.
         11   -1    0    0    0    0 -0.00000000000E+00 -0.00000000000E+00 -0.45593999997E+02  0.45594000000E+02  0.51100000000E-03 0.  1.
    9900012    2    1    2    0    0  0.29641118935E+02  0.14968366562E+02 -0.23463122030E+02  0.50528855584E+02  0.29999987033E+02 0.  0.
         12    1    1    2    0    0 -0.29641118935E+02 -0.14968366562E+02  0.23463122030E+02  0.40659144416E+02  0.00000000000E+00 0. -1.
         11    1    3    3    0    0  0.26742184375E+01 -0.11839115729E+01  0.34557735437E+01  0.45271913932E+01  0.51100000000E-03 0. -1.
        -11    1    3    3    0    0  0.78775509537E+01  0.22151771224E+01 -0.19630411187E+02  0.21267718786E+02  0.51100000000E-03 0.  1.
        -12    1    3    3    0    0  0.19089349544E+02  0.13937101013E+02 -0.72884843860E+01  0.24733945405E+02  0.00000000000E+00 0.  1.
</event>
<event>
 7    1  0.2680581E-011  0.5052886E+02  0.7816164E-02  0.1300439E+00
        -11   -1    0    0    0    0  0.00000000000E+00  0.00000000000E+00  0.45593999997E+02  0.45594000000E+02  0.51100000000E-03 0. -1.
         11   -1    0    0    0    0 -0.00000000000E+00 -0.00000000000E+00 -0.45593999997E+02  0.45594000000E+02  0.51100000000E-03 0.  1.
    9900012    2    1    2    0    0  0.12706725262E+02  0.38383740781E+02  0.42887453041E+01  0.50528858845E+02  0.29999996945E+02 0.  0.
         12    1    1    2    0    0 -0.12706725262E+02 -0.38383740781E+02 -0.42887453041E+01  0.40659141155E+02  0.00000000000E+00 0. -1.
         11    1    3    3    0    0  0.12345663226E+02  0.68805744649E+01  0.73705048009E+01  0.15939951278E+02  0.51100000000E-03 0. -1.
        -11    1    3    3    0    0 -0.10080227212E+01  0.65853113768E+01  0.50306025487E+01  0.83480176090E+01  0.51100000000E-03 0.  1.
         12    1    3    3    0    0  0.13690847565E+01  0.24917854939E+02 -0.81123620455E+01  0.26240889958E+02  0.00000000000E+00 0. -1.
</event>
<event>
 7    1  0.2680581E-011  0.5052885E+02  0.7816164E-02  0.1300439E+00
        -11   -1    0    0    0    0  0.00000000000E+00  0.00000000000E+00  0.45593999997E+02  0.45594000000E+02  0.51100000000E-03 0. -1.
         11   -1    0    0    0    0 -0.00000000000E+00 -0.00000000000E+00 -0.45593999997E+02  0.45594000000E+02  0.51100000000E-03 0.  1.
    9900012    2    1    2    0    0  0.30054579432E+02 -0.17338316167E+02 -0.21196019037E+02  0.50528853730E+02  0.29999981399E+02 0.  0.
         12    1    1    2    0    0 -0.30054579432E+02  0.17338316167E+02  0.21196019037E+02  0.40659146270E+02  0.00000000000E+00 0. -1.
         11    1    3    3    0    0 -0.54775790691E+00 -0.11166580222E+01 -0.93071251767E+01  0.93898638530E+01  0.51100000000E-03 0. -1.
        -11    1    3    3    0    0  0.25114614453E+02 -0.18213674104E+02 -0.15070104781E+02  0.34490431164E+02  0.51100000000E-03 0.  1.
         12    1    3    3    0    0  0.54877228856E+01  0.19920159590E+01  0.31812109201E+01  0.66485587136E+01  0.00000000000E+00 0. -1.
</event>
<event>
 7    1  0.2680581E-011  0.5052887E+02  0.7816164E-02  0.1300439E+00
        -11   -1    0    0    0    0  0.00000000000E+00  0.00000000000E+00  0.45593999997E+02  0.45594000000E+02  0.51100000000E-03 0.  1.
         11   -1    0    0    0    0 -0.00000000000E+00 -0.00000000000E+00 -0.45593999997E+02  0.45594000000E+02  0.51100000000E-03 0. -1.
    9900012    2    1    2    0    0  0.32413682831E+02  0.24061024001E+02 -0.48564765491E+01  0.50528867261E+02  0.30000022526E+02 0.  0.
         12    1    1    2    0    0 -0.32413682831E+02 -0.24061024001E+02  0.48564765491E+01  0.40659132739E+02  0.00000000000E+00 0. -1.
         11    1    3    3    0    0  0.30005292587E+02  0.15184447606E+02 -0.36916173569E+01  0.33830652836E+02  0.51100000000E-03 0. -1.
        -11    1    3    3    0    0  0.62973622117E+01  0.93698680739E+01 -0.38711082736E+01  0.11934683828E+02  0.51100000000E-03 0.  1.
         12    1    3    3    0    0 -0.38889719684E+01 -0.49329167952E+00  0.27062490814E+01  0.47635305963E+01  0.00000000000E+00 0. -1.
</event>
<event>
 7    1  0.2680581E-011  0.5052879E+02  0.7816164E-02  0.1300439E+00
        -11   -1    0    0    0    0  0.00000000000E+00  0.00000000000E+00  0.45593999997E+02  0.45594000000E+02  0.51100000000E-03 0.  1.
         11   -1    0    0    0    0 -0.00000000000E+00 -0.00000000000E+00 -0.45593999997E+02  0.45594000000E+02  0.51100000000E-03 0. -1.
    9900012    2    1    2    0    0 -0.16746861777E+02 -0.12128178624E+02  0.35008876002E+02  0.50528788312E+02  0.29999782553E+02 0.  0.
         12    1    1    2    0    0  0.16746861777E+02  0.12128178624E+02 -0.35008876002E+02  0.40659211688E+02  0.00000000000E+00 0. -1.
         11    1    3    3    0    0 -0.60277869905E+00 -0.13461723075E+02  0.23678687994E+02  0.27244478261E+02  0.51100000000E-03 0.  1.
        -11    1    3    3    0    0 -0.71179997682E+01 -0.51309546578E+01  0.25730236821E+01  0.91440181283E+01  0.51100000000E-03 0. -1.
        -12    1    3    3    0    0 -0.90260833095E+01  0.64644991086E+01  0.87571643258E+01  0.14140291923E+02  0.00000000000E+00 0.  1.
</event>
<event>
 7    1  0.2680581E-011  0.5052886E+02  0.7816164E-02  0.1300439E+00
        -11   -1    0    0    0    0  0.00000000000E+00  0.00000000000E+00  0.45593999997E+02  0.45594000000E+02  0.51100000000E-03 0. -1.
         11   -1    0    0    0    0 -0.00000000000E+00 -0.00000000000E+00 -0.45593999997E+02  0.45594000000E+02  0.51100000000E-03 0.  1.
    9900012    2    1    2    0    0  0.21018335415E+02 -0.33996502232E+02 -0.74587333983E+01  0.50528864599E+02  0.30000014437E+02 0.  0.
         12    1    1    2    0    0 -0.21018335415E+02  0.33996502232E+02  0.74587333983E+01  0.40659135401E+02  0.00000000000E+00 0. -1.
         11    1    3    3    0    0  0.41031675841E+01  0.47887955785E+01 -0.11236141019E+01  0.64055488622E+01  0.51100000000E-03 0. -1.
        -11    1    3    3    0    0 -0.89160442189E+00 -0.82842735558E+01 -0.74736089302E+00  0.83655660512E+01  0.51100000000E-03 0.  1.
         12    1    3    3    0    0  0.17806772252E+02 -0.30501024255E+02 -0.55877584033E+01  0.35757749686E+02  0.00000000000E+00 0. -1.
</event>
<event>
 7    1  0.4596738E-011  0.5052886E+02  0.7816164E-02  0.1300439E+00
        -11   -1    0    0    0    0  0.00000000000E+00  0.00000000000E+00  0.45593999997E+02  0.45594000000E+02  0.51100000000E-03 0. -1.
         11   -1    0    0    0    0 -0.00000000000E+00 -0.00000000000E+00 -0.45593999997E+02  0.45594000000E+02  0.51100000000E-03 0.  1.
    9900012    2    1    2    0    0  0.16697256760E+02  0.11381490974E+01 -0.37054982384E+02  0.50528862206E+02  0.30000007161E+02 0.  0.
         12    1    1    2    0    0 -0.16697256760E+02 -0.11381490974E+01  0.37054982384E+02  0.40659137794E+02  0.00000000000E+00 0. -1.
         11    1    3    3    0    0  0.49897082925E+01  0.35904177006E+01  0.49573942472E+00  0.61671748757E+01  0.51100000000E-03 0. -1.
        -11    1    3    3    0    0  0.93067022001E+01  0.83244227038E+01 -0.17960840483E+02  0.21874700233E+02  0.51100000000E-03 0.  1.
         12    1    3    3    0    0  0.24008462679E+01 -0.10776691307E+02 -0.19589881326E+02  0.22486987097E+02  0.00000000000E+00 0. -1.
</event>
<event>
 7    1  0.2680581E-011  0.5052887E+02  0.7816164E-02  0.1300439E+00
        -11   -1    0    0    0    0  0.00000000000E+00  0.00000000000E+00  0.45593999997E+02  0.45594000000E+02  0.51100000000E-03 0.  1.
         11   -1    0    0    0    0 -0.00000000000E+00 -0.00000000000E+00 -0.45593999997E+02  0.45594000000E+02  0.51100000000E-03 0. -1.
    9900012    2    1    2    0    0 -0.13884536524E+01  0.23682142302E+02  0.33021099590E+02  0.50528872049E+02  0.30000037081E+02 0.  0.
         12    1    1    2    0    0  0.13884536524E+01 -0.23682142302E+02 -0.33021099590E+02  0.40659127951E+02  0.00000000000E+00 0. -1.
         11    1    3    3    0    0  0.66001060602E+01  0.23322972512E+02  0.24912088817E+02  0.34758230914E+02  0.51100000000E-03 0. -1.
        -11    1    3    3    0    0  0.10271816579E+01 -0.96016510004E+00 -0.18164070223E+01  0.22970315430E+01  0.51100000000E-03 0.  1.
        -12    1    3    3    0    0 -0.90157413704E+01  0.13193348899E+01  0.99254177961E+01  0.13473609592E+02  0.00000000000E+00 0.  1.
</event>
<event>
 7    1  0.2680581E-011  0.5052886E+02  0.7816164E-02  0.1300439E+00
        -11   -1    0    0    0    0  0.00000000000E+00  0.00000000000E+00  0.45593999997E+02  0.45594000000E+02  0.51100000000E-03 0.  1.
         11   -1    0    0    0    0 -0.00000000000E+00 -0.00000000000E+00 -0.45593999997E+02  0.45594000000E+02  0.51100000000E-03 0. -1.
    9900012    2    1    2    0    0 -0.17603481765E+02 -0.33738261750E+02 -0.14318278249E+02  0.50528856279E+02  0.29999989145E+02 0.  0.
         12    1    1    2    0    0  0.17603481765E+02  0.33738261750E+02  0.14318278249E+02  0.40659143721E+02  0.00000000000E+00 0. -1.
         11    1    3    3    0    0 -0.43148192558E+01  0.60529566108E+00 -0.57775757854E+01  0.72363271253E+01  0.51100000000E-03 0. -1.
        -11    1    3    3    0    0 -0.11969138888E+02 -0.54190272373E+01 -0.52605100145E+01  0.14152706730E+02  0.51100000000E-03 0.  1.
         12    1    3    3    0    0 -0.13195236207E+01 -0.28924530174E+02 -0.32801924491E+01  0.29139822423E+02  0.00000000000E+00 0. -1.
</event>
<event>
 7    1  0.2680581E-011  0.5052886E+02  0.7816164E-02  0.1300439E+00
        -11   -1    0    0    0    0  0.00000000000E+00  0.00000000000E+00  0.45593999997E+02  0.45594000000E+02  0.51100000000E-03 0.  1.
         11   -1    0    0    0    0 -0.00000000000E+00 -0.00000000000E+00 -0.45593999997E+02  0.45594000000E+02  0.51100000000E-03 0. -1.
    9900012    2    1    2    0    0 -0.22977199978E+02 -0.25587478910E+02  0.21690890161E+02  0.50528861891E+02  0.30000006205E+02 0.  0.
         12    1    1    2    0    0  0.22977199978E+02  0.25587478910E+02 -0.21690890161E+02  0.40659138109E+02  0.00000000000E+00 0. -1.
         11    1    3    3    0    0 -0.39021544961E+01  0.31420009757E+01 -0.19606211312E+01  0.53798713110E+01  0.51100000000E-03 0. -1.
        -11    1    3    3    0    0  0.30682814705E+01 -0.33734110044E+01  0.45573876668E+01  0.64470175735E+01  0.51100000000E-03 0.  1.
        -12    1    3    3    0    0 -0.22143326952E+02 -0.25356068881E+02  0.19094123625E+02  0.38701973007E+02  0.00000000000E+00 0.  1.
</event>
<event>
 7    1  0.2680581E-011  0.5052886E+02  0.7816164E-02  0.1300439E+00
        -11   -1    0    0    0    0  0.00000000000E+00  0.00000000000E+00  0.45593999997E+02  0.45594000000E+02  0.51100000000E-03 0. -1.
         11   -1    0    0    0    0 -0.00000000000E+00 -0.00000000000E+00 -0.45593999997E+02  0.45594000000E+02  0.51100000000E-03 0.  1.
    9900012    2    1    2    0    0 -0.11937786630E+01 -0.19477146485E+02 -0.35670453270E+02  0.50528861062E+02  0.30000003684E+02 0.  0.
         12    1    1    2    0    0  0.11937786630E+01  0.19477146485E+02  0.35670453270E+02  0.40659138938E+02  0.00000000000E+00 0. -1.
         11    1    3    3    0    0 -0.69754681164E+01 -0.70585269116E+01 -0.28398482775E+02  0.30082449731E+02  0.51100000000E-03 0. -1.
        -11    1    3    3    0    0  0.31760004055E+01 -0.71041620321E+01 -0.10982975067E+02  0.13460380319E+02  0.51100000000E-03 0.  1.
         12    1    3    3    0    0  0.26056890479E+01 -0.53144575413E+01  0.37110045721E+01  0.69860310124E+01  0.00000000000E+00 0. -1.
</event>
<event>
 7    1  0.2680581E-011  0.5052886E+02  0.7816164E-02  0.1300439E+00
        -11   -1    0    0    0    0  0.00000000000E+00  0.00000000000E+00  0.45593999997E+02  0.45594000000E+02  0.51100000000E-03 0.  1.
         11   -1    0    0    0    0 -0.00000000000E+00 -0.00000000000E+00 -0.45593999997E+02  0.45594000000E+02  0.51100000000E-03 0. -1.
    9900012    2    1    2    0    0 -0.25003389555E+02 -0.22789244361E+02  0.22553191471E+02  0.50528860888E+02  0.30000003155E+02 0.  0.
         12    1    1    2    0    0  0.25003389555E+02  0.22789244361E+02 -0.22553191471E+02  0.40659139112E+02  0.00000000000E+00 0. -1.
         11    1    3    3    0    0  0.20552476187E+01 -0.51619783960E+01  0.55236562143E+01  0.78345926486E+01  0.51100000000E-03 0. -1.
        -11    1    3    3    0    0 -0.11898105249E+02 -0.20322827915E+02  0.12402120449E+02  0.26615687759E+02  0.51100000000E-03 0.  1.
         12    1    3    3    0    0 -0.15160531924E+02  0.26955619503E+01  0.46274148081E+01  0.16078580480E+02  0.00000000000E+00 0. -1.
</event>
<event>
 7    1  0.2680581E-011  0.5052886E+02  0.7816164E-02  0.1300439E+00
        -11   -1    0    0    0    0  0.00000000000E+00  0.00000000000E+00  0.45593999997E+02  0.45594000000E+02  0.51100000000E-03 0.  1.
         11   -1    0    0    0    0 -0.00000000000E+00 -0.00000000000E+00 -0.45593999997E+02  0.45594000000E+02  0.51100000000E-03 0. -1.
    9900012    2    1    2    0    0 -0.16562003770E+02 -0.71928648715E+00  0.37126109866E+02  0.50528863564E+02  0.30000011289E+02 0.  0.
         12    1    1    2    0    0  0.16562003770E+02  0.71928648715E+00 -0.37126109866E+02  0.40659136436E+02  0.00000000000E+00 0. -1.
         11    1    3    3    0    0 -0.60974203394E+01  0.46084801411E+01  0.49114817764E+01  0.90851129606E+01  0.51100000000E-03 0. -1.
        -11    1    3    3    0    0 -0.17763800976E+02 -0.32447231881E+01  0.25879782865E+02  0.31556996294E+02  0.51100000000E-03 0.  1.
        -12    1    3    3    0    0  0.72992175460E+01 -0.20830434401E+01  0.63348452250E+01  0.98867543098E+01  0.00000000000E+00 0.  1.
</event>
<event>
 7    1  0.2680581E-011  0.5052886E+02  0.7816164E-02  0.1300439E+00
        -11   -1    0    0    0    0  0.00000000000E+00  0.00000000000E+00  0.45593999997E+02  0.45594000000E+02  0.51100000000E-03 0.  1.
         11   -1    0    0    0    0 -0.00000000000E+00 -0.00000000000E+00 -0.45593999997E+02  0.45594000000E+02  0.51100000000E-03 0. -1.
    9900012    2    1    2    0    0  0.14435910213E+02 -0.16257450040E+02  0.34357899651E+02  0.50528862603E+02  0.30000008367E+02 0.  0.
         12    1    1    2    0    0 -0.14435910213E+02  0.16257450040E+02 -0.34357899651E+02  0.40659137397E+02  0.00000000000E+00 0. -1.
         11    1    3    3    0    0  0.13912450167E+01 -0.29509900726E+01  0.15356483940E+02  0.15699219865E+02  0.51100000000E-03 0. -1.
        -11    1    3    3    0    0  0.44097177156E+01  0.59476665214E+01  0.84566730019E+01  0.11239913963E+02  0.51100000000E-03 0.  1.
         12    1    3    3    0    0  0.86349474805E+01 -0.19254126489E+02  0.10544742709E+02  0.23589728774E+02  0.00000000000E+00 0. -1.
</event>
<event>
 7    1  0.2680581E-011  0.5052889E+02  0.7816164E-02  0.1300439E+00
        -11   -1    0    0    0    0  0.00000000000E+00  0.00000000000E+00  0.45593999997E+02  0.45594000000E+02  0.51100000000E-03 0.  1.
         11   -1    0    0    0    0 -0.00000000000E+00 -0.00000000000E+00 -0.45593999997E+02  0.45594000000E+02  0.51100000000E-03 0. -1.
    9900012    2    1    2    0    0 -0.35734598909E+02 -0.90823177305E+01  0.17138065846E+02  0.50528888407E+02  0.30000086803E+02 0.  0.
         12    1    1    2    0    0  0.35734598909E+02  0.90823177305E+01 -0.17138065846E+02  0.40659111593E+02  0.00000000000E+00 0. -1.
         11    1    3    3    0    0 -0.13967108257E+02  0.40764311067E+01  0.38908906024E-01  0.14549876899E+02  0.51100000000E-03 0. -1.
        -11    1    3    3    0    0 -0.54287031462E+01  0.21798494661E+01  0.11464895063E+02  0.12871145272E+02  0.51100000000E-03 0.  1.
        -12    1    3    3    0    0 -0.16338787507E+02 -0.15338598303E+02  0.56342618767E+01  0.23107866236E+02  0.00000000000E+00 0.  1.
</event>
<event>
 7    1  0.2680581E-011  0.5052886E+02  0.7816164E-02  0.1300439E+00
        -11   -1    0    0    0    0  0.00000000000E+00  0.00000000000E+00  0.45593999997E+02  0.45594000000E+02  0.51100000000E-03 0.  1.
         11   -1    0    0    0    0 -0.00000000000E+00 -0.00000000000E+00 -0.45593999997E+02  0.45594000000E+02  0.51100000000E-03 0. -1.
    9900012    2    1    2    0    0 -0.10642341910E+01 -0.34733415412E+02 -0.21109782761E+02  0.50528859960E+02  0.30000000335E+02 0.  0.
         12    1    1    2    0    0  0.10642341910E+01  0.34733415412E+02  0.21109782761E+02  0.40659140040E+02  0.00000000000E+00 0. -1.
         11    1    3    3    0    0 -0.64766220183E+01 -0.20964605613E+02 -0.49799541237E+01  0.22500250323E+02  0.51100000000E-03 0. -1.
        -11    1    3    3    0    0  0.38401634268E+01 -0.10078721075E+02  0.62183077789E+00  0.10803432206E+02  0.51100000000E-03 0.  1.
         12    1    3    3    0    0  0.15722244005E+01 -0.36900887231E+01 -0.16751659415E+02  0.17225177430E+02  0.00000000000E+00 0. -1.
</event>
<event>
 7    1  0.2680581E-011  0.5052886E+02  0.7816164E-02  0.1300439E+00
        -11   -1    0    0    0    0  0.00000000000E+00  0.00000000000E+00  0.45593999997E+02  0.45594000000E+02  0.51100000000E-03 0. -1.
         11   -1    0    0    0    0 -0.00000000000E+00 -0.00000000000E+00 -0.45593999997E+02  0.45594000000E+02  0.51100000000E-03 0.  1.
    9900012    2    1    2    0    0 -0.67937038742E+01 -0.20356065586E+02 -0.34534641192E+02  0.50528864978E+02  0.30000015587E+02 0.  0.
         12    1    1    2    0    0  0.67937038742E+01  0.20356065586E+02  0.34534641192E+02  0.40659135022E+02  0.00000000000E+00 0. -1.
         11    1    3    3    0    0 -0.15569341921E+02 -0.76831718867E+01 -0.12657018950E+02  0.21485708437E+02  0.51100000000E-03 0. -1.
        -11    1    3    3    0    0  0.43747761590E+00 -0.89659152280E+01 -0.62212959334E+01  0.10921700687E+02  0.51100000000E-03 0.  1.
         12    1    3    3    0    0  0.83381604311E+01 -0.37069784712E+01 -0.15656326309E+02  0.18121455854E+02  0.00000000000E+00 0. -1.
</event>
<event>
 7    1  0.2680581E-011  0.5052886E+02  0.7816164E-02  0.1300439E+00
        -11   -1    0    0    0    0  0.00000000000E+00  0.00000000000E+00  0.45593999997E+02  0.45594000000E+02  0.51100000000E-03 0. -1.
         11   -1    0    0    0    0 -0.00000000000E+00 -0.00000000000E+00 -0.45593999997E+02  0.45594000000E+02  0.51100000000E-03 0.  1.
    9900012    2    1    2    0    0  0.94930105608E+01  0.32824432827E+02 -0.22036444401E+02  0.50528861768E+02  0.30000005831E+02 0.  0.
         12    1    1    2    0    0 -0.94930105608E+01 -0.32824432827E+02  0.22036444401E+02  0.40659138232E+02  0.00000000000E+00 0. -1.
         11    1    3    3    0    0  0.10036245929E+02  0.79481154569E+00 -0.13947687443E+02  0.17201626173E+02  0.51100000000E-03 0.  1.
        -11    1    3    3    0    0 -0.12019678108E+01  0.56765616020E+01 -0.18030473097E+00  0.58052207793E+01  0.51100000000E-03 0. -1.
        -12    1    3    3    0    0  0.65873244229E+00  0.26353059679E+02 -0.79084522269E+01  0.27522014816E+02  0.00000000000E+00 0.  1.
</event>
<event>
 7    1  0.2680581E-011  0.5052887E+02  0.7816164E-02  0.1300439E+00
        -11   -1    0    0    0    0  0.00000000000E+00  0.00000000000E+00  0.45593999997E+02  0.45594000000E+02  0.51100000000E-03 0. -1.
         11   -1    0    0    0    0 -0.00000000000E+00 -0.00000000000E+00 -0.45593999997E+02  0.45594000000E+02  0.51100000000E-03 0.  1.
    9900012    2    1    2    0    0  0.30388747338E+02  0.27707680342E+00 -0.27011331115E+02  0.50528871321E+02  0.30000034867E+02 0.  0.
         12    1    1    2    0    0 -0.30388747338E+02 -0.27707680342E+00  0.27011331115E+02  0.40659128679E+02  0.00000000000E+00 0. -1.
         11    1    3    3    0    0 -0.41791257817E+01 -0.68605498337E+00 -0.78599417769E+01  0.89282948393E+01  0.51100000000E-03 0. -1.
        -11    1    3    3    0    0  0.79487705292E+01 -0.49462752809E+01 -0.26534550676E+01  0.97308486853E+01  0.51100000000E-03 0.  1.
        -12    1    3    3    0    0  0.26619102590E+02  0.59094070677E+01 -0.16497934271E+02  0.31869727796E+02  0.00000000000E+00 0.  1.
</event>
<event>
 7    1  0.2680581E-011  0.5052886E+02  0.7816164E-02  0.1300439E+00
        -11   -1    0    0    0    0  0.00000000000E+00  0.00000000000E+00  0.45593999997E+02  0.45594000000E+02  0.51100000000E-03 0.  1.
         11   -1    0    0    0    0 -0.00000000000E+00 -0.00000000000E+00 -0.45593999997E+02  0.45594000000E+02  0.51100000000E-03 0. -1.
    9900012    2    1    2    0    0 -0.29927906229E+02  0.10858975255E+02  0.25289695978E+02  0.50528860345E+02  0.30000001506E+02 0.  0.
         12    1    1    2    0    0  0.29927906229E+02 -0.10858975255E+02 -0.25289695978E+02  0.40659139655E+02  0.00000000000E+00 0. -1.
         11    1    3    3    0    0 -0.37991809700E+00  0.29337215935E+01 -0.19197014053E+01  0.35265158294E+01  0.51100000000E-03 0. -1.
        -11    1    3    3    0    0 -0.74830365276E+01  0.11313022185E+02  0.26626556928E+01  0.13822808768E+02  0.51100000000E-03 0.  1.
        -12    1    3    3    0    0 -0.22064951604E+02 -0.33877685239E+01  0.24546741690E+02  0.33179535748E+02  0.00000000000E+00 0.  1.
</event>
<event>
 7    1  0.2680581E-011  0.5052886E+02  0.7816164E-02  0.1300439E+00
        -11   -1    0    0    0    0  0.00000000000E+00  0.00000000000E+00  0.45593999997E+02  0.45594000000E+02  0.51100000000E-03 0. -1.
         11   -1    0    0    0    0 -0.00000000000E+00 -0.00000000000E+00 -0.45593999997E+02  0.45594000000E+02  0.51100000000E-03 0.  1.
    9900012    2    1    2    0    0 -0.14704541273E+02 -0.27668808412E+02 -0.25910991032E+02  0.50528856511E+02  0.29999989851E+02 0.  0.
         12    1    1    2    0    0  0.14704541273E+02  0.27668808412E+02  0.25910991032E+02  0.40659143489E+02  0.00000000000E+00 0. -1.
         11    1    3    3    0    0  0.37380589391E+01 -0.36136094855E+01 -0.89808456788E+00  0.52761552572E+01  0.51100000000E-03 0. -1.
        -11    1    3    3    0    0 -0.23551387041E+00 -0.18611952887E+02 -0.10774451262E+02  0.21506953697E+02  0.51100000000E-03 0.  1.
         12    1    3    3    0    0 -0.18207086342E+02 -0.54432460395E+01 -0.14238455202E+02  0.23745747557E+02  0.00000000000E+00 0. -1.
</event>
<event>
 7    1  0.2680581E-011  0.5052886E+02  0.7816164E-02  0.1300439E+00
        -11   -1    0    0    0    0  0.00000000000E+00  0.00000000000E+00  0.45593999997E+02  0.45594000000E+02  0.51100000000E-03 0. -1.
         11   -1    0    0    0    0 -0.00000000000E+00 -0.00000000000E+00 -0.45593999997E+02  0.45594000000E+02  0.51100000000E-03 0.  1.
    9900012    2    1    2    0    0  0.17417207605E+02  0.23311724314E+02 -0.28396654897E+02  0.50528860553E+02  0.30000002136E+02 0.  0.
         12    1    1    2    0    0 -0.17417207605E+02 -0.23311724314E+02  0.28396654897E+02  0.40659139447E+02  0.00000000000E+00 0. -1.
         11    1    3    3    0    0  0.14335994999E+02  0.10290795210E+02 -0.16512187322E+01  0.17724213445E+02  0.51100000000E-03 0. -1.
        -11    1    3    3    0    0  0.93352710248E+00  0.12527921562E+02 -0.10393078856E+02  0.16304489562E+02  0.51100000000E-03 0.  1.
        -12    1    3    3    0    0  0.21476855032E+01  0.49300754148E+00 -0.16352357310E+02  0.16500157546E+02  0.00000000000E+00 0.  1.
</event>
<event>
 7    1  0.2680581E-011  0.5052886E+02  0.7816164E-02  0.1300439E+00
        -11   -1    0    0    0    0  0.00000000000E+00  0.00000000000E+00  0.45593999997E+02  0.45594000000E+02  0.51100000000E-03 0.  1.
         11   -1    0    0    0    0 -0.00000000000E+00 -0.00000000000E+00 -0.45593999997E+02  0.45594000000E+02  0.51100000000E-03 0. -1.
    9900012    2    1    2    0    0  0.34107431977E+02  0.74018438827E+01  0.20858122492E+02  0.50528862247E+02  0.30000007287E+02 0.  0.
         12    1    1    2    0    0 -0.34107431977E+02 -0.74018438827E+01 -0.20858122492E+02  0.40659137753E+02  0.00000000000E+00 0. -1.
         11    1    3    3    0    0  0.10952255845E+02 -0.30234629412E+01  0.16001494952E+01  0.11474045273E+02  0.51100000000E-03 0. -1.
        -11    1    3    3    0    0  0.26460645813E+02  0.11930340331E+02  0.12966799581E+02  0.31790512561E+02  0.51100000000E-03 0.  1.
         12    1    3    3    0    0 -0.33054696814E+01 -0.15050335066E+01  0.62911734157E+01  0.72643044139E+01  0.00000000000E+00 0. -1.
</event>
<event>
 7    1  0.2680581E-011  0.5052887E+02  0.7816164E-02  0.1300439E+00
        -11   -1    0    0    0    0  0.00000000000E+00  0.00000000000E+00  0.45593999997E+02  0.45594000000E+02  0.51100000000E-03 0. -1.
         11   -1    0    0    0    0 -0.00000000000E+00 -0.00000000000E+00 -0.45593999997E+02  0.45594000000E+02  0.51100000000E-03 0.  1.
    9900012    2    1    2    0    0 -0.27883221190E+02  0.27460929459E+02 -0.11026696181E+02  0.50528871882E+02  0.30000036572E+02 0.  0.
         12    1    1    2    0    0  0.27883221190E+02 -0.27460929459E+02  0.11026696181E+02  0.40659128118E+02  0.00000000000E+00 0. -1.
         11    1    3    3    0    0  0.15354620636E+01  0.39405467380E+01 -0.76637436206E+00  0.42980091050E+01  0.51100000000E-03 0. -1.
        -11    1    3    3    0    0 -0.65302369730E+01 -0.51669795035E+01 -0.10477316242E+01  0.83928191885E+01  0.51100000000E-03 0.  1.
        -12    1    3    3    0    0 -0.22888446280E+02  0.28687362224E+02 -0.92125901945E+01  0.37838043588E+02  0.00000000000E+00 0.  1.
</event>
<event>
 7    1  0.2680581E-011  0.5052885E+02  0.7816164E-02  0.1300439E+00
        -11   -1    0    0    0    0  0.00000000000E+00  0.00000000000E+00  0.45593999997E+02  0.45594000000E+02  0.51100000000E-03 0. -1.
         11   -1    0    0    0    0 -0.00000000000E+00 -0.00000000000E+00 -0.45593999997E+02  0.45594000000E+02  0.51100000000E-03 0.  1.
    9900012    2    1    2    0    0  0.18965653616E+01  0.81947098592E+01 -0.39779595322E+02  0.50528850552E+02  0.29999971737E+02 0.  0.
         12    1    1    2    0    0 -0.18965653616E+01 -0.81947098592E+01  0.39779595322E+02  0.40659149448E+02  0.00000000000E+00 0. -1.
         11    1    3    3    0    0  0.32808480348E+01 -0.16685761693E+01  0.15179055870E+00  0.36839043005E+01  0.51100000000E-03 0. -1.
        -11    1    3    3    0    0  0.92843535832E+01  0.10145314166E+02 -0.20728294664E+02  0.24875466245E+02  0.51100000000E-03 0.  1.
        -12    1    3    3    0    0 -0.10668636256E+02 -0.28202813771E+00 -0.19203091217E+02  0.21969480006E+02  0.00000000000E+00 0.  1.
</event>
<event>
 7    1  0.2680581E-011  0.5052887E+02  0.7816164E-02  0.1300439E+00
        -11   -1    0    0    0    0  0.00000000000E+00  0.00000000000E+00  0.45593999997E+02  0.45594000000E+02  0.51100000000E-03 0. -1.
         11   -1    0    0    0    0 -0.00000000000E+00 -0.00000000000E+00 -0.45593999997E+02  0.45594000000E+02  0.51100000000E-03 0.  1.
    9900012    2    1    2    0    0  0.12539995231E+02 -0.37529573591E+01 -0.38494532589E+02  0.50528865619E+02  0.30000017537E+02 0.  0.
         12    1    1    2    0    0 -0.12539995231E+02  0.37529573591E+01  0.38494532589E+02  0.40659134381E+02  0.00000000000E+00 0. -1.
         11    1    3    3    0    0 -0.32361282248E+01 -0.11099902861E+01  0.21112958631E+01  0.40202207409E+01  0.51100000000E-03 0. -1.
        -11    1    3    3    0    0  0.56087522617E+01 -0.62513981898E+01 -0.61676331036E+01  0.10420066200E+02  0.51100000000E-03 0.  1.
        -12    1    3    3    0    0  0.10167371194E+02  0.36084311168E+01 -0.34438195349E+02  0.36088578678E+02  0.00000000000E+00 0.  1.
</event>
<event>
 7    1  0.2680581E-011  0.5052886E+02  0.7816164E-02  0.1300439E+00
        -11   -1    0    0    0    0  0.00000000000E+00  0.00000000000E+00  0.45593999997E+02  0.45594000000E+02  0.51100000000E-03 0. -1.
         11   -1    0    0    0    0 -0.00000000000E+00 -0.00000000000E+00 -0.45593999997E+02  0.45594000000E+02  0.51100000000E-03 0.  1.
    9900012    2    1    2    0    0  0.18611643196E+02 -0.29269901747E+02 -0.21214278850E+02  0.50528855422E+02  0.29999986540E+02 0.  0.
         12    1    1    2    0    0 -0.18611643196E+02  0.29269901747E+02  0.21214278850E+02  0.40659144578E+02  0.00000000000E+00 0. -1.
         11    1    3    3    0    0  0.10116889942E+02 -0.19896298742E+02 -0.58287172869E+01  0.23069202656E+02  0.51100000000E-03 0. -1.
        -11    1    3    3    0    0 -0.13324104437E+01 -0.39476956444E+01 -0.15686138020E+02  0.16230050669E+02  0.51100000000E-03 0.  1.
         12    1    3    3    0    0  0.98271636979E+01 -0.54259073605E+01  0.30057645679E+00  0.11229602096E+02  0.00000000000E+00 0. -1.
</event>
<event>
 7    1  0.2680581E-011  0.5052886E+02  0.7816164E-02  0.1300439E+00
        -11   -1    0    0    0    0  0.00000000000E+00  0.00000000000E+00  0.45593999997E+02  0.45594000000E+02  0.51100000000E-03 0. -1.
         11   -1    0    0    0    0 -0.00000000000E+00 -0.00000000000E+00 -0.45593999997E+02  0.45594000000E+02  0.51100000000E-03 0.  1.
    9900012    2    1    2    0    0 -0.28043625533E+02 -0.53285771458E+01 -0.28953880317E+02  0.50528857697E+02  0.29999993455E+02 0.  0.
         12    1    1    2    0    0  0.28043625533E+02  0.53285771458E+01  0.28953880317E+02  0.40659142303E+02  0.00000000000E+00 0. -1.
         11    1    3    3    0    0 -0.28548979462E+01 -0.40879020350E+01 -0.20455412094E+02  0.21054340871E+02  0.51100000000E-03 0. -1.
        -11    1    3    3    0    0 -0.12105927910E+02  0.22746796994E+01 -0.99712668776E+01  0.15847833344E+02  0.51100000000E-03 0.  1.
         12    1    3    3    0    0 -0.13082799677E+02 -0.35153548102E+01  0.14727986542E+01  0.13626683481E+02  0.00000000000E+00 0. -1.
</event>
<event>
 7    1  0.2680581E-011  0.5052886E+02  0.7816164E-02  0.1300439E+00
        -11   -1    0    0    0    0  0.00000000000E+00  0.00000000000E+00  0.45593999997E+02  0.45594000000E+02  0.51100000000E-03 0. -1.
         11   -1    0    0    0    0 -0.00000000000E+00 -0.00000000000E+00 -0.45593999997E+02  0.45594000000E+02  0.51100000000E-03 0.  1.
    9900012    2    1    2    0    0  0.70273086665E+01 -0.13736905605E+02 -0.37617547362E+02  0.50528861886E+02  0.30000006187E+02 0.  0.
         12    1    1    2    0    0 -0.70273086665E+01  0.13736905605E+02  0.37617547362E+02  0.40659138114E+02  0.00000000000E+00 0. -1.
         11    1    3    3    0    0  0.66974619017E+01 -0.72677929180E+01 -0.34064450048E+01  0.10453739888E+02  0.51100000000E-03 0. -1.
        -11    1    3    3    0    0  0.10000244523E+02 -0.46313440354E+01 -0.17540507432E+02  0.20715299643E+02  0.51100000000E-03 0.  1.
        -12    1    3    3    0    0 -0.96703977579E+01 -0.18377686520E+01 -0.16670594925E+02  0.19359822354E+02  0.00000000000E+00 0.  1.
</event>
<event>
 7    1  0.2680581E-011  0.5052887E+02  0.7816164E-02  0.1300439E+00
        -11   -1    0    0    0    0  0.00000000000E+00  0.00000000000E+00  0.45593999997E+02  0.45594000000E+02  0.51100000000E-03 0.  1.
         11   -1    0    0    0    0 -0.00000000000E+00 -0.00000000000E+00 -0.45593999997E+02  0.45594000000E+02  0.51100000000E-03 0. -1.
    9900012    2    1    2    0    0 -0.38664226451E+02 -0.25705625091E+01  0.12314016315E+02  0.50528865769E+02  0.30000017990E+02 0.  0.
         12    1    1    2    0    0  0.38664226451E+02  0.25705625091E+01 -0.12314016315E+02  0.40659134231E+02  0.00000000000E+00 0. -1.
         11    1    3    3    0    0 -0.54579559798E+01  0.38135156657E+01 -0.28351693517E+01  0.72367375746E+01  0.51100000000E-03 0. -1.
        -11    1    3    3    0    0 -0.18259067121E+01  0.64025386171E+01  0.28768922025E+01  0.72527887789E+01  0.51100000000E-03 0.  1.
        -12    1    3    3    0    0 -0.31380363759E+02 -0.12786616792E+02  0.12272293464E+02  0.36039339415E+02  0.00000000000E+00 0.  1.
</event>
<event>
 7    1  0.2680581E-011  0.5052886E+02  0.7816164E-02  0.1300439E+00
        -11   -1    0    0    0    0  0.00000000000E+00  0.00000000000E+00  0.45593999997E+02  0.45594000000E+02  0.51100000000E-03 0. -1.
         11   -1    0    0    0    0 -0.00000000000E+00 -0.00000000000E+00 -0.45593999997E+02  0.45594000000E+02  0.51100000000E-03 0.  1.
    9900012    2    1    2    0    0 -0.10723620103E+02  0.18318975667E+02 -0.34678305173E+02  0.50528858995E+02  0.29999997400E+02 0.  0.
         12    1    1    2    0    0  0.10723620103E+02 -0.18318975667E+02  0.34678305173E+02  0.40659141005E+02  0.00000000000E+00 0. -1.
         11    1    3    3    0    0  0.88397679254E+00  0.15752725444E+02 -0.15762689240E+02  0.22302290157E+02  0.51100000000E-03 0. -1.
        -11    1    3    3    0    0  0.45082613179E+01 -0.52945843984E+00 -0.39786043274E+01  0.60360615475E+01  0.51100000000E-03 0.  1.
        -12    1    3    3    0    0 -0.16115858214E+02  0.30957086629E+01 -0.14937011605E+02  0.22190507290E+02  0.00000000000E+00 0.  1.
</event>
<event>
 7    1  0.2680581E-011  0.5052886E+02  0.7816164E-02  0.1300439E+00
        -11   -1    0    0    0    0  0.00000000000E+00  0.00000000000E+00  0.45593999997E+02  0.45594000000E+02  0.51100000000E-03 0.  1.
         11   -1    0    0    0    0 -0.00000000000E+00 -0.00000000000E+00 -0.45593999997E+02  0.45594000000E+02  0.51100000000E-03 0. -1.
    9900012    2    1    2    0    0  0.25170958345E+02 -0.37148639745E+01  0.31714171479E+02  0.50528855506E+02  0.29999986797E+02 0.  0.
         12    1    1    2    0    0 -0.25170958345E+02  0.37148639745E+01 -0.31714171479E+02  0.40659144494E+02  0.00000000000E+00 0. -1.
         11    1    3    3    0    0  0.14076103094E+02  0.56233258311E+01  0.81518782594E+01  0.17210798678E+02  0.51100000000E-03 0. -1.
        -11    1    3    3    0    0  0.10176724923E+02 -0.12618257171E+01  0.22985481235E+02  0.25169232848E+02  0.51100000000E-03 0.  1.
        -12    1    3    3    0    0  0.91813032775E+00 -0.80763640885E+01  0.57681198431E+00  0.81488239798E+01  0.00000000000E+00 0.  1.
</event>
<event>
 7    1  0.2680581E-011  0.5052883E+02  0.7816164E-02  0.1300439E+00
        -11   -1    0    0    0    0  0.00000000000E+00  0.00000000000E+00  0.45593999997E+02  0.45594000000E+02  0.51100000000E-03 0.  1.
         11   -1    0    0    0    0 -0.00000000000E+00 -0.00000000000E+00 -0.45593999997E+02  0.45594000000E+02  0.51100000000E-03 0. -1.
    9900012    2    1    2    0    0 -0.30948941845E+02  0.21793688765E+02  0.14844726234E+02  0.50528834142E+02  0.29999921857E+02 0.  0.
         12    1    1    2    0    0  0.30948941845E+02 -0.21793688765E+02 -0.14844726234E+02  0.40659165858E+02  0.00000000000E+00 0. -1.
         11    1    3    3    0    0 -0.14238449637E+01 -0.19620973139E+01 -0.15164083268E+01  0.28594850629E+01  0.51100000000E-03 0. -1.
        -11    1    3    3    0    0 -0.28432225083E+02  0.15850670891E+02  0.37801199228E+01  0.32770787261E+02  0.51100000000E-03 0.  1.
        -12    1    3    3    0    0 -0.10928717987E+01  0.79051151884E+01  0.12581014638E+02  0.14898561818E+02  0.00000000000E+00 0.  1.
</event>
<event>
 7    1  0.2680581E-011  0.5052885E+02  0.7816164E-02  0.1300439E+00
        -11   -1    0    0    0    0  0.00000000000E+00  0.00000000000E+00  0.45593999997E+02  0.45594000000E+02  0.51100000000E-03 0. -1.
         11   -1    0    0    0    0 -0.00000000000E+00 -0.00000000000E+00 -0.45593999997E+02  0.45594000000E+02  0.51100000000E-03 0.  1.
    9900012    2    1    2    0    0 -0.27912205005E+02 -0.69523550335E+01  0.28735697237E+02  0.50528846979E+02  0.29999960876E+02 0.  0.
         12    1    1    2    0    0  0.27912205005E+02  0.69523550335E+01 -0.28735697237E+02  0.40659153021E+02  0.00000000000E+00 0. -1.
         11    1    3    3    0    0 -0.86033392092E+01 -0.49536121415E+00 -0.17499259846E+01  0.87934674329E+01  0.51100000000E-03 0. -1.
        -11    1    3    3    0    0 -0.28142718362E+01 -0.10252306209E+02  0.67870309829E+01  0.12613235049E+02  0.51100000000E-03 0.  1.
         12    1    3    3    0    0 -0.16494593959E+02  0.37953123896E+01  0.23698592238E+02  0.29122144497E+02  0.00000000000E+00 0. -1.
</event>
<event>
 7    1  0.2680581E-011  0.5052888E+02  0.7816164E-02  0.1300439E+00
        -11   -1    0    0    0    0  0.00000000000E+00  0.00000000000E+00  0.45593999997E+02  0.45594000000E+02  0.51100000000E-03 0.  1.
         11   -1    0    0    0    0 -0.00000000000E+00 -0.00000000000E+00 -0.45593999997E+02  0.45594000000E+02  0.51100000000E-03 0. -1.
    9900012    2    1    2    0    0 -0.21403286065E+02  0.29430310264E+02  0.18136154486E+02  0.50528881512E+02  0.30000065845E+02 0.  0.
         12    1    1    2    0    0  0.21403286065E+02 -0.29430310264E+02 -0.18136154486E+02  0.40659118488E+02  0.00000000000E+00 0. -1.
         11    1    3    3    0    0 -0.16967931027E+02  0.86458513154E+01 -0.20976000061E+01  0.19158845329E+02  0.51100000000E-03 0. -1.
        -11    1    3    3    0    0  0.14027034780E+01 -0.73442820670E+00  0.71689784739E+00  0.17380749762E+01  0.51100000000E-03 0.  1.
        -12    1    3    3    0    0 -0.58380585161E+01  0.21518887156E+02  0.19516856645E+02  0.29631961207E+02  0.00000000000E+00 0.  1.
</event>
<event>
 7    1  0.2680581E-011  0.5052880E+02  0.7816164E-02  0.1300439E+00
        -11   -1    0    0    0    0  0.00000000000E+00  0.00000000000E+00  0.45593999997E+02  0.45594000000E+02  0.51100000000E-03 0. -1.
         11   -1    0    0    0    0 -0.00000000000E+00 -0.00000000000E+00 -0.45593999997E+02  0.45594000000E+02  0.51100000000E-03 0.  1.
    9900012    2    1    2    0    0  0.32584046748E+02  0.17633079129E+02 -0.16748886437E+02  0.50528797119E+02  0.29999809323E+02 0.  0.
         12    1    1    2    0    0 -0.32584046748E+02 -0.17633079129E+02  0.16748886437E+02  0.40659202881E+02  0.00000000000E+00 0. -1.
         11    1    3    3    0    0 -0.14084578917E+01 -0.59704408337E+00 -0.52201394057E+01  0.54396756288E+01  0.51100000000E-03 0. -1.
        -11    1    3    3    0    0  0.18611594975E+02  0.11846832174E+01 -0.11908189840E+02  0.22126905056E+02  0.51100000000E-03 0.  1.
         12    1    3    3    0    0  0.15380909664E+02  0.17045439995E+02  0.37944280901E+00  0.22962216434E+02  0.00000000000E+00 0. -1.
</event>
<event>
 7    1  0.2680581E-011  0.5052886E+02  0.7816164E-02  0.1300439E+00
        -11   -1    0    0    0    0  0.00000000000E+00  0.00000000000E+00  0.45593999997E+02  0.45594000000E+02  0.51100000000E-03 0. -1.
         11   -1    0    0    0    0 -0.00000000000E+00 -0.00000000000E+00 -0.45593999997E+02  0.45594000000E+02  0.51100000000E-03 0.  1.
    9900012    2    1    2    0    0  0.27027480326E+02 -0.26110988770E+02 -0.15520855818E+02  0.50528863356E+02  0.30000010657E+02 0.  0.
         12    1    1    2    0    0 -0.27027480326E+02  0.26110988770E+02  0.15520855818E+02  0.40659136644E+02  0.00000000000E+00 0. -1.
         11    1    3    3    0    0  0.10495879099E+02 -0.12269369188E+00  0.42046436990E+01  0.11307411760E+02  0.51100000000E-03 0. -1.
        -11    1    3    3    0    0 -0.12702582278E+01 -0.65689423709E+01 -0.78781890875E+01  0.10335880388E+02  0.51100000000E-03 0.  1.
        -12    1    3    3    0    0  0.17801859454E+02 -0.19419352708E+02 -0.11847310429E+02  0.28885571208E+02  0.00000000000E+00 0.  1.
</event>
<event>
 7    1  0.2680581E-011  0.5052885E+02  0.7816164E-02  0.1300439E+00
        -11   -1    0    0    0    0  0.00000000000E+00  0.00000000000E+00  0.45593999997E+02  0.45594000000E+02  0.51100000000E-03 0.  1.
         11   -1    0    0    0    0 -0.00000000000E+00 -0.00000000000E+00 -0.45593999997E+02  0.45594000000E+02  0.51100000000E-03 0. -1.
    9900012    2    1    2    0    0  0.33079140106E+02  0.18731761866E+02 -0.14424219778E+02  0.50528849382E+02  0.29999968182E+02 0.  0.
         12    1    1    2    0    0 -0.33079140106E+02 -0.18731761866E+02  0.14424219778E+02  0.40659150618E+02  0.00000000000E+00 0. -1.
         11    1    3    3    0    0  0.39356907875E+01  0.12767760552E+02  0.42767729343E+01  0.14028405415E+02  0.51100000000E-03 0. -1.
        -11    1    3    3    0    0  0.70138975214E+01  0.32131935180E+00 -0.96515012768E+01  0.11935220221E+02  0.51100000000E-03 0.  1.
        -12    1    3    3    0    0  0.22129551797E+02  0.56426819623E+01 -0.90494914354E+01  0.24565223746E+02  0.00000000000E+00 0.  1.
</event>
<event>
 7    1  0.2680581E-011  0.5052887E+02  0.7816164E-02  0.1300439E+00
        -11   -1    0    0    0    0  0.00000000000E+00  0.00000000000E+00  0.45593999997E+02  0.45594000000E+02  0.51100000000E-03 0.  1.
         11   -1    0    0    0    0 -0.00000000000E+00 -0.00000000000E+00 -0.45593999997E+02  0.45594000000E+02  0.51100000000E-03 0. -1.
    9900012    2    1    2    0    0  0.95719395647E+01 -0.25273872750E+02  0.30377204000E+02  0.50528865803E+02  0.30000018094E+02 0.  0.
         12    1    1    2    0    0 -0.95719395647E+01  0.25273872750E+02 -0.30377204000E+02  0.40659134197E+02  0.00000000000E+00 0. -1.
         11    1    3    3    0    0  0.10024580697E+02 -0.14580168534E+02  0.93522657872E+01  0.20013455680E+02  0.51100000000E-03 0. -1.
        -11    1    3    3    0    0  0.53246494573E+01 -0.12389332825E+02  0.20410780077E+02  0.24463184652E+02  0.51100000000E-03 0.  1.
         12    1    3    3    0    0 -0.57772905892E+01  0.16956286100E+01  0.61415813570E+00  0.60522254709E+01  0.00000000000E+00 0. -1.
</event>
<event>
 7    1  0.2680581E-011  0.5052886E+02  0.7816164E-02  0.1300439E+00
        -11   -1    0    0    0    0  0.00000000000E+00  0.00000000000E+00  0.45593999997E+02  0.45594000000E+02  0.51100000000E-03 0. -1.
         11   -1    0    0    0    0 -0.00000000000E+00 -0.00000000000E+00 -0.45593999997E+02  0.45594000000E+02  0.51100000000E-03 0.  1.
    9900012    2    1    2    0    0 -0.43883476272E+01 -0.15962313707E+02 -0.37136407425E+02  0.50528858221E+02  0.29999995047E+02 0.  0.
         12    1    1    2    0    0  0.43883476272E+01  0.15962313707E+02  0.37136407425E+02  0.40659141779E+02  0.00000000000E+00 0. -1.
         11    1    3    3    0    0 -0.10852272071E+02  0.29894541466E+01 -0.66396978382E+01  0.13068826759E+02  0.51100000000E-03 0. -1.
        -11    1    3    3    0    0  0.41854960123E+01 -0.23338233592E+01 -0.89713825140E+01  0.10171077269E+02  0.51100000000E-03 0.  1.
        -12    1    3    3    0    0  0.22784284318E+01 -0.16617944494E+02 -0.21525327073E+02  0.27288954193E+02  0.00000000000E+00 0.  1.
</event>
<event>
 7    1  0.2680581E-011  0.5052895E+02  0.7816164E-02  0.1300438E+00
        -11   -1    0    0    0    0  0.00000000000E+00  0.00000000000E+00  0.45593999997E+02  0.45594000000E+02  0.51100000000E-03 0.  1.
         11   -1    0    0    0    0 -0.00000000000E+00 -0.00000000000E+00 -0.45593999997E+02  0.45594000000E+02  0.51100000000E-03 0. -1.
    9900012    2    1    2    0    0 -0.64639625282E+01  0.96817591988E+01  0.38956882517E+02  0.50528954657E+02  0.30000288175E+02 0.  0.
         12    1    1    2    0    0  0.64639625282E+01 -0.96817591988E+01 -0.38956882517E+02  0.40659045343E+02  0.00000000000E+00 0. -1.
         11    1    3    3    0    0  0.66009663978E+01 -0.43156900532E+01  0.59691332136E+01  0.98908285600E+01  0.51100000000E-03 0. -1.
        -11    1    3    3    0    0  0.62665219673E+00  0.80374063732E+01  0.70524421404E+01  0.10711187357E+02  0.51100000000E-03 0.  1.
        -12    1    3    3    0    0 -0.13691581123E+02  0.59600428788E+01  0.25935307163E+02  0.29926938741E+02  0.00000000000E+00 0.  1.
</event>
<event>
 7    1  0.2680581E-011  0.5052886E+02  0.7816164E-02  0.1300439E+00
        -11   -1    0    0    0    0  0.00000000000E+00  0.00000000000E+00  0.45593999997E+02  0.45594000000E+02  0.51100000000E-03 0.  1.
         11   -1    0    0    0    0 -0.00000000000E+00 -0.00000000000E+00 -0.45593999997E+02  0.45594000000E+02  0.51100000000E-03 0. -1.
    9900012    2    1    2    0    0  0.84537732424E+01  0.21924217553E+01  0.39710111260E+02  0.50528856730E+02  0.29999990517E+02 0.  0.
         12    1    1    2    0    0 -0.84537732424E+01 -0.21924217553E+01 -0.39710111260E+02  0.40659143270E+02  0.00000000000E+00 0. -1.
         11    1    3    3    0    0 -0.58629911419E+01  0.11436331525E+02  0.13440323600E+02  0.18595877033E+02  0.51100000000E-03 0. -1.
        -11    1    3    3    0    0  0.75080939756E+00 -0.16486130902E+01  0.66911991355E+01  0.69320838140E+01  0.51100000000E-03 0.  1.
         12    1    3    3    0    0  0.13565954987E+02 -0.75952966800E+01  0.19578588524E+02  0.25000895883E+02  0.00000000000E+00 0. -1.
</event>
<event>
 7    1  0.2680581E-011  0.5052885E+02  0.7816164E-02  0.1300439E+00
        -11   -1    0    0    0    0  0.00000000000E+00  0.00000000000E+00  0.45593999997E+02  0.45594000000E+02  0.51100000000E-03 0. -1.
         11   -1    0    0    0    0 -0.00000000000E+00 -0.00000000000E+00 -0.45593999997E+02  0.45594000000E+02  0.51100000000E-03 0.  1.
    9900012    2    1    2    0    0 -0.83558500810E+01  0.34950741134E+02 -0.19020827581E+02  0.50528850743E+02  0.29999972319E+02 0.  0.
         12    1    1    2    0    0  0.83558500810E+01 -0.34950741134E+02  0.19020827581E+02  0.40659149257E+02  0.00000000000E+00 0. -1.
         11    1    3    3    0    0 -0.15791508780E+01  0.46784258642E+01 -0.14790880051E+02  0.15593316485E+02  0.51100000000E-03 0. -1.
        -11    1    3    3    0    0 -0.43310718683E+01  0.28644192232E+02 -0.80960108922E+01  0.30079782658E+02  0.51100000000E-03 0.  1.
         12    1    3    3    0    0 -0.24456273347E+01  0.16281230386E+01  0.38660633618E+01  0.48557516005E+01  0.00000000000E+00 0. -1.
</event>
<event>
 7    1  0.2680581E-011  0.5052887E+02  0.7816164E-02  0.1300439E+00
        -11   -1    0    0    0    0  0.00000000000E+00  0.00000000000E+00  0.45593999997E+02  0.45594000000E+02  0.51100000000E-03 0. -1.
         11   -1    0    0    0    0 -0.00000000000E+00 -0.00000000000E+00 -0.45593999997E+02  0.45594000000E+02  0.51100000000E-03 0.  1.
    9900012    2    1    2    0    0  0.20079239915E+02  0.26702723440E+02 -0.23172266300E+02  0.50528865231E+02  0.30000016355E+02 0.  0.
         12    1    1    2    0    0 -0.20079239915E+02 -0.26702723440E+02  0.23172266300E+02  0.40659134769E+02  0.00000000000E+00 0. -1.
         11    1    3    3    0    0  0.60349011079E+01  0.13476436704E+02  0.23100497746E+01  0.14945591586E+02  0.51100000000E-03 0. -1.
        -11    1    3    3    0    0  0.11637689634E+02  0.13080522786E+02 -0.10515103917E+02  0.20423107183E+02  0.51100000000E-03 0.  1.
         12    1    3    3    0    0  0.24066491731E+01  0.14576395000E+00 -0.14967212157E+02  0.15160166461E+02  0.00000000000E+00 0. -1.
</event>
<event>
 7    1  0.2680581E-011  0.5052886E+02  0.7816164E-02  0.1300439E+00
        -11   -1    0    0    0    0  0.00000000000E+00  0.00000000000E+00  0.45593999997E+02  0.45594000000E+02  0.51100000000E-03 0. -1.
         11   -1    0    0    0    0 -0.00000000000E+00 -0.00000000000E+00 -0.45593999997E+02  0.45594000000E+02  0.51100000000E-03 0.  1.
    9900012    2    1    2    0    0  0.15747248025E+02  0.37056543431E+02  0.56570616791E+01  0.50528861073E+02  0.30000003717E+02 0.  0.
         12    1    1    2    0    0 -0.15747248025E+02 -0.37056543431E+02 -0.56570616791E+01  0.40659138927E+02  0.00000000000E+00 0. -1.
         11    1    3    3    0    0  0.35916460780E-02  0.34787735288E+01  0.67209238617E+01  0.75678726192E+01  0.51100000000E-03 0. -1.
        -11    1    3    3    0    0  0.15070800440E+02  0.12364952325E+02  0.63148370211E+01  0.20491418661E+02  0.51100000000E-03 0.  1.
        -12    1    3    3    0    0  0.67285593960E+00  0.21212817578E+02 -0.73786992038E+01  0.22469569792E+02  0.00000000000E+00 0.  1.
</event>
<event>
 7    1  0.2680581E-011  0.5052886E+02  0.7816164E-02  0.1300439E+00
        -11   -1    0    0    0    0  0.00000000000E+00  0.00000000000E+00  0.45593999997E+02  0.45594000000E+02  0.51100000000E-03 0. -1.
         11   -1    0    0    0    0 -0.00000000000E+00 -0.00000000000E+00 -0.45593999997E+02  0.45594000000E+02  0.51100000000E-03 0.  1.
    9900012    2    1    2    0    0  0.35663000468E+02 -0.19505364281E+02 -0.92582746889E+00  0.50528855953E+02  0.29999988155E+02 0.  0.
         12    1    1    2    0    0 -0.35663000468E+02  0.19505364281E+02  0.92582746889E+00  0.40659144047E+02  0.00000000000E+00 0. -1.
         11    1    3    3    0    0  0.15166193671E+02 -0.51120486053E+01 -0.20952066433E+01  0.16141138825E+02  0.51100000000E-03 0.  1.
        -11    1    3    3    0    0  0.18885515714E+02 -0.84026995385E+01  0.10498933854E+02  0.23183952977E+02  0.51100000000E-03 0. -1.
         12    1    3    3    0    0  0.16112910831E+01 -0.59906161371E+01 -0.93295546792E+01  0.11203764152E+02  0.00000000000E+00 0. -1.
</event>
<event>
 7    1  0.2680581E-011  0.5052886E+02  0.7816164E-02  0.1300439E+00
        -11   -1    0    0    0    0  0.00000000000E+00  0.00000000000E+00  0.45593999997E+02  0.45594000000E+02  0.51100000000E-03 0. -1.
         11   -1    0    0    0    0 -0.00000000000E+00 -0.00000000000E+00 -0.45593999997E+02  0.45594000000E+02  0.51100000000E-03 0.  1.
    9900012    2    1    2    0    0  0.21655483077E+02  0.34140431300E+02  0.43170042291E+01  0.50528861763E+02  0.30000005815E+02 0.  0.
         12    1    1    2    0    0 -0.21655483077E+02 -0.34140431300E+02 -0.43170042291E+01  0.40659138237E+02  0.00000000000E+00 0. -1.
         11    1    3    3    0    0  0.16610710394E+01  0.33481641791E+00 -0.10076533477E+01  0.19714523991E+01  0.51100000000E-03 0. -1.
        -11    1    3    3    0    0  0.80513950695E+00  0.15985270682E+02 -0.93520145375E+01  0.18537456799E+02  0.51100000000E-03 0.  1.
         12    1    3    3    0    0  0.19189272531E+02  0.17820344200E+02  0.14676672114E+02  0.30019952565E+02  0.00000000000E+00 0. -1.
</event>
<event>
 7    1  0.2680581E-011  0.5052888E+02  0.7816164E-02  0.1300439E+00
        -11   -1    0    0    0    0  0.00000000000E+00  0.00000000000E+00  0.45593999997E+02  0.45594000000E+02  0.51100000000E-03 0.  1.
         11   -1    0    0    0    0 -0.00000000000E+00 -0.00000000000E+00 -0.45593999997E+02  0.45594000000E+02  0.51100000000E-03 0. -1.
    9900012    2    1    2    0    0  0.17685701460E+02 -0.59043905092E+00  0.36606435757E+02  0.50528883024E+02  0.30000070441E+02 0.  0.
         12    1    1    2    0    0 -0.17685701460E+02  0.59043905092E+00 -0.36606435757E+02  0.40659116976E+02  0.00000000000E+00 0. -1.
         11    1    3    3    0    0  0.42139251185E+01 -0.42502063455E+01  0.16024771115E+02  0.17105984579E+02  0.51100000000E-03 0. -1.
        -11    1    3    3    0    0  0.87011350965E+01 -0.87581172846E+01  0.61402171041E+01  0.13788278960E+02  0.51100000000E-03 0.  1.
        -12    1    3    3    0    0  0.47706412446E+01  0.12417884579E+02  0.14441447539E+02  0.19634619485E+02  0.00000000000E+00 0.  1.
</event>
<event>
 7    1  0.2680581E-011  0.5052887E+02  0.7816164E-02  0.1300439E+00
        -11   -1    0    0    0    0  0.00000000000E+00  0.00000000000E+00  0.45593999997E+02  0.45594000000E+02  0.51100000000E-03 0.  1.
         11   -1    0    0    0    0 -0.00000000000E+00 -0.00000000000E+00 -0.45593999997E+02  0.45594000000E+02  0.51100000000E-03 0. -1.
    9900012    2    1    2    0    0  0.11141667739E+02  0.28228574448E+02  0.27058752138E+02  0.50528865200E+02  0.30000016263E+02 0.  0.
         12    1    1    2    0    0 -0.11141667739E+02 -0.28228574448E+02 -0.27058752138E+02  0.40659134800E+02  0.00000000000E+00 0. -1.
         11    1    3    3    0    0  0.75862714162E+01  0.13356695186E+02  0.15488053820E+02  0.21813588235E+02  0.51100000000E-03 0.  1.
        -11    1    3    3    0    0  0.27906002217E+01  0.52863246720E-01 -0.54569036156E+01  0.61292774004E+01  0.51100000000E-03 0. -1.
         12    1    3    3    0    0  0.76479610144E+00  0.14819016015E+02  0.17027601934E+02  0.22585999565E+02  0.00000000000E+00 0. -1.
</event>
<event>
 7    1  0.2680581E-011  0.5052886E+02  0.7816164E-02  0.1300439E+00
        -11   -1    0    0    0    0  0.00000000000E+00  0.00000000000E+00  0.45593999997E+02  0.45594000000E+02  0.51100000000E-03 0.  1.
         11   -1    0    0    0    0 -0.00000000000E+00 -0.00000000000E+00 -0.45593999997E+02  0.45594000000E+02  0.51100000000E-03 0. -1.
    9900012    2    1    2    0    0  0.18426601659E+02  0.30450600967E+02  0.19656725232E+02  0.50528860870E+02  0.30000003100E+02 0.  0.
         12    1    1    2    0    0 -0.18426601659E+02 -0.30450600967E+02 -0.19656725232E+02  0.40659139130E+02  0.00000000000E+00 0. -1.
         11    1    3    3    0    0  0.52437089634E+00  0.17534913264E+01  0.62221774233E+01  0.64857681747E+01  0.51100000000E-03 0.  1.
        -11    1    3    3    0    0 -0.20024829583E+01  0.14766326748E+01 -0.50194119648E+01  0.56022208800E+01  0.51100000000E-03 0. -1.
        -12    1    3    3    0    0  0.19904713721E+02  0.27220476966E+02  0.18453959774E+02  0.38440871815E+02  0.00000000000E+00 0.  1.
</event>
<event>
 7    1  0.2680581E-011  0.5052886E+02  0.7816164E-02  0.1300439E+00
        -11   -1    0    0    0    0  0.00000000000E+00  0.00000000000E+00  0.45593999997E+02  0.45594000000E+02  0.51100000000E-03 0. -1.
         11   -1    0    0    0    0 -0.00000000000E+00 -0.00000000000E+00 -0.45593999997E+02  0.45594000000E+02  0.51100000000E-03 0.  1.
    9900012    2    1    2    0    0  0.34919485796E+02  0.20510660468E+02  0.36204842981E+01  0.50528860958E+02  0.30000003367E+02 0.  0.
         12    1    1    2    0    0 -0.34919485796E+02 -0.20510660468E+02 -0.36204842981E+01  0.40659139042E+02  0.00000000000E+00 0. -1.
         11    1    3    3    0    0 -0.69537215508E+00  0.44173264452E+01  0.72159758712E+01  0.84892062876E+01  0.51100000000E-03 0. -1.
        -11    1    3    3    0    0  0.19340893044E+02  0.43879032312E+01  0.46392545867E+01  0.20367781467E+02  0.51100000000E-03 0.  1.
        -12    1    3    3    0    0  0.16273964908E+02  0.11705430791E+02 -0.82347461599E+01  0.21671873203E+02  0.00000000000E+00 0.  1.
</event>
<event>
 7    1  0.2680581E-011  0.5052886E+02  0.7816164E-02  0.1300439E+00
        -11   -1    0    0    0    0  0.00000000000E+00  0.00000000000E+00  0.45593999997E+02  0.45594000000E+02  0.51100000000E-03 0. -1.
         11   -1    0    0    0    0 -0.00000000000E+00 -0.00000000000E+00 -0.45593999997E+02  0.45594000000E+02  0.51100000000E-03 0.  1.
    9900012    2    1    2    0    0 -0.35535554350E+02  0.33645214590E+01 -0.19469721284E+02  0.50528859891E+02  0.30000000123E+02 0.  0.
         12    1    1    2    0    0  0.35535554350E+02 -0.33645214590E+01  0.19469721284E+02  0.40659140109E+02  0.00000000000E+00 0. -1.
         11    1    3    3    0    0 -0.18582018891E+02  0.52544852918E+01 -0.16183751686E+00  0.19311323968E+02  0.51100000000E-03 0. -1.
        -11    1    3    3    0    0 -0.32060857151E+00 -0.67447511469E+01 -0.28803531377E+01  0.73410416392E+01  0.51100000000E-03 0.  1.
        -12    1    3    3    0    0 -0.16632926887E+02  0.48547873141E+01 -0.16427530629E+02  0.23876494283E+02  0.00000000000E+00 0.  1.
</event>
<event>
 7    1  0.2680581E-011  0.5052886E+02  0.7816164E-02  0.1300439E+00
        -11   -1    0    0    0    0  0.00000000000E+00  0.00000000000E+00  0.45593999997E+02  0.45594000000E+02  0.51100000000E-03 0.  1.
         11   -1    0    0    0    0 -0.00000000000E+00 -0.00000000000E+00 -0.45593999997E+02  0.45594000000E+02  0.51100000000E-03 0. -1.
    9900012    2    1    2    0    0  0.14202139099E+02 -0.17920433427E+02  0.33620281491E+02  0.50528855682E+02  0.29999987330E+02 0.  0.
         12    1    1    2    0    0 -0.14202139099E+02  0.17920433427E+02 -0.33620281491E+02  0.40659144318E+02  0.00000000000E+00 0. -1.
         11    1    3    3    0    0  0.11996752511E+01  0.25618001784E+01 -0.20578753752E-01  0.28288627765E+01  0.51100000000E-03 0. -1.
        -11    1    3    3    0    0  0.18974324314E+02 -0.20293987712E+02  0.26567664673E+02  0.38441016205E+02  0.51100000000E-03 0.  1.
         12    1    3    3    0    0 -0.59718604661E+01 -0.18824589319E+00  0.70731955713E+01  0.92589767001E+01  0.00000000000E+00 0. -1.
</event>
<event>
 7    1  0.2680581E-011  0.5052887E+02  0.7816164E-02  0.1300439E+00
        -11   -1    0    0    0    0  0.00000000000E+00  0.00000000000E+00  0.45593999997E+02  0.45594000000E+02  0.51100000000E-03 0.  1.
         11   -1    0    0    0    0 -0.00000000000E+00 -0.00000000000E+00 -0.45593999997E+02  0.45594000000E+02  0.51100000000E-03 0. -1.
    9900012    2    1    2    0    0  0.98921433609E+01 -0.36499001748E+02  0.14937652210E+02  0.50528867171E+02  0.30000022253E+02 0.  0.
         12    1    1    2    0    0 -0.98921433609E+01  0.36499001748E+02 -0.14937652210E+02  0.40659132829E+02  0.00000000000E+00 0. -1.
         11    1    3    3    0    0 -0.35648440017E+00 -0.92905069424E+01 -0.36205330251E+01  0.99774175026E+01  0.51100000000E-03 0. -1.
        -11    1    3    3    0    0  0.14550722856E+01 -0.27120856016E+02  0.15302827747E+02  0.31174261879E+02  0.51100000000E-03 0.  1.
        -12    1    3    3    0    0  0.87935554755E+01 -0.87638788901E-01  0.32553574879E+01  0.93771877890E+01  0.00000000000E+00 0.  1.
</event>
<event>
 7    1  0.2680581E-011  0.5052886E+02  0.7816164E-02  0.1300439E+00
        -11   -1    0    0    0    0  0.00000000000E+00  0.00000000000E+00  0.45593999997E+02  0.45594000000E+02  0.51100000000E-03 0.  1.
         11   -1    0    0    0    0 -0.00000000000E+00 -0.00000000000E+00 -0.45593999997E+02  0.45594000000E+02  0.51100000000E-03 0. -1.
    9900012    2    1    2    0    0 -0.25946192296E+02  0.21466826247E+01  0.31230633814E+02  0.50528860445E+02  0.30000001808E+02 0.  0.
         12    1    1    2    0    0  0.25946192296E+02 -0.21466826247E+01 -0.31230633814E+02  0.40659139555E+02  0.00000000000E+00 0. -1.
         11    1    3    3    0    0 -0.10012894163E+02 -0.23139951139E+00  0.58224352528E+01  0.11585005299E+02  0.51100000000E-03 0. -1.
        -11    1    3    3    0    0  0.12979241937E+01  0.96566232449E+01  0.13923657304E+02  0.16994211152E+02  0.51100000000E-03 0.  1.
         12    1    3    3    0    0 -0.17231222327E+02 -0.72785411088E+01  0.11484541257E+02  0.21949643994E+02  0.00000000000E+00 0. -1.
</event>
<event>
 7    1  0.2680581E-011  0.5052886E+02  0.7816164E-02  0.1300439E+00
        -11   -1    0    0    0    0  0.00000000000E+00  0.00000000000E+00  0.45593999997E+02  0.45594000000E+02  0.51100000000E-03 0. -1.
         11   -1    0    0    0    0 -0.00000000000E+00 -0.00000000000E+00 -0.45593999997E+02  0.45594000000E+02  0.51100000000E-03 0.  1.
    9900012    2    1    2    0    0  0.27437730368E+02 -0.67699436450E+01  0.29231904203E+02  0.50528863166E+02  0.30000010081E+02 0.  0.
         12    1    1    2    0    0 -0.27437730368E+02  0.67699436450E+01 -0.29231904203E+02  0.40659136834E+02  0.00000000000E+00 0. -1.
         11    1    3    3    0    0 -0.28678418379E+01 -0.22436077482E+01 -0.79536134640E+00  0.37270487611E+01  0.51100000000E-03 0. -1.
        -11    1    3    3    0    0  0.75466993771E+01 -0.99644574022E+01  0.10380324420E+02  0.16247898884E+02  0.51100000000E-03 0.  1.
        -12    1    3    3    0    0  0.22758872829E+02  0.54381215054E+01  0.19646941129E+02  0.30553915521E+02  0.00000000000E+00 0.  1.
</event>
<event>
 7    1  0.2680581E-011  0.5052886E+02  0.7816164E-02  0.1300439E+00
        -11   -1    0    0    0    0  0.00000000000E+00  0.00000000000E+00  0.45593999997E+02  0.45594000000E+02  0.51100000000E-03 0. -1.
         11   -1    0    0    0    0 -0.00000000000E+00 -0.00000000000E+00 -0.45593999997E+02  0.45594000000E+02  0.51100000000E-03 0.  1.
    9900012    2    1    2    0    0  0.37545379738E+00 -0.45641007853E+01 -0.40400419964E+02  0.50528856935E+02  0.29999991139E+02 0.  0.
         12    1    1    2    0    0 -0.37545379738E+00  0.45641007853E+01  0.40400419964E+02  0.40659143065E+02  0.00000000000E+00 0. -1.
         11    1    3    3    0    0 -0.84832322700E+01 -0.61342815687E+01 -0.49687981942E+01  0.11588079904E+02  0.51100000000E-03 0. -1.
        -11    1    3    3    0    0 -0.10293176504E+00  0.35145512158E+01 -0.15543057739E+01  0.38442856159E+01  0.51100000000E-03 0.  1.
        -12    1    3    3    0    0  0.89616178324E+01 -0.19443704324E+01 -0.33877315996E+02  0.35096491415E+02  0.00000000000E+00 0.  1.
</event>
<event>
 7    1  0.2680581E-011  0.5052887E+02  0.7816164E-02  0.1300439E+00
        -11   -1    0    0    0    0  0.00000000000E+00  0.00000000000E+00  0.45593999997E+02  0.45594000000E+02  0.51100000000E-03 0.  1.
         11   -1    0    0    0    0 -0.00000000000E+00 -0.00000000000E+00 -0.45593999997E+02  0.45594000000E+02  0.51100000000E-03 0. -1.
    9900012    2    1    2    0    0 -0.27292348181E+02 -0.24346695576E+02 -0.17763192708E+02  0.50528869784E+02  0.30000030197E+02 0.  0.
         12    1    1    2    0    0  0.27292348181E+02  0.24346695576E+02  0.17763192708E+02  0.40659130216E+02  0.00000000000E+00 0. -1.
         11    1    3    3    0    0 -0.40688999978E+01  0.27330403924E+01  0.72443495879E+00  0.49548222217E+01  0.51100000000E-03 0. -1.
        -11    1    3    3    0    0  0.22819687304E+01 -0.93604184624E+01 -0.41850930051E+00  0.96436489657E+01  0.51100000000E-03 0.  1.
         12    1    3    3    0    0 -0.25505416914E+02 -0.17719317506E+02 -0.18069118366E+02  0.35930398597E+02  0.00000000000E+00 0. -1.
</event>
<event>
 7    1  0.2680581E-011  0.5052886E+02  0.7816164E-02  0.1300439E+00
        -11   -1    0    0    0    0  0.00000000000E+00  0.00000000000E+00  0.45593999997E+02  0.45594000000E+02  0.51100000000E-03 0. -1.
         11   -1    0    0    0    0 -0.00000000000E+00 -0.00000000000E+00 -0.45593999997E+02  0.45594000000E+02  0.51100000000E-03 0.  1.
    9900012    2    1    2    0    0 -0.38332218826E+02  0.95921358418E+01 -0.95810874338E+01  0.50528864414E+02  0.30000013874E+02 0.  0.
         12    1    1    2    0    0  0.38332218826E+02 -0.95921358418E+01  0.95810874338E+01  0.40659135586E+02  0.00000000000E+00 0. -1.
         11    1    3    3    0    0 -0.23720348656E+02  0.10855430234E+02 -0.62354979589E+00  0.26093756352E+02  0.51100000000E-03 0. -1.
        -11    1    3    3    0    0 -0.18439633023E+02  0.63392381754E+00 -0.75727635795E+01  0.19944138837E+02  0.51100000000E-03 0.  1.
         12    1    3    3    0    0  0.38277628532E+01 -0.18972182099E+01 -0.13847740584E+01  0.44909692260E+01  0.00000000000E+00 0. -1.
</event>
<event>
 7    1  0.2680581E-011  0.5052884E+02  0.7816164E-02  0.1300439E+00
        -11   -1    0    0    0    0  0.00000000000E+00  0.00000000000E+00  0.45593999997E+02  0.45594000000E+02  0.51100000000E-03 0.  1.
         11   -1    0    0    0    0 -0.00000000000E+00 -0.00000000000E+00 -0.45593999997E+02  0.45594000000E+02  0.51100000000E-03 0. -1.
    9900012    2    1    2    0    0 -0.24334513620E+02 -0.15700462136E+01  0.32535110186E+02  0.50528843675E+02  0.29999950834E+02 0.  0.
         12    1    1    2    0    0  0.24334513620E+02  0.15700462136E+01 -0.32535110186E+02  0.40659156325E+02  0.00000000000E+00 0. -1.
         11    1    3    3    0    0 -0.59182201419E+01 -0.94927124737E+01  0.69922609958E+01  0.13191991277E+02  0.51100000000E-03 0. -1.
        -11    1    3    3    0    0 -0.16197880302E+02 -0.14385216982E+00  0.83668234562E+01  0.18231723856E+02  0.51100000000E-03 0.  1.
        -12    1    3    3    0    0 -0.22184131760E+01  0.80665184300E+01  0.17176025734E+02  0.19105128542E+02  0.00000000000E+00 0.  1.
</event>
<event>
 7    1  0.2680581E-011  0.5052885E+02  0.7816164E-02  0.1300439E+00
        -11   -1    0    0    0    0  0.00000000000E+00  0.00000000000E+00  0.45593999997E+02  0.45594000000E+02  0.51100000000E-03 0. -1.
         11   -1    0    0    0    0 -0.00000000000E+00 -0.00000000000E+00 -0.45593999997E+02  0.45594000000E+02  0.51100000000E-03 0.  1.
    9900012    2    1    2    0    0  0.27039452311E+02  0.91954483208E+01 -0.28939218138E+02  0.50528848539E+02  0.29999965618E+02 0.  0.
         12    1    1    2    0    0 -0.27039452311E+02 -0.91954483208E+01  0.28939218138E+02  0.40659151461E+02  0.00000000000E+00 0. -1.
         11    1    3    3    0    0  0.92124641309E+01  0.11846830231E+02 -0.13002296422E+02  0.19856399331E+02  0.51100000000E-03 0. -1.
        -11    1    3    3    0    0  0.67881610869E+01  0.13406473035E+01 -0.17511394319E+02  0.18828844823E+02  0.51100000000E-03 0.  1.
         12    1    3    3    0    0  0.11038827093E+02 -0.39920292132E+01  0.15744726030E+01  0.11843604384E+02  0.00000000000E+00 0. -1.
</event>
<event>
 7    1  0.2680581E-011  0.5052887E+02  0.7816164E-02  0.1300439E+00
        -11   -1    0    0    0    0  0.00000000000E+00  0.00000000000E+00  0.45593999997E+02  0.45594000000E+02  0.51100000000E-03 0. -1.
         11   -1    0    0    0    0 -0.00000000000E+00 -0.00000000000E+00 -0.45593999997E+02  0.45594000000E+02  0.51100000000E-03 0.  1.
    9900012    2    1    2    0    0  0.19315223752E+01 -0.40497063838E+02  0.30695673195E+01  0.50528865704E+02  0.30000017794E+02 0.  0.
         12    1    1    2    0    0 -0.19315223752E+01  0.40497063838E+02 -0.30695673195E+01  0.40659134296E+02  0.00000000000E+00 0. -1.
         11    1    3    3    0    0 -0.54307070439E-01 -0.84478048874E+01  0.25932778052E+01  0.88370496609E+01  0.51100000000E-03 0. -1.
        -11    1    3    3    0    0  0.61376591886E+01 -0.11484773990E+02  0.12041272761E+02  0.17735928053E+02  0.51100000000E-03 0.  1.
        -12    1    3    3    0    0 -0.41518297430E+01 -0.20564484960E+02 -0.11564983247E+02  0.23955887990E+02  0.00000000000E+00 0.  1.
</event>
<event>
 7    1  0.2680581E-011  0.5052886E+02  0.7816164E-02  0.1300439E+00
        -11   -1    0    0    0    0  0.00000000000E+00  0.00000000000E+00  0.45593999997E+02  0.45594000000E+02  0.51100000000E-03 0.  1.
         11   -1    0    0    0    0 -0.00000000000E+00 -0.00000000000E+00 -0.45593999997E+02  0.45594000000E+02  0.51100000000E-03 0. -1.
    9900012    2    1    2    0    0 -0.98615695502E+01 -0.34720645027E+02 -0.18718759779E+02  0.50528859420E+02  0.29999998692E+02 0.  0.
         12    1    1    2    0    0  0.98615695502E+01  0.34720645027E+02  0.18718759779E+02  0.40659140580E+02  0.00000000000E+00 0. -1.
         11    1    3    3    0    0  0.21508334902E+01  0.14640419907E+01 -0.32246381846E+01  0.41434038345E+01  0.51100000000E-03 0. -1.
        -11    1    3    3    0    0 -0.90828743835E+00 -0.28048143908E+02 -0.37923916184E+01  0.28317937728E+02  0.51100000000E-03 0.  1.
         12    1    3    3    0    0 -0.11104115602E+02 -0.81365431097E+01 -0.11701729976E+02  0.18067517857E+02  0.00000000000E+00 0. -1.
</event>
<event>
 7    1  0.2680581E-011  0.5052886E+02  0.7816164E-02  0.1300439E+00
        -11   -1    0    0    0    0  0.00000000000E+00  0.00000000000E+00  0.45593999997E+02  0.45594000000E+02  0.51100000000E-03 0. -1.
         11   -1    0    0    0    0 -0.00000000000E+00 -0.00000000000E+00 -0.45593999997E+02  0.45594000000E+02  0.51100000000E-03 0.  1.
    9900012    2    1    2    0    0  0.25849016992E+02  0.29130161707E+02  0.11680219405E+02  0.50528861718E+02  0.30000005677E+02 0.  0.
         12    1    1    2    0    0 -0.25849016992E+02 -0.29130161707E+02 -0.11680219405E+02  0.40659138282E+02  0.00000000000E+00 0. -1.
         11    1    3    3    0    0 -0.15177284476E+01  0.83184268973E+01 -0.43549141812E+01  0.95113092408E+01  0.51100000000E-03 0. -1.
        -11    1    3    3    0    0  0.10789594171E+02  0.32422800794E+01 -0.12199934745E+01  0.11332083075E+02  0.51100000000E-03 0.  1.
         12    1    3    3    0    0  0.16577151268E+02  0.17569454730E+02  0.17255127061E+02  0.29685469401E+02  0.00000000000E+00 0. -1.
</event>
<event>
 7    1  0.2680581E-011  0.5052886E+02  0.7816164E-02  0.1300439E+00
        -11   -1    0    0    0    0  0.00000000000E+00  0.00000000000E+00  0.45593999997E+02  0.45594000000E+02  0.51100000000E-03 0. -1.
         11   -1    0    0    0    0 -0.00000000000E+00 -0.00000000000E+00 -0.45593999997E+02  0.45594000000E+02  0.51100000000E-03 0.  1.
    9900012    2    1    2    0    0 -0.15532440183E+02 -0.13348514000E+02 -0.35124440552E+02  0.50528857754E+02  0.29999993630E+02 0.  0.
         12    1    1    2    0    0  0.15532440183E+02  0.13348514000E+02  0.35124440552E+02  0.40659142246E+02  0.00000000000E+00 0. -1.
         11    1    3    3    0    0  0.53443036762E+01 -0.83301480930E+01 -0.73148460160E+01  0.12306905441E+02  0.51100000000E-03 0. -1.
        -11    1    3    3    0    0 -0.10265597046E+01  0.41756723333E+01 -0.54312591433E+01  0.69273833736E+01  0.51100000000E-03 0.  1.
         12    1    3    3    0    0 -0.19850184155E+02 -0.91940382400E+01 -0.22378335393E+02  0.31294568940E+02  0.00000000000E+00 0. -1.
</event>
<event>
 7    1  0.2680581E-011  0.5052879E+02  0.7816164E-02  0.1300439E+00
        -11   -1    0    0    0    0  0.00000000000E+00  0.00000000000E+00  0.45593999997E+02  0.45594000000E+02  0.51100000000E-03 0.  1.
         11   -1    0    0    0    0 -0.00000000000E+00 -0.00000000000E+00 -0.45593999997E+02  0.45594000000E+02  0.51100000000E-03 0. -1.
    9900012    2    1    2    0    0 -0.40055474185E+02 -0.80616345952E-01 -0.69802245228E+01  0.50528793840E+02  0.29999799356E+02 0.  0.
         12    1    1    2    0    0  0.40055474185E+02  0.80616345952E-01  0.69802245228E+01  0.40659206160E+02  0.00000000000E+00 0. -1.
         11    1    3    3    0    0  0.84815430864E+00 -0.30087658517E+01  0.14212952837E+00  0.31292553021E+01  0.51100000000E-03 0. -1.
        -11    1    3    3    0    0 -0.22126814046E+02 -0.96130341659E+01 -0.17426779645E+01  0.24187667363E+02  0.51100000000E-03 0.  1.
        -12    1    3    3    0    0 -0.18776814447E+02  0.12541183672E+02 -0.53796760866E+01  0.23211871176E+02  0.00000000000E+00 0.  1.
</event>
<event>
 7    1  0.2680581E-011  0.5052886E+02  0.7816164E-02  0.1300439E+00
        -11   -1    0    0    0    0  0.00000000000E+00  0.00000000000E+00  0.45593999997E+02  0.45594000000E+02  0.51100000000E-03 0. -1.
         11   -1    0    0    0    0 -0.00000000000E+00 -0.00000000000E+00 -0.45593999997E+02  0.45594000000E+02  0.51100000000E-03 0.  1.
    9900012    2    1    2    0    0 -0.11381752355E+02  0.20908788132E+02 -0.32961250793E+02  0.50528858817E+02  0.29999996861E+02 0.  0.
         12    1    1    2    0    0  0.11381752355E+02 -0.20908788132E+02  0.32961250793E+02  0.40659141183E+02  0.00000000000E+00 0. -1.
         11    1    3    3    0    0 -0.52595205811E+01  0.14300835363E+02 -0.53800473312E+01  0.16159249933E+02  0.51100000000E-03 0. -1.
        -11    1    3    3    0    0 -0.11611852649E+02  0.56779877203E+01 -0.11320967488E+02  0.17182519362E+02  0.51100000000E-03 0.  1.
        -12    1    3    3    0    0  0.54896208752E+01  0.92996504877E+00 -0.16260235974E+02  0.17187089523E+02  0.00000000000E+00 0.  1.
</event>
<event>
 7    1  0.2680581E-011  0.5052886E+02  0.7816164E-02  0.1300439E+00
        -11   -1    0    0    0    0  0.00000000000E+00  0.00000000000E+00  0.45593999997E+02  0.45594000000E+02  0.51100000000E-03 0.  1.
         11   -1    0    0    0    0 -0.00000000000E+00 -0.00000000000E+00 -0.45593999997E+02  0.45594000000E+02  0.51100000000E-03 0. -1.
    9900012    2    1    2    0    0 -0.27389654372E+02 -0.26107408531E+02  0.14878712947E+02  0.50528855323E+02  0.29999986241E+02 0.  0.
         12    1    1    2    0    0  0.27389654372E+02  0.26107408531E+02 -0.14878712947E+02  0.40659144677E+02  0.00000000000E+00 0. -1.
         11    1    3    3    0    0 -0.38710391098E+01 -0.14021920259E+02 -0.74538097357E+00  0.14565534133E+02  0.51100000000E-03 0. -1.
        -11    1    3    3    0    0 -0.58400087256E+01 -0.90291698116E+01  0.14411981006E+02  0.17981568513E+02  0.51100000000E-03 0.  1.
         12    1    3    3    0    0 -0.17678606537E+02 -0.30563184610E+01  0.12121129148E+01  0.17981752677E+02  0.00000000000E+00 0. -1.
</event>
<event>
 7    1  0.2699302E-011  0.5052884E+02  0.7816164E-02  0.1300439E+00
        -11   -1    0    0    0    0  0.00000000000E+00  0.00000000000E+00  0.45593999997E+02  0.45594000000E+02  0.51100000000E-03 0. -1.
         11   -1    0    0    0    0 -0.00000000000E+00 -0.00000000000E+00 -0.45593999997E+02  0.45594000000E+02  0.51100000000E-03 0.  1.
    9900012    2    1    2    0    0 -0.23765511883E+02  0.10452523687E+02 -0.31290775615E+02  0.50528838116E+02  0.29999933939E+02 0.  0.
         12    1    1    2    0    0  0.23765511883E+02 -0.10452523687E+02  0.31290775615E+02  0.40659161884E+02  0.00000000000E+00 0. -1.
         11    1    3    3    0    0  0.21304141502E+00  0.58216755175E+01 -0.44713922230E+01  0.73437484399E+01  0.51100000000E-03 0. -1.
        -11    1    3    3    0    0 -0.94567203822E+01  0.50939152651E+01 -0.26564133465E+02  0.28653633628E+02  0.51100000000E-03 0.  1.
        -12    1    3    3    0    0 -0.14521832915E+02 -0.46306709548E+00 -0.25524992772E+00  0.14531456048E+02  0.00000000000E+00 0.  1.
</event>
<event>
 7    1  0.2680581E-011  0.5052883E+02  0.7816164E-02  0.1300439E+00
        -11   -1    0    0    0    0  0.00000000000E+00  0.00000000000E+00  0.45593999997E+02  0.45594000000E+02  0.51100000000E-03 0.  1.
         11   -1    0    0    0    0 -0.00000000000E+00 -0.00000000000E+00 -0.45593999997E+02  0.45594000000E+02  0.51100000000E-03 0. -1.
    9900012    2    1    2    0    0  0.33538710754E+02  0.22118203044E+01  0.22878603691E+02  0.50528834060E+02  0.29999921609E+02 0.  0.
         12    1    1    2    0    0 -0.33538710754E+02 -0.22118203044E+01 -0.22878603691E+02  0.40659165940E+02  0.00000000000E+00 0. -1.
         11    1    3    3    0    0  0.14067349236E+02 -0.66348095322E+01  0.93380948375E+01  0.18141417461E+02  0.51100000000E-03 0. -1.
        -11    1    3    3    0    0  0.19473623440E+02 -0.23241958095E+00  0.12742598985E+02  0.23273372294E+02  0.51100000000E-03 0.  1.
        -12    1    3    3    0    0 -0.22619225655E-02  0.90790494176E+01  0.79790986862E+00  0.91140443055E+01  0.00000000000E+00 0.  1.
</event>
<event>
 7    1  0.2680581E-011  0.5052886E+02  0.7816164E-02  0.1300439E+00
        -11   -1    0    0    0    0  0.00000000000E+00  0.00000000000E+00  0.45593999997E+02  0.45594000000E+02  0.51100000000E-03 0.  1.
         11   -1    0    0    0    0 -0.00000000000E+00 -0.00000000000E+00 -0.45593999997E+02  0.45594000000E+02  0.51100000000E-03 0. -1.
    9900012    2    1    2    0    0  0.51173164418E+01  0.57076922372E+01  0.39929952207E+02  0.50528858820E+02  0.29999996868E+02 0.  0.
         12    1    1    2    0    0 -0.51173164418E+01 -0.57076922372E+01 -0.39929952207E+02  0.40659141180E+02  0.00000000000E+00 0. -1.
         11    1    3    3    0    0  0.10050648662E+02  0.16925314588E+01  0.19863475898E+02  0.22325722301E+02  0.51100000000E-03 0. -1.
        -11    1    3    3    0    0  0.17777923197E+01 -0.68021431635E+01  0.81830678277E+01  0.10788526150E+02  0.51100000000E-03 0.  1.
         12    1    3    3    0    0 -0.67111245395E+01  0.10817303942E+02  0.11883408482E+02  0.17414610369E+02  0.00000000000E+00 0. -1.
</event>
<event>
 7    1  0.2680581E-011  0.5052881E+02  0.7816164E-02  0.1300439E+00
        -11   -1    0    0    0    0  0.00000000000E+00  0.00000000000E+00  0.45593999997E+02  0.45594000000E+02  0.51100000000E-03 0. -1.
         11   -1    0    0    0    0 -0.00000000000E+00 -0.00000000000E+00 -0.45593999997E+02  0.45594000000E+02  0.51100000000E-03 0.  1.
    9900012    2    1    2    0    0 -0.24051106429E+02 -0.32093426784E+02 -0.66877339579E+01  0.50528812248E+02  0.29999855308E+02 0.  0.
         12    1    1    2    0    0  0.24051106429E+02  0.32093426784E+02  0.66877339579E+01  0.40659187752E+02  0.00000000000E+00 0. -1.
         11    1    3    3    0    0 -0.47071168529E+01 -0.12662456465E+02  0.18561440712E+01  0.13635982688E+02  0.51100000000E-03 0. -1.
        -11    1    3    3    0    0  0.52761556292E+00 -0.11549791761E+02 -0.10244988490E+02  0.15447843129E+02  0.51100000000E-03 0.  1.
         12    1    3    3    0    0 -0.19871605139E+02 -0.78811785579E+01  0.17011104605E+01  0.21444986432E+02  0.00000000000E+00 0. -1.
</event>
<event>
 7    1  0.2680581E-011  0.5052901E+02  0.7816164E-02  0.1300438E+00
        -11   -1    0    0    0    0  0.00000000000E+00  0.00000000000E+00  0.45593999997E+02  0.45594000000E+02  0.51100000000E-03 0.  1.
         11   -1    0    0    0    0 -0.00000000000E+00 -0.00000000000E+00 -0.45593999997E+02  0.45594000000E+02  0.51100000000E-03 0. -1.
    9900012    2    1    2    0    0  0.12754841361E+02  0.68611380284E+01  0.37992007506E+02  0.50529005577E+02  0.30000442947E+02 0.  0.
         12    1    1    2    0    0 -0.12754841361E+02 -0.68611380284E+01 -0.37992007506E+02  0.40658994423E+02  0.00000000000E+00 0. -1.
         11    1    3    3    0    0  0.65752817389E+01  0.12389976100E+02  0.23069308465E+02  0.26998867217E+02  0.51100000000E-03 0.  1.
        -11    1    3    3    0    0 -0.48610097206E+01 -0.35451051813E+01  0.90529734426E+01  0.10869844280E+02  0.51100000000E-03 0. -1.
         12    1    3    3    0    0  0.11040569342E+02 -0.19837328901E+01  0.58697255982E+01  0.12660294079E+02  0.00000000000E+00 0. -1.
</event>
<event>
 7    1  0.2680581E-011  0.5052886E+02  0.7816164E-02  0.1300439E+00
        -11   -1    0    0    0    0  0.00000000000E+00  0.00000000000E+00  0.45593999997E+02  0.45594000000E+02  0.51100000000E-03 0. -1.
         11   -1    0    0    0    0 -0.00000000000E+00 -0.00000000000E+00 -0.45593999997E+02  0.45594000000E+02  0.51100000000E-03 0.  1.
    9900012    2    1    2    0    0  0.20853474758E+02  0.32822833788E+02 -0.11872654967E+02  0.50528858797E+02  0.29999996800E+02 0.  0.
         12    1    1    2    0    0 -0.20853474758E+02 -0.32822833788E+02  0.11872654967E+02  0.40659141203E+02  0.00000000000E+00 0. -1.
         11    1    3    3    0    0  0.63758094074E+00  0.53633700452E+01 -0.10991755460E+01  0.55118449579E+01  0.51100000000E-03 0. -1.
        -11    1    3    3    0    0  0.82283382502E+01  0.21038383299E+01  0.76747550611E+01  0.11446988756E+02  0.51100000000E-03 0.  1.
        -12    1    3    3    0    0  0.11987555567E+02  0.25355625413E+02 -0.18448234482E+02  0.33570025083E+02  0.00000000000E+00 0.  1.
</event>
<event>
 7    1  0.2680581E-011  0.5052886E+02  0.7816164E-02  0.1300439E+00
        -11   -1    0    0    0    0  0.00000000000E+00  0.00000000000E+00  0.45593999997E+02  0.45594000000E+02  0.51100000000E-03 0.  1.
         11   -1    0    0    0    0 -0.00000000000E+00 -0.00000000000E+00 -0.45593999997E+02  0.45594000000E+02  0.51100000000E-03 0. -1.
    9900012    2    1    2    0    0  0.24872242570E+02  0.32159610070E+02 -0.54488304089E+00  0.50528857512E+02  0.29999992894E+02 0.  0.
         12    1    1    2    0    0 -0.24872242570E+02 -0.32159610070E+02  0.54488304089E+00  0.40659142488E+02  0.00000000000E+00 0. -1.
         11    1    3    3    0    0  0.15288355267E+02  0.15337506841E+02  0.93666654767E+01  0.23594646539E+02  0.51100000000E-03 0. -1.
        -11    1    3    3    0    0  0.59950512635E+01 -0.10630885141E+01  0.17206196642E+00  0.60910099674E+01  0.51100000000E-03 0.  1.
         12    1    3    3    0    0  0.35888360399E+01  0.17885191743E+02 -0.10083610484E+02  0.20843201006E+02  0.00000000000E+00 0. -1.
</event>
<event>
 7    1  0.2680581E-011  0.5052887E+02  0.7816164E-02  0.1300439E+00
        -11   -1    0    0    0    0  0.00000000000E+00  0.00000000000E+00  0.45593999997E+02  0.45594000000E+02  0.51100000000E-03 0.  1.
         11   -1    0    0    0    0 -0.00000000000E+00 -0.00000000000E+00 -0.45593999997E+02  0.45594000000E+02  0.51100000000E-03 0. -1.
    9900012    2    1    2    0    0 -0.35208378676E+02 -0.86493243983E+01  0.18404466338E+02  0.50528866675E+02  0.30000020747E+02 0.  0.
         12    1    1    2    0    0  0.35208378676E+02  0.86493243983E+01 -0.18404466338E+02  0.40659133325E+02  0.00000000000E+00 0. -1.
         11    1    3    3    0    0 -0.21766934851E+01  0.73821207042E+01  0.13107063813E+01  0.78071539052E+01  0.51100000000E-03 0. -1.
        -11    1    3    3    0    0 -0.15177628788E+02 -0.16569371169E+00  0.80574486123E+01  0.17184596255E+02  0.51100000000E-03 0.  1.
         12    1    3    3    0    0 -0.17854056402E+02 -0.15865751391E+02  0.90363113444E+01  0.25537116516E+02  0.00000000000E+00 0. -1.
</event>
<event>
 7    1  0.2680581E-011  0.5052877E+02  0.7816164E-02  0.1300439E+00
        -11   -1    0    0    0    0  0.00000000000E+00  0.00000000000E+00  0.45593999997E+02  0.45594000000E+02  0.51100000000E-03 0. -1.
         11   -1    0    0    0    0 -0.00000000000E+00 -0.00000000000E+00 -0.45593999997E+02  0.45594000000E+02  0.51100000000E-03 0.  1.
    9900012    2    1    2    0    0  0.26085093011E+02 -0.60935443914E+01 -0.30587742889E+02  0.50528765186E+02  0.29999712257E+02 0.  0.
         12    1    1    2    0    0 -0.26085093011E+02  0.60935443914E+01  0.30587742889E+02  0.40659234814E+02  0.00000000000E+00 0. -1.
         11    1    3    3    0    0  0.49783035452E+01  0.58203623033E+00 -0.10595370088E+02  0.11721098069E+02  0.51100000000E-03 0. -1.
        -11    1    3    3    0    0 -0.44242432541E+00 -0.99036925899E+01 -0.12077261050E+02  0.15624951230E+02  0.51100000000E-03 0.  1.
        -12    1    3    3    0    0  0.21549213791E+02  0.32281119681E+01 -0.79151117508E+01  0.23182715888E+02  0.00000000000E+00 0.  1.
</event>
<event>
 7    1  0.2680581E-011  0.5052889E+02  0.7816164E-02  0.1300439E+00
        -11   -1    0    0    0    0  0.00000000000E+00  0.00000000000E+00  0.45593999997E+02  0.45594000000E+02  0.51100000000E-03 0. -1.
         11   -1    0    0    0    0 -0.00000000000E+00 -0.00000000000E+00 -0.45593999997E+02  0.45594000000E+02  0.51100000000E-03 0.  1.
    9900012    2    1    2    0    0 -0.16793965643E+02  0.15248658170E+02 -0.33743209801E+02  0.50528891971E+02  0.30000097635E+02 0.  0.
         12    1    1    2    0    0  0.16793965643E+02 -0.15248658170E+02  0.33743209801E+02  0.40659108029E+02  0.00000000000E+00 0. -1.
         11    1    3    3    0    0  0.31382081408E+00 -0.14604400886E+01  0.29869022392E+01  0.33396038692E+01  0.51100000000E-03 0. -1.
        -11    1    3    3    0    0 -0.11669128308E+02  0.60186259667E+00 -0.93702210770E+01  0.14977711352E+02  0.51100000000E-03 0.  1.
        -12    1    3    3    0    0 -0.54386581489E+01  0.16107235662E+02 -0.27359890964E+02  0.32211576749E+02  0.00000000000E+00 0.  1.
</event>
<event>
 7    1  0.2680581E-011  0.5052887E+02  0.7816164E-02  0.1300439E+00
        -11   -1    0    0    0    0  0.00000000000E+00  0.00000000000E+00  0.45593999997E+02  0.45594000000E+02  0.51100000000E-03 0. -1.
         11   -1    0    0    0    0 -0.00000000000E+00 -0.00000000000E+00 -0.45593999997E+02  0.45594000000E+02  0.51100000000E-03 0.  1.
    9900012    2    1    2    0    0 -0.20767083810E+02  0.25399891978E+02 -0.24015384798E+02  0.50528868314E+02  0.30000025729E+02 0.  0.
         12    1    1    2    0    0  0.20767083810E+02 -0.25399891978E+02  0.24015384798E+02  0.40659131686E+02  0.00000000000E+00 0. -1.
         11    1    3    3    0    0 -0.84110106663E+01  0.14634435041E+02  0.18866822973E+01  0.16984444641E+02  0.51100000000E-03 0. -1.
        -11    1    3    3    0    0 -0.11336930309E+02  0.45712892225E+01 -0.80897898522E+01  0.14658355095E+02  0.51100000000E-03 0.  1.
        -12    1    3    3    0    0 -0.10191428348E+01  0.61941677143E+01 -0.17812277243E+02  0.18886068579E+02  0.00000000000E+00 0.  1.
</event>
<event>
 7    1  0.2680581E-011  0.5052886E+02  0.7816164E-02  0.1300439E+00
        -11   -1    0    0    0    0  0.00000000000E+00  0.00000000000E+00  0.45593999997E+02  0.45594000000E+02  0.51100000000E-03 0.  1.
         11   -1    0    0    0    0 -0.00000000000E+00 -0.00000000000E+00 -0.45593999997E+02  0.45594000000E+02  0.51100000000E-03 0. -1.
    9900012    2    1    2    0    0  0.31539081276E+02 -0.11346715781E+02 -0.23015301087E+02  0.50528859688E+02  0.29999999508E+02 0.  0.
         12    1    1    2    0    0 -0.31539081276E+02  0.11346715781E+02  0.23015301087E+02  0.40659140312E+02  0.00000000000E+00 0. -1.
         11    1    3    3    0    0  0.50970986436E+01  0.75066765399E+01 -0.11303636677E+02  0.14494923582E+02  0.51100000000E-03 0. -1.
        -11    1    3    3    0    0  0.98791140272E+01 -0.16272509642E+01 -0.51149272820E+01  0.11243101041E+02  0.51100000000E-03 0.  1.
        -12    1    3    3    0    0  0.16562868605E+02 -0.17226141357E+02 -0.65967371282E+01  0.24790835065E+02  0.00000000000E+00 0.  1.
</event>
<event>
 7    1  0.2680581E-011  0.5052885E+02  0.7816164E-02  0.1300439E+00
        -11   -1    0    0    0    0  0.00000000000E+00  0.00000000000E+00  0.45593999997E+02  0.45594000000E+02  0.51100000000E-03 0.  1.
         11   -1    0    0    0    0 -0.00000000000E+00 -0.00000000000E+00 -0.45593999997E+02  0.45594000000E+02  0.51100000000E-03 0. -1.
    9900012    2    1    2    0    0  0.20005818201E+02 -0.13690630222E+02  0.32641998289E+02  0.50528853796E+02  0.29999981598E+02 0.  0.
         12    1    1    2    0    0 -0.20005818201E+02  0.13690630222E+02 -0.32641998289E+02  0.40659146204E+02  0.00000000000E+00 0. -1.
         11    1    3    3    0    0 -0.34501859884E+01 -0.28347776301E+01 -0.68505954321E+00  0.45176381446E+01  0.51100000000E-03 0. -1.
        -11    1    3    3    0    0  0.13112649753E+02  0.55709958536E+00  0.55504097125E+01  0.14249876902E+02  0.51100000000E-03 0.  1.
        -12    1    3    3    0    0  0.10343354436E+02 -0.11412952177E+02  0.27776648120E+02  0.31761338749E+02  0.00000000000E+00 0.  1.
</event>
<event>
 7    1  0.2680581E-011  0.5052888E+02  0.7816164E-02  0.1300439E+00
        -11   -1    0    0    0    0  0.00000000000E+00  0.00000000000E+00  0.45593999997E+02  0.45594000000E+02  0.51100000000E-03 0.  1.
         11   -1    0    0    0    0 -0.00000000000E+00 -0.00000000000E+00 -0.45593999997E+02  0.45594000000E+02  0.51100000000E-03 0. -1.
    9900012    2    1    2    0    0  0.20393831237E+02 -0.29989323935E+02  0.18381946476E+02  0.50528882217E+02  0.30000067988E+02 0.  0.
         12    1    1    2    0    0 -0.20393831237E+02  0.29989323935E+02 -0.18381946476E+02  0.40659117783E+02  0.00000000000E+00 0. -1.
         11    1    3    3    0    0 -0.11516399973E+00 -0.59378522263E+01  0.76846237534E+01  0.97120952580E+01  0.51100000000E-03 0. -1.
        -11    1    3    3    0    0 -0.40160909862E+01 -0.49987217511E+01 -0.27465025220E+01  0.69756349044E+01  0.51100000000E-03 0.  1.
         12    1    3    3    0    0  0.24525086223E+02 -0.19052749958E+02  0.13443825245E+02  0.33841152055E+02  0.00000000000E+00 0. -1.
</event>
<event>
 7    1  0.2680581E-011  0.5052886E+02  0.7816164E-02  0.1300439E+00
        -11   -1    0    0    0    0  0.00000000000E+00  0.00000000000E+00  0.45593999997E+02  0.45594000000E+02  0.51100000000E-03 0. -1.
         11   -1    0    0    0    0 -0.00000000000E+00 -0.00000000000E+00 -0.45593999997E+02  0.45594000000E+02  0.51100000000E-03 0.  1.
    9900012    2    1    2    0    0 -0.14718876964E+02 -0.37769975798E+02 -0.31542648469E+01  0.50528858376E+02  0.29999995521E+02 0.  0.
         12    1    1    2    0    0  0.14718876964E+02  0.37769975798E+02  0.31542648469E+01  0.40659141624E+02  0.00000000000E+00 0. -1.
         11    1    3    3    0    0 -0.94829882220E+01 -0.11568840456E+02 -0.18927011339E+01  0.15078045396E+02  0.51100000000E-03 0. -1.
        -11    1    3    3    0    0  0.23440662227E+00 -0.23236517060E+02 -0.95188782284E+01  0.25111744554E+02  0.51100000000E-03 0.  1.
         12    1    3    3    0    0 -0.54702953639E+01 -0.29646182816E+01  0.82573145154E+01  0.10339068427E+02  0.00000000000E+00 0. -1.
</event>
<event>
 7    1  0.2680581E-011  0.5052886E+02  0.7816164E-02  0.1300439E+00
        -11   -1    0    0    0    0  0.00000000000E+00  0.00000000000E+00  0.45593999997E+02  0.45594000000E+02  0.51100000000E-03 0.  1.
         11   -1    0    0    0    0 -0.00000000000E+00 -0.00000000000E+00 -0.45593999997E+02  0.45594000000E+02  0.51100000000E-03 0. -1.
    9900012    2    1    2    0    0  0.25677290259E+02  0.18363261587E+02  0.25624859853E+02  0.50528855227E+02  0.29999985949E+02 0.  0.
         12    1    1    2    0    0 -0.25677290259E+02 -0.18363261587E+02 -0.25624859853E+02  0.40659144773E+02  0.00000000000E+00 0. -1.
         11    1    3    3    0    0 -0.23464382033E+01 -0.16474370100E+01 -0.23076100649E+01  0.36803376770E+01  0.51100000000E-03 0. -1.
        -11    1    3    3    0    0  0.17221846620E+02  0.77109112494E+01  0.23004326578E+02  0.29753137563E+02  0.51100000000E-03 0.  1.
        -12    1    3    3    0    0  0.10801881842E+02  0.12299787347E+02  0.49281433401E+01  0.17095379987E+02  0.00000000000E+00 0.  1.
</event>
<event>
 7    1  0.2680581E-011  0.5052886E+02  0.7816164E-02  0.1300439E+00
        -11   -1    0    0    0    0  0.00000000000E+00  0.00000000000E+00  0.45593999997E+02  0.45594000000E+02  0.51100000000E-03 0. -1.
         11   -1    0    0    0    0 -0.00000000000E+00 -0.00000000000E+00 -0.45593999997E+02  0.45594000000E+02  0.51100000000E-03 0.  1.
    9900012    2    1    2    0    0  0.12404309945E+02  0.24823178351E+02 -0.29717142045E+02  0.50528860560E+02  0.30000002159E+02 0.  0.
         12    1    1    2    0    0 -0.12404309945E+02 -0.24823178351E+02  0.29717142045E+02  0.40659139440E+02  0.00000000000E+00 0. -1.
         11    1    3    3    0    0  0.31118878121E+01  0.18827058649E+02 -0.16771748719E+02  0.25405384045E+02  0.51100000000E-03 0. -1.
        -11    1    3    3    0    0  0.82977986309E+01  0.11004794781E+02 -0.32424310065E+01  0.14158825141E+02  0.51100000000E-03 0.  1.
         12    1    3    3    0    0  0.99462350239E+00 -0.50086750796E+01 -0.97029623202E+01  0.10964651374E+02  0.00000000000E+00 0. -1.
</event>
<event>
 7    1  0.2680581E-011  0.5052888E+02  0.7816164E-02  0.1300439E+00
        -11   -1    0    0    0    0  0.00000000000E+00  0.00000000000E+00  0.45593999997E+02  0.45594000000E+02  0.51100000000E-03 0.  1.
         11   -1    0    0    0    0 -0.00000000000E+00 -0.00000000000E+00 -0.45593999997E+02  0.45594000000E+02  0.51100000000E-03 0. -1.
    9900012    2    1    2    0    0 -0.35891168957E+02 -0.59982416674E+01 -0.18138613971E+02  0.50528877666E+02  0.30000054153E+02 0.  0.
         12    1    1    2    0    0  0.35891168957E+02  0.59982416674E+01  0.18138613971E+02  0.40659122334E+02  0.00000000000E+00 0. -1.
         11    1    3    3    0    0  0.11735485308E+01  0.12077984639E+01 -0.35029363559E+01  0.38867154074E+01  0.51100000000E-03 0. -1.
        -11    1    3    3    0    0 -0.10360324651E+02 -0.12719458439E+02 -0.17963209688E+01  0.16502960920E+02  0.51100000000E-03 0.  1.
        -12    1    3    3    0    0 -0.26704392837E+02  0.55134183077E+01 -0.12839356646E+02  0.30139201338E+02  0.00000000000E+00 0.  1.
</event>
<event>
 7    1  0.2680581E-011  0.5052887E+02  0.7816164E-02  0.1300439E+00
        -11   -1    0    0    0    0  0.00000000000E+00  0.00000000000E+00  0.45593999997E+02  0.45594000000E+02  0.51100000000E-03 0.  1.
         11   -1    0    0    0    0 -0.00000000000E+00 -0.00000000000E+00 -0.45593999997E+02  0.45594000000E+02  0.51100000000E-03 0. -1.
    9900012    2    1    2    0    0  0.57522023305E+01  0.32796207003E+01  0.40116346732E+02  0.50528867955E+02  0.30000024635E+02 0.  0.
         12    1    1    2    0    0 -0.57522023305E+01 -0.32796207003E+01 -0.40116346732E+02  0.40659132045E+02  0.00000000000E+00 0. -1.
         11    1    3    3    0    0  0.70386941506E+01 -0.21119196707E+01  0.18225867996E+02  0.19651607682E+02  0.51100000000E-03 0. -1.
        -11    1    3    3    0    0  0.74415475361E+01  0.92558592453E+01  0.14857491264E+02  0.19020846643E+02  0.51100000000E-03 0.  1.
         12    1    3    3    0    0 -0.87280393562E+01 -0.38643188744E+01  0.70329874719E+01  0.11856413629E+02  0.00000000000E+00 0. -1.
</event>
<event>
 7    1  0.2680581E-011  0.5052881E+02  0.7816164E-02  0.1300439E+00
        -11   -1    0    0    0    0  0.00000000000E+00  0.00000000000E+00  0.45593999997E+02  0.45594000000E+02  0.51100000000E-03 0. -1.
         11   -1    0    0    0    0 -0.00000000000E+00 -0.00000000000E+00 -0.45593999997E+02  0.45594000000E+02  0.51100000000E-03 0.  1.
    9900012    2    1    2    0    0 -0.15189495553E+02 -0.37686763147E+02 -0.14686242768E+01  0.50528809785E+02  0.29999847823E+02 0.  0.
         12    1    1    2    0    0  0.15189495553E+02  0.37686763147E+02  0.14686242768E+01  0.40659190215E+02  0.00000000000E+00 0. -1.
         11    1    3    3    0    0 -0.18316037878E+01  0.29239497601E+01  0.29170880916E+01  0.45181476105E+01  0.51100000000E-03 0. -1.
        -11    1    3    3    0    0  0.30175828403E+01 -0.15710872415E+02 -0.16866458734E+01  0.16086705468E+02  0.51100000000E-03 0.  1.
        -12    1    3    3    0    0 -0.16375474605E+02 -0.24899840492E+02 -0.26990664950E+01  0.29923956707E+02  0.00000000000E+00 0.  1.
</event>
<event>
 7    1  0.2680581E-011  0.5052886E+02  0.7816164E-02  0.1300439E+00
        -11   -1    0    0    0    0  0.00000000000E+00  0.00000000000E+00  0.45593999997E+02  0.45594000000E+02  0.51100000000E-03 0.  1.
         11   -1    0    0    0    0 -0.00000000000E+00 -0.00000000000E+00 -0.45593999997E+02  0.45594000000E+02  0.51100000000E-03 0. -1.
    9900012    2    1    2    0    0 -0.61175641398E+01  0.38203427769E+02 -0.12499582179E+02  0.50528855408E+02  0.29999986497E+02 0.  0.
         12    1    1    2    0    0  0.61175641398E+01 -0.38203427769E+02  0.12499582179E+02  0.40659144592E+02  0.00000000000E+00 0. -1.
         11    1    3    3    0    0 -0.84068005272E+01  0.14447230487E+02 -0.12779375135E+02  0.21040655716E+02  0.51100000000E-03 0. -1.
        -11    1    3    3    0    0 -0.65078694959E+01  0.17494238924E+02 -0.38603513397E+00  0.18669488057E+02  0.51100000000E-03 0.  1.
        -12    1    3    3    0    0  0.87971058832E+01  0.62619583583E+01  0.66582809001E+00  0.10818711635E+02  0.00000000000E+00 0.  1.
</event>
<event>
 7    1  0.2680581E-011  0.5052887E+02  0.7816164E-02  0.1300439E+00
        -11   -1    0    0    0    0  0.00000000000E+00  0.00000000000E+00  0.45593999997E+02  0.45594000000E+02  0.51100000000E-03 0.  1.
         11   -1    0    0    0    0 -0.00000000000E+00 -0.00000000000E+00 -0.45593999997E+02  0.45594000000E+02  0.51100000000E-03 0. -1.
    9900012    2    1    2    0    0  0.19621715004E+02  0.87044289347E+01  0.34530947028E+02  0.50528867133E+02  0.30000022138E+02 0.  0.
         12    1    1    2    0    0 -0.19621715004E+02 -0.87044289347E+01 -0.34530947028E+02  0.40659132867E+02  0.00000000000E+00 0. -1.
         11    1    3    3    0    0  0.23648476616E+01  0.29054926826E+01 -0.71422015599E+00  0.38137255910E+01  0.51100000000E-03 0. -1.
        -11    1    3    3    0    0  0.23316210474E+02  0.17807679810E+01  0.27277692505E+02  0.35928948136E+02  0.51100000000E-03 0.  1.
         12    1    3    3    0    0 -0.60593431313E+01  0.40181682712E+01  0.79674746793E+01  0.10786193407E+02  0.00000000000E+00 0. -1.
</event>
<event>
 7    1  0.2680581E-011  0.5052890E+02  0.7816164E-02  0.1300439E+00
        -11   -1    0    0    0    0  0.00000000000E+00  0.00000000000E+00  0.45593999997E+02  0.45594000000E+02  0.51100000000E-03 0. -1.
         11   -1    0    0    0    0 -0.00000000000E+00 -0.00000000000E+00 -0.45593999997E+02  0.45594000000E+02  0.51100000000E-03 0.  1.
    9900012    2    1    2    0    0 -0.34407875880E+02 -0.17448646324E+02 -0.12837659951E+02  0.50528896540E+02  0.30000111524E+02 0.  0.
         12    1    1    2    0    0  0.34407875880E+02  0.17448646324E+02  0.12837659951E+02  0.40659103460E+02  0.00000000000E+00 0. -1.
         11    1    3    3    0    0 -0.85217672145E+01 -0.83274698089E+01  0.72876631837E+00  0.11937268133E+02  0.51100000000E-03 0. -1.
        -11    1    3    3    0    0  0.33016973745E+01 -0.30958061173E+01 -0.65701337168E+01  0.79782127314E+01  0.51100000000E-03 0.  1.
        -12    1    3    3    0    0 -0.29187806040E+02 -0.60253703981E+01 -0.69962925529E+01  0.30613415676E+02  0.00000000000E+00 0.  1.
</event>
<event>
 7    1  0.2680581E-011  0.5052886E+02  0.7816164E-02  0.1300439E+00
        -11   -1    0    0    0    0  0.00000000000E+00  0.00000000000E+00  0.45593999997E+02  0.45594000000E+02  0.51100000000E-03 0. -1.
         11   -1    0    0    0    0 -0.00000000000E+00 -0.00000000000E+00 -0.45593999997E+02  0.45594000000E+02  0.51100000000E-03 0.  1.
    9900012    2    1    2    0    0  0.94716015075E+01 -0.36984553746E+02 -0.13985615243E+02  0.50528857306E+02  0.29999992268E+02 0.  0.
         12    1    1    2    0    0 -0.94716015075E+01  0.36984553746E+02  0.13985615243E+02  0.40659142694E+02  0.00000000000E+00 0. -1.
         11    1    3    3    0    0 -0.14231796337E-01 -0.15709501352E+01  0.13645374726E+01  0.20808771340E+01  0.51100000000E-03 0. -1.
        -11    1    3    3    0    0  0.14304121310E+02 -0.53307384091E+01 -0.29115434746E+01  0.15540326384E+02  0.51100000000E-03 0.  1.
         12    1    3    3    0    0 -0.48182880063E+01 -0.30082865201E+02 -0.12438609241E+02  0.32907653789E+02  0.00000000000E+00 0. -1.
</event>
<event>
 7    1  0.2680581E-011  0.5052887E+02  0.7816164E-02  0.1300439E+00
        -11   -1    0    0    0    0  0.00000000000E+00  0.00000000000E+00  0.45593999997E+02  0.45594000000E+02  0.51100000000E-03 0.  1.
         11   -1    0    0    0    0 -0.00000000000E+00 -0.00000000000E+00 -0.45593999997E+02  0.45594000000E+02  0.51100000000E-03 0. -1.
    9900012    2    1    2    0    0 -0.29026758975E+02  0.16244754015E+02  0.23382041440E+02  0.50528872716E+02  0.30000039107E+02 0.  0.
         12    1    1    2    0    0  0.29026758975E+02 -0.16244754015E+02 -0.23382041440E+02  0.40659127284E+02  0.00000000000E+00 0. -1.
         11    1    3    3    0    0  0.82969176587E+00 -0.75786740026E+00  0.24474980376E+01  0.26931391215E+01  0.51100000000E-03 0. -1.
        -11    1    3    3    0    0 -0.75854873753E+01  0.14629894844E+02 -0.96982527069E+00  0.16507998158E+02  0.51100000000E-03 0.  1.
        -12    1    3    3    0    0 -0.22270963365E+02  0.23727265722E+01  0.21904368673E+02  0.31327735437E+02  0.00000000000E+00 0.  1.
</event>
<event>
 7    1  0.3154709E-011  0.5052886E+02  0.7816164E-02  0.1300439E+00
        -11   -1    0    0    0    0  0.00000000000E+00  0.00000000000E+00  0.45593999997E+02  0.45594000000E+02  0.51100000000E-03 0. -1.
         11   -1    0    0    0    0 -0.00000000000E+00 -0.00000000000E+00 -0.45593999997E+02  0.45594000000E+02  0.51100000000E-03 0.  1.
    9900012    2    1    2    0    0 -0.12950782191E+02  0.18586620499E+02 -0.33763593884E+02  0.50528862123E+02  0.30000006908E+02 0.  0.
         12    1    1    2    0    0  0.12950782191E+02 -0.18586620499E+02  0.33763593884E+02  0.40659137877E+02  0.00000000000E+00 0. -1.
         11    1    3    3    0    0 -0.22071086073E+00  0.89073060096E+01 -0.96374900268E+00  0.89620101558E+01  0.51100000000E-03 0. -1.
        -11    1    3    3    0    0 -0.10663637698E+01  0.99498324307E+01 -0.26459365822E+02  0.28288413477E+02  0.51100000000E-03 0.  1.
         12    1    3    3    0    0 -0.11663707561E+02 -0.27051794091E+00 -0.63404790592E+01  0.13278438490E+02  0.00000000000E+00 0. -1.
</event>
<event>
 7    1  0.2680581E-011  0.5052886E+02  0.7816164E-02  0.1300439E+00
        -11   -1    0    0    0    0  0.00000000000E+00  0.00000000000E+00  0.45593999997E+02  0.45594000000E+02  0.51100000000E-03 0.  1.
         11   -1    0    0    0    0 -0.00000000000E+00 -0.00000000000E+00 -0.45593999997E+02  0.45594000000E+02  0.51100000000E-03 0. -1.
    9900012    2    1    2    0    0 -0.33854922558E+02 -0.14660941562E+01 -0.22469092407E+02  0.50528864162E+02  0.30000013108E+02 0.  0.
         12    1    1    2    0    0  0.33854922558E+02  0.14660941562E+01  0.22469092407E+02  0.40659135838E+02  0.00000000000E+00 0. -1.
         11    1    3    3    0    0 -0.15013796506E+02 -0.45869003191E+01 -0.88898658239E+01  0.18041160015E+02  0.51100000000E-03 0. -1.
        -11    1    3    3    0    0 -0.23299597454E+02 -0.78338511394E+00 -0.89657246659E+01  0.24977372816E+02  0.51100000000E-03 0.  1.
         12    1    3    3    0    0  0.44584714020E+01  0.39041912768E+01 -0.46135019167E+01  0.75103313311E+01  0.00000000000E+00 0. -1.
</event>
<event>
 7    1  0.2680581E-011  0.5052881E+02  0.7816164E-02  0.1300439E+00
        -11   -1    0    0    0    0  0.00000000000E+00  0.00000000000E+00  0.45593999997E+02  0.45594000000E+02  0.51100000000E-03 0.  1.
         11   -1    0    0    0    0 -0.00000000000E+00 -0.00000000000E+00 -0.45593999997E+02  0.45594000000E+02  0.51100000000E-03 0. -1.
    9900012    2    1    2    0    0  0.24205536499E+02 -0.32081331346E+02 -0.61684890702E+01  0.50528805768E+02  0.29999835613E+02 0.  0.
         12    1    1    2    0    0 -0.24205536499E+02  0.32081331346E+02  0.61684890702E+01  0.40659194232E+02  0.00000000000E+00 0. -1.
         11    1    3    3    0    0 -0.21333377159E+01 -0.48476873496E+01  0.33558418073E+01  0.62699981616E+01  0.51100000000E-03 0. -1.
        -11    1    3    3    0    0  0.21791116122E+02 -0.16205913930E+02  0.25620385457E+01  0.27277251143E+02  0.51100000000E-03 0.  1.
         12    1    3    3    0    0  0.45477580929E+01 -0.11027730067E+02 -0.12086369423E+02  0.16981556464E+02  0.00000000000E+00 0. -1.
</event>
<event>
 7    1  0.2680581E-011  0.5052886E+02  0.7816164E-02  0.1300439E+00
        -11   -1    0    0    0    0  0.00000000000E+00  0.00000000000E+00  0.45593999997E+02  0.45594000000E+02  0.51100000000E-03 0. -1.
         11   -1    0    0    0    0 -0.00000000000E+00 -0.00000000000E+00 -0.45593999997E+02  0.45594000000E+02  0.51100000000E-03 0.  1.
    9900012    2    1    2    0    0 -0.23353911478E+02  0.31366259549E+02 -0.11131871096E+02  0.50528856213E+02  0.29999988944E+02 0.  0.
         12    1    1    2    0    0  0.23353911478E+02 -0.31366259549E+02  0.11131871096E+02  0.40659143787E+02  0.00000000000E+00 0. -1.
         11    1    3    3    0    0 -0.11730906661E+02 -0.86446394322E+00 -0.82879608732E+01  0.14389293405E+02  0.51100000000E-03 0. -1.
        -11    1    3    3    0    0 -0.76319438054E+01  0.83276637725E+01 -0.37117607147E+01  0.11890068041E+02  0.51100000000E-03 0.  1.
         12    1    3    3    0    0 -0.39910610116E+01  0.23903059720E+02  0.86785049151E+00  0.24249494767E+02  0.00000000000E+00 0. -1.
</event>
<event>
 7    1  0.2680581E-011  0.5052886E+02  0.7816164E-02  0.1300439E+00
        -11   -1    0    0    0    0  0.00000000000E+00  0.00000000000E+00  0.45593999997E+02  0.45594000000E+02  0.51100000000E-03 0.  1.
         11   -1    0    0    0    0 -0.00000000000E+00 -0.00000000000E+00 -0.45593999997E+02  0.45594000000E+02  0.51100000000E-03 0. -1.
    9900012    2    1    2    0    0 -0.35198214478E+02 -0.51789989424E+01  0.19683225034E+02  0.50528859819E+02  0.29999999907E+02 0.  0.
         12    1    1    2    0    0  0.35198214478E+02  0.51789989424E+01 -0.19683225034E+02  0.40659140181E+02  0.00000000000E+00 0. -1.
         11    1    3    3    0    0 -0.83206411217E+01  0.32963562974E+01  0.54783636994E+01  0.10493402813E+02  0.51100000000E-03 0.  1.
        -11    1    3    3    0    0 -0.15930387460E+02 -0.28254932402E+01  0.20568993884E+02  0.26169527438E+02  0.51100000000E-03 0. -1.
         12    1    3    3    0    0 -0.10947185897E+02 -0.56498619997E+01 -0.63641325501E+01  0.13865929568E+02  0.00000000000E+00 0. -1.
</event>
<event>
 7    1  0.2680581E-011  0.5052887E+02  0.7816164E-02  0.1300439E+00
        -11   -1    0    0    0    0  0.00000000000E+00  0.00000000000E+00  0.45593999997E+02  0.45594000000E+02  0.51100000000E-03 0. -1.
         11   -1    0    0    0    0 -0.00000000000E+00 -0.00000000000E+00 -0.45593999997E+02  0.45594000000E+02  0.51100000000E-03 0.  1.
    9900012    2    1    2    0    0 -0.27478342010E+02 -0.28941405442E+02  0.77782277830E+01  0.50528867495E+02  0.30000023238E+02 0.  0.
         12    1    1    2    0    0  0.27478342010E+02  0.28941405442E+02 -0.77782277830E+01  0.40659132505E+02  0.00000000000E+00 0. -1.
         11    1    3    3    0    0 -0.91910855800E-01  0.36371509850E+01  0.27544685856E+01  0.45633772957E+01  0.51100000000E-03 0. -1.
        -11    1    3    3    0    0 -0.79404130074E+01 -0.16332896427E+02 -0.48070438700E+01  0.18786200666E+02  0.51100000000E-03 0.  1.
        -12    1    3    3    0    0 -0.19446018147E+02 -0.16245660001E+02  0.98308030674E+01  0.27179289534E+02  0.00000000000E+00 0.  1.
</event>
<event>
 7    1  0.2680581E-011  0.5052888E+02  0.7816164E-02  0.1300439E+00
        -11   -1    0    0    0    0  0.00000000000E+00  0.00000000000E+00  0.45593999997E+02  0.45594000000E+02  0.51100000000E-03 0.  1.
         11   -1    0    0    0    0 -0.00000000000E+00 -0.00000000000E+00 -0.45593999997E+02  0.45594000000E+02  0.51100000000E-03 0. -1.
    9900012    2    1    2    0    0 -0.32901401012E+02  0.10365669441E+02  0.21522418396E+02  0.50528883124E+02  0.30000070744E+02 0.  0.
         12    1    1    2    0    0  0.32901401012E+02 -0.10365669441E+02 -0.21522418396E+02  0.40659116876E+02  0.00000000000E+00 0. -1.
         11    1    3    3    0    0 -0.38243852007E+01 -0.45174725251E+01  0.11523400683E+01  0.60300388118E+01  0.51100000000E-03 0. -1.
        -11    1    3    3    0    0 -0.16278024288E+02  0.47916684172E+01 -0.17101302100E+01  0.17054580222E+02  0.51100000000E-03 0.  1.
         12    1    3    3    0    0 -0.12798991523E+02  0.10091473549E+02  0.22080208538E+02  0.27444264090E+02  0.00000000000E+00 0. -1.
</event>
<event>
 7    1  0.2680581E-011  0.5052886E+02  0.7816164E-02  0.1300439E+00
        -11   -1    0    0    0    0  0.00000000000E+00  0.00000000000E+00  0.45593999997E+02  0.45594000000E+02  0.51100000000E-03 0. -1.
         11   -1    0    0    0    0 -0.00000000000E+00 -0.00000000000E+00 -0.45593999997E+02  0.45594000000E+02  0.51100000000E-03 0.  1.
    9900012    2    1    2    0    0 -0.15241210630E+02  0.32043129298E+02 -0.19852187451E+02  0.50528856093E+02  0.29999988581E+02 0.  0.
         12    1    1    2    0    0  0.15241210630E+02 -0.32043129298E+02  0.19852187451E+02  0.40659143907E+02  0.00000000000E+00 0. -1.
         11    1    3    3    0    0  0.43138353510E+01  0.16346444721E+01 -0.57755510872E+01  0.73917676240E+01  0.51100000000E-03 0. -1.
        -11    1    3    3    0    0 -0.10384756552E+02  0.18742552030E+02 -0.17779772166E+02  0.27843252751E+02  0.51100000000E-03 0.  1.
        -12    1    3    3    0    0 -0.91702894286E+01  0.11665932796E+02  0.37031358021E+01  0.15293835718E+02  0.00000000000E+00 0.  1.
</event>
<event>
 7    1  0.2680581E-011  0.5052887E+02  0.7816164E-02  0.1300439E+00
        -11   -1    0    0    0    0  0.00000000000E+00  0.00000000000E+00  0.45593999997E+02  0.45594000000E+02  0.51100000000E-03 0. -1.
         11   -1    0    0    0    0 -0.00000000000E+00 -0.00000000000E+00 -0.45593999997E+02  0.45594000000E+02  0.51100000000E-03 0.  1.
    9900012    2    1    2    0    0  0.27736590626E+02  0.18824937224E+02 -0.23010181279E+02  0.50528866173E+02  0.30000019220E+02 0.  0.
         12    1    1    2    0    0 -0.27736590626E+02 -0.18824937224E+02  0.23010181279E+02  0.40659133827E+02  0.00000000000E+00 0. -1.
         11    1    3    3    0    0  0.67075690329E+01  0.14963601448E+01 -0.14415963439E+02  0.15970303007E+02  0.51100000000E-03 0. -1.
        -11    1    3    3    0    0  0.20122095465E+02  0.21355279566E+02 -0.73713449194E+01  0.30253651308E+02  0.51100000000E-03 0.  1.
         12    1    3    3    0    0  0.90692612848E+00 -0.40267024876E+01 -0.12228729212E+01  0.43049118583E+01  0.00000000000E+00 0. -1.
</event>
<event>
 7    1  0.2680581E-011  0.5052886E+02  0.7816164E-02  0.1300439E+00
        -11   -1    0    0    0    0  0.00000000000E+00  0.00000000000E+00  0.45593999997E+02  0.45594000000E+02  0.51100000000E-03 0.  1.
         11   -1    0    0    0    0 -0.00000000000E+00 -0.00000000000E+00 -0.45593999997E+02  0.45594000000E+02  0.51100000000E-03 0. -1.
    9900012    2    1    2    0    0  0.34314794892E+02 -0.10008950934E+02  0.19377334560E+02  0.50528863980E+02  0.30000012552E+02 0.  0.
         12    1    1    2    0    0 -0.34314794892E+02  0.10008950934E+02 -0.19377334560E+02  0.40659136020E+02  0.00000000000E+00 0. -1.
         11    1    3    3    0    0  0.10825092694E+02 -0.67589205859E+01  0.35665933407E+01  0.13250895352E+02  0.51100000000E-03 0. -1.
        -11    1    3    3    0    0  0.12233217483E+01 -0.15368357134E+01 -0.58473691618E+01  0.61684768367E+01  0.51100000000E-03 0.  1.
        -12    1    3    3    0    0  0.22266380450E+02 -0.17131946343E+01  0.21658110381E+02  0.31109491791E+02  0.00000000000E+00 0.  1.
</event>
<event>
 7    1  0.2680581E-011  0.5052888E+02  0.7816164E-02  0.1300439E+00
        -11   -1    0    0    0    0  0.00000000000E+00  0.00000000000E+00  0.45593999997E+02  0.45594000000E+02  0.51100000000E-03 0.  1.
         11   -1    0    0    0    0 -0.00000000000E+00 -0.00000000000E+00 -0.45593999997E+02  0.45594000000E+02  0.51100000000E-03 0. -1.
    9900012    2    1    2    0    0 -0.31441628032E+02  0.12574624113E+02  0.22504811340E+02  0.50528884438E+02  0.30000074737E+02 0.  0.
         12    1    1    2    0    0  0.31441628032E+02 -0.12574624113E+02 -0.22504811340E+02  0.40659115562E+02  0.00000000000E+00 0. -1.
         11    1    3    3    0    0 -0.16724963954E+02 -0.13711296342E+01  0.53605212839E+01  0.17616458340E+02  0.51100000000E-03 0. -1.
        -11    1    3    3    0    0 -0.88772464538E+01  0.11747759214E+02  0.60359613221E-01  0.14724774861E+02  0.51100000000E-03 0.  1.
        -12    1    3    3    0    0 -0.58394176233E+01  0.21979945327E+01  0.17083930443E+02  0.18187651237E+02  0.00000000000E+00 0.  1.
</event>
<event>
 7    1  0.2680581E-011  0.5052887E+02  0.7816164E-02  0.1300439E+00
        -11   -1    0    0    0    0  0.00000000000E+00  0.00000000000E+00  0.45593999997E+02  0.45594000000E+02  0.51100000000E-03 0.  1.
         11   -1    0    0    0    0 -0.00000000000E+00 -0.00000000000E+00 -0.45593999997E+02  0.45594000000E+02  0.51100000000E-03 0. -1.
    9900012    2    1    2    0    0  0.29550411469E+02 -0.27016026607E+02  0.70762032112E+01  0.50528866173E+02  0.30000019221E+02 0.  0.
         12    1    1    2    0    0 -0.29550411469E+02  0.27016026607E+02 -0.70762032112E+01  0.40659133827E+02  0.00000000000E+00 0. -1.
         11    1    3    3    0    0  0.27576692128E+01 -0.62570686996E+00  0.95884171921E+01  0.99966991095E+01  0.51100000000E-03 0. -1.
        -11    1    3    3    0    0  0.99331004836E+01 -0.17028720709E+02  0.41185448196E+01  0.20139667969E+02  0.51100000000E-03 0.  1.
        -12    1    3    3    0    0  0.16859641773E+02 -0.93615990280E+01 -0.66307588005E+01  0.20392499095E+02  0.00000000000E+00 0.  1.
</event>
<event>
 7    1  0.2680581E-011  0.5052886E+02  0.7816164E-02  0.1300439E+00
        -11   -1    0    0    0    0  0.00000000000E+00  0.00000000000E+00  0.45593999997E+02  0.45594000000E+02  0.51100000000E-03 0.  1.
         11   -1    0    0    0    0 -0.00000000000E+00 -0.00000000000E+00 -0.45593999997E+02  0.45594000000E+02  0.51100000000E-03 0. -1.
    9900012    2    1    2    0    0  0.11745804839E+02  0.32732937750E+02  0.21065534492E+02  0.50528857259E+02  0.29999992123E+02 0.  0.
         12    1    1    2    0    0 -0.11745804839E+02 -0.32732937750E+02 -0.21065534492E+02  0.40659142741E+02  0.00000000000E+00 0. -1.
         11    1    3    3    0    0 -0.45682278358E+01  0.13368333795E-01  0.40239157863E+01  0.60877567944E+01  0.51100000000E-03 0. -1.
        -11    1    3    3    0    0  0.88536168153E+01  0.27512303368E+01  0.21969178117E+00  0.92738375993E+01  0.51100000000E-03 0.  1.
        -12    1    3    3    0    0  0.74604158592E+01  0.29968339079E+02  0.16821926924E+02  0.35167262865E+02  0.00000000000E+00 0.  1.
</event>
<event>
 7    1  0.2680581E-011  0.5052899E+02  0.7816164E-02  0.1300438E+00
        -11   -1    0    0    0    0  0.00000000000E+00  0.00000000000E+00  0.45593999997E+02  0.45594000000E+02  0.51100000000E-03 0.  1.
         11   -1    0    0    0    0 -0.00000000000E+00 -0.00000000000E+00 -0.45593999997E+02  0.45594000000E+02  0.51100000000E-03 0. -1.
    9900012    2    1    2    0    0 -0.36596625872E+01 -0.18094356375E+02  0.36226455995E+02  0.50528991443E+02  0.30000399988E+02 0.  0.
         12    1    1    2    0    0  0.36596625872E+01  0.18094356375E+02 -0.36226455995E+02  0.40659008557E+02  0.00000000000E+00 0. -1.
         11    1    3    3    0    0 -0.75749260992E+00  0.23285302254E+01  0.19806072113E+02  0.19956862000E+02  0.51100000000E-03 0. -1.
        -11    1    3    3    0    0 -0.36719317103E+01 -0.18829188738E+02  0.19287030723E+02  0.27203142932E+02  0.51100000000E-03 0.  1.
         12    1    3    3    0    0  0.76976173309E+00 -0.15936978626E+01 -0.28666468412E+01  0.33689865115E+01  0.00000000000E+00 0. -1.
</event>
<event>
 7    1  0.2680581E-011  0.5052885E+02  0.7816164E-02  0.1300439E+00
        -11   -1    0    0    0    0  0.00000000000E+00  0.00000000000E+00  0.45593999997E+02  0.45594000000E+02  0.51100000000E-03 0.  1.
         11   -1    0    0    0    0 -0.00000000000E+00 -0.00000000000E+00 -0.45593999997E+02  0.45594000000E+02  0.51100000000E-03 0. -1.
    9900012    2    1    2    0    0 -0.18017623102E+02 -0.31635677605E+02  0.18102911783E+02  0.50528852754E+02  0.29999978430E+02 0.  0.
         12    1    1    2    0    0  0.18017623102E+02  0.31635677605E+02 -0.18102911783E+02  0.40659147246E+02  0.00000000000E+00 0. -1.
         11    1    3    3    0    0  0.12922925452E+01 -0.20261879769E+00  0.11327997536E+01  0.17304074499E+01  0.51100000000E-03 0. -1.
        -11    1    3    3    0    0  0.26581420258E+01 -0.15153102387E+02  0.14835663103E+02  0.21372391793E+02  0.51100000000E-03 0.  1.
        -12    1    3    3    0    0 -0.21968057673E+02 -0.16279956420E+02  0.21344489269E+01  0.27426053511E+02  0.00000000000E+00 0.  1.
</event>
<event>
 7    1  0.2680581E-011  0.5052886E+02  0.7816164E-02  0.1300439E+00
        -11   -1    0    0    0    0  0.00000000000E+00  0.00000000000E+00  0.45593999997E+02  0.45594000000E+02  0.51100000000E-03 0.  1.
         11   -1    0    0    0    0 -0.00000000000E+00 -0.00000000000E+00 -0.45593999997E+02  0.45594000000E+02  0.51100000000E-03 0. -1.
    9900012    2    1    2    0    0  0.14354771931E+02  0.25182394570E+02  0.28512336937E+02  0.50528857964E+02  0.29999994266E+02 0.  0.
         12    1    1    2    0    0 -0.14354771931E+02 -0.25182394570E+02 -0.28512336937E+02  0.40659142036E+02  0.00000000000E+00 0. -1.
         11    1    3    3    0    0  0.19027089845E+01  0.28142799716E+01  0.12776399389E+02  0.13220319771E+02  0.51100000000E-03 0.  1.
        -11    1    3    3    0    0  0.10853268414E+01  0.42336414223E+01  0.15289077618E+02  0.15901495173E+02  0.51100000000E-03 0. -1.
        -12    1    3    3    0    0  0.11366736105E+02  0.18134473177E+02  0.44685993046E+00  0.21407043020E+02  0.00000000000E+00 0.  1.
</event>
<event>
 7    1  0.2680581E-011  0.5052881E+02  0.7816164E-02  0.1300439E+00
        -11   -1    0    0    0    0  0.00000000000E+00  0.00000000000E+00  0.45593999997E+02  0.45594000000E+02  0.51100000000E-03 0.  1.
         11   -1    0    0    0    0 -0.00000000000E+00 -0.00000000000E+00 -0.45593999997E+02  0.45594000000E+02  0.51100000000E-03 0. -1.
    9900012    2    1    2    0    0 -0.11426958740E+02 -0.43629320301E+01  0.38775752911E+02  0.50528811915E+02  0.29999854295E+02 0.  0.
         12    1    1    2    0    0  0.11426958740E+02  0.43629320301E+01 -0.38775752911E+02  0.40659188085E+02  0.00000000000E+00 0. -1.
         11    1    3    3    0    0 -0.99647432717E+01 -0.59303164275E+01  0.45045578069E+01  0.12440088533E+02  0.51100000000E-03 0. -1.
        -11    1    3    3    0    0  0.38447884249E+01  0.20372024885E+01  0.10941494106E+01  0.44866195744E+01  0.51100000000E-03 0.  1.
        -12    1    3    3    0    0 -0.53070038927E+01 -0.46981809117E+00  0.33177045694E+02  0.33602103808E+02  0.00000000000E+00 0.  1.
</event>
<event>
 7    1  0.2680581E-011  0.5052887E+02  0.7816164E-02  0.1300439E+00
        -11   -1    0    0    0    0  0.00000000000E+00  0.00000000000E+00  0.45593999997E+02  0.45594000000E+02  0.51100000000E-03 0. -1.
         11   -1    0    0    0    0 -0.00000000000E+00 -0.00000000000E+00 -0.45593999997E+02  0.45594000000E+02  0.51100000000E-03 0.  1.
    9900012    2    1    2    0    0  0.21790696682E+02  0.17268316692E+02 -0.29667083430E+02  0.50528867416E+02  0.30000022997E+02 0.  0.
         12    1    1    2    0    0 -0.21790696682E+02 -0.17268316692E+02  0.29667083430E+02  0.40659132584E+02  0.00000000000E+00 0. -1.
         11    1    3    3    0    0 -0.28464857371E+01 -0.48834785640E+00 -0.74913514157E+00  0.29836501809E+01  0.51100000000E-03 0. -1.
        -11    1    3    3    0    0  0.10311778712E+02 -0.44920783189E+01 -0.95082062333E+01  0.14728120514E+02  0.51100000000E-03 0.  1.
        -12    1    3    3    0    0  0.14325403707E+02  0.22248742867E+02 -0.19409742055E+02  0.32817096721E+02  0.00000000000E+00 0.  1.
</event>
<event>
 7    1  0.2680581E-011  0.5052886E+02  0.7816164E-02  0.1300439E+00
        -11   -1    0    0    0    0  0.00000000000E+00  0.00000000000E+00  0.45593999997E+02  0.45594000000E+02  0.51100000000E-03 0.  1.
         11   -1    0    0    0    0 -0.00000000000E+00 -0.00000000000E+00 -0.45593999997E+02  0.45594000000E+02  0.51100000000E-03 0. -1.
    9900012    2    1    2    0    0  0.59138374743E+01 -0.15132041129E+02  0.37272149744E+02  0.50528864631E+02  0.30000014533E+02 0.  0.
         12    1    1    2    0    0 -0.59138374743E+01  0.15132041129E+02 -0.37272149744E+02  0.40659135369E+02  0.00000000000E+00 0. -1.
         11    1    3    3    0    0 -0.19702362295E+01  0.10777406178E+01 -0.20640194877E+00  0.22552067898E+01  0.51100000000E-03 0. -1.
        -11    1    3    3    0    0  0.99386787169E+01  0.35540158635E+01  0.13049235152E+02  0.16783649833E+02  0.51100000000E-03 0.  1.
        -12    1    3    3    0    0 -0.20546050130E+01 -0.19763797611E+02  0.24429316540E+02  0.31490008008E+02  0.00000000000E+00 0.  1.
</event>
<event>
 7    1  0.2680581E-011  0.5052886E+02  0.7816164E-02  0.1300439E+00
        -11   -1    0    0    0    0  0.00000000000E+00  0.00000000000E+00  0.45593999997E+02  0.45594000000E+02  0.51100000000E-03 0.  1.
         11   -1    0    0    0    0 -0.00000000000E+00 -0.00000000000E+00 -0.45593999997E+02  0.45594000000E+02  0.51100000000E-03 0. -1.
    9900012    2    1    2    0    0 -0.28872512549E+02  0.25276101109E+02  0.13441077180E+02  0.50528858052E+02  0.29999994535E+02 0.  0.
         12    1    1    2    0    0  0.28872512549E+02 -0.25276101109E+02 -0.13441077180E+02  0.40659141948E+02  0.00000000000E+00 0. -1.
         11    1    3    3    0    0 -0.97719121610E+01 -0.33190442983E+01  0.22143948398E+01  0.10555087262E+02  0.51100000000E-03 0. -1.
        -11    1    3    3    0    0 -0.36286735363E+01  0.83969233177E+01 -0.43627460259E+01  0.10134552086E+02  0.51100000000E-03 0.  1.
         12    1    3    3    0    0 -0.15471926852E+02  0.20198222090E+02  0.15589428367E+02  0.29839218704E+02  0.00000000000E+00 0. -1.
</event>
<event>
 7    1  0.2680581E-011  0.5052886E+02  0.7816164E-02  0.1300439E+00
        -11   -1    0    0    0    0  0.00000000000E+00  0.00000000000E+00  0.45593999997E+02  0.45594000000E+02  0.51100000000E-03 0.  1.
         11   -1    0    0    0    0 -0.00000000000E+00 -0.00000000000E+00 -0.45593999997E+02  0.45594000000E+02  0.51100000000E-03 0. -1.
    9900012    2    1    2    0    0  0.75784049944E+00 -0.33115766918E+02  0.23578320264E+02  0.50528861701E+02  0.30000005625E+02 0.  0.
         12    1    1    2    0    0 -0.75784049944E+00  0.33115766918E+02 -0.23578320264E+02  0.40659138299E+02  0.00000000000E+00 0. -1.
         11    1    3    3    0    0 -0.42010292824E+01 -0.10078508002E+02  0.87344194142E+00  0.10953897556E+02  0.51100000000E-03 0. -1.
        -11    1    3    3    0    0  0.13646857329E+01  0.13562903376E+01 -0.32490116572E+01  0.37759724098E+01  0.51100000000E-03 0.  1.
        -12    1    3    3    0    0  0.35941840489E+01 -0.24393549254E+02  0.25953889980E+02  0.35798991735E+02  0.00000000000E+00 0.  1.
</event>
<event>
 7    1  0.2680581E-011  0.5052886E+02  0.7816164E-02  0.1300439E+00
        -11   -1    0    0    0    0  0.00000000000E+00  0.00000000000E+00  0.45593999997E+02  0.45594000000E+02  0.51100000000E-03 0. -1.
         11   -1    0    0    0    0 -0.00000000000E+00 -0.00000000000E+00 -0.45593999997E+02  0.45594000000E+02  0.51100000000E-03 0.  1.
    9900012    2    1    2    0    0 -0.10275747895E+02 -0.28796991452E+02 -0.26801261897E+02  0.50528863871E+02  0.30000012222E+02 0.  0.
         12    1    1    2    0    0  0.10275747895E+02  0.28796991452E+02  0.26801261897E+02  0.40659136129E+02  0.00000000000E+00 0. -1.
         11    1    3    3    0    0 -0.20852329987E+01 -0.16566941427E+02 -0.11567120584E+01  0.16737673911E+02  0.51100000000E-03 0. -1.
        -11    1    3    3    0    0 -0.71481693462E+01 -0.19119386210E+01 -0.15506535119E+01  0.75601825949E+01  0.51100000000E-03 0.  1.
        -12    1    3    3    0    0 -0.10423455504E+01 -0.10318111404E+02 -0.24093896327E+02  0.26231007365E+02  0.00000000000E+00 0.  1.
</event>
<event>
 7    1  0.2680581E-011  0.5052885E+02  0.7816164E-02  0.1300439E+00
        -11   -1    0    0    0    0  0.00000000000E+00  0.00000000000E+00  0.45593999997E+02  0.45594000000E+02  0.51100000000E-03 0.  1.
         11   -1    0    0    0    0 -0.00000000000E+00 -0.00000000000E+00 -0.45593999997E+02  0.45594000000E+02  0.51100000000E-03 0. -1.
    9900012    2    1    2    0    0  0.91200390061E+01 -0.36119114030E+02  0.16291122632E+02  0.50528853595E+02  0.29999980988E+02 0.  0.
         12    1    1    2    0    0 -0.91200390061E+01  0.36119114030E+02 -0.16291122632E+02  0.40659146405E+02  0.00000000000E+00 0. -1.
         11    1    3    3    0    0 -0.82396295117E+00 -0.12300369260E+02  0.26801503653E+01  0.12615910792E+02  0.51100000000E-03 0. -1.
        -11    1    3    3    0    0  0.14498118037E+02 -0.23322591595E+02  0.46549777501E+01  0.27853321587E+02  0.51100000000E-03 0.  1.
         12    1    3    3    0    0 -0.45541160797E+01 -0.49615317514E+00  0.89559945163E+01  0.10059621216E+02  0.00000000000E+00 0. -1.
</event>
<event>
 7    1  0.2680581E-011  0.5052887E+02  0.7816164E-02  0.1300439E+00
        -11   -1    0    0    0    0  0.00000000000E+00  0.00000000000E+00  0.45593999997E+02  0.45594000000E+02  0.51100000000E-03 0.  1.
         11   -1    0    0    0    0 -0.00000000000E+00 -0.00000000000E+00 -0.45593999997E+02  0.45594000000E+02  0.51100000000E-03 0. -1.
    9900012    2    1    2    0    0 -0.15916961685E+01 -0.38233164628E+02 -0.13742505295E+02  0.50528870325E+02  0.30000031840E+02 0.  0.
         12    1    1    2    0    0  0.15916961685E+01  0.38233164628E+02  0.13742505295E+02  0.40659129675E+02  0.00000000000E+00 0. -1.
         11    1    3    3    0    0 -0.19918915220E+01 -0.21612938082E+02  0.40194330297E+01  0.22073571675E+02  0.51100000000E-03 0.  1.
        -11    1    3    3    0    0  0.42605018951E+00 -0.18290473837E+02 -0.10691805350E+02  0.21190508579E+02  0.51100000000E-03 0. -1.
        -12    1    3    3    0    0 -0.25854836002E-01  0.16702472910E+01 -0.70701329754E+01  0.72647900710E+01  0.00000000000E+00 0.  1.
</event>
<event>
 7    1  0.2680581E-011  0.5052887E+02  0.7816164E-02  0.1300439E+00
        -11   -1    0    0    0    0  0.00000000000E+00  0.00000000000E+00  0.45593999997E+02  0.45594000000E+02  0.51100000000E-03 0.  1.
         11   -1    0    0    0    0 -0.00000000000E+00 -0.00000000000E+00 -0.45593999997E+02  0.45594000000E+02  0.51100000000E-03 0. -1.
    9900012    2    1    2    0    0 -0.15132146190E+02 -0.30546355171E+02  0.22160855383E+02  0.50528866046E+02  0.30000018834E+02 0.  0.
         12    1    1    2    0    0  0.15132146190E+02  0.30546355171E+02 -0.22160855383E+02  0.40659133954E+02  0.00000000000E+00 0. -1.
         11    1    3    3    0    0  0.44344802041E+00 -0.12654147677E+02  0.19815857577E+02  0.23515788555E+02  0.51100000000E-03 0. -1.
        -11    1    3    3    0    0 -0.75406300858E+01 -0.44846483596E+01  0.64060803532E+01  0.10863288579E+02  0.51100000000E-03 0.  1.
         12    1    3    3    0    0 -0.80349641246E+01 -0.13407559135E+02 -0.40610825477E+01  0.16149788912E+02  0.00000000000E+00 0. -1.
</event>
<event>
 7    1  0.2680581E-011  0.5052886E+02  0.7816164E-02  0.1300439E+00
        -11   -1    0    0    0    0  0.00000000000E+00  0.00000000000E+00  0.45593999997E+02  0.45594000000E+02  0.51100000000E-03 0. -1.
         11   -1    0    0    0    0 -0.00000000000E+00 -0.00000000000E+00 -0.45593999997E+02  0.45594000000E+02  0.51100000000E-03 0.  1.
    9900012    2    1    2    0    0  0.32929848431E+02  0.22499833003E+02  0.79087537121E+01  0.50528858493E+02  0.29999995874E+02 0.  0.
         12    1    1    2    0    0 -0.32929848431E+02 -0.22499833003E+02 -0.79087537121E+01  0.40659141507E+02  0.00000000000E+00 0. -1.
         11    1    3    3    0    0  0.65452333664E+01  0.15670071626E+02 -0.29745643232E+01  0.17240628114E+02  0.51100000000E-03 0. -1.
        -11    1    3    3    0    0  0.77290539667E+01  0.36304941788E+01  0.11531765833E+02  0.14349229480E+02  0.51100000000E-03 0.  1.
        -12    1    3    3    0    0  0.18655561098E+02  0.31992671977E+01 -0.64844779731E+00  0.18939000898E+02  0.00000000000E+00 0.  1.
</event>
<event>
 7    1  0.2680581E-011  0.5052885E+02  0.7816164E-02  0.1300439E+00
        -11   -1    0    0    0    0  0.00000000000E+00  0.00000000000E+00  0.45593999997E+02  0.45594000000E+02  0.51100000000E-03 0.  1.
         11   -1    0    0    0    0 -0.00000000000E+00 -0.00000000000E+00 -0.45593999997E+02  0.45594000000E+02  0.51100000000E-03 0. -1.
    9900012    2    1    2    0    0  0.20764330337E+02  0.24168395374E+02  0.25256630064E+02  0.50528854516E+02  0.29999983788E+02 0.  0.
         12    1    1    2    0    0 -0.20764330337E+02 -0.24168395374E+02 -0.25256630064E+02  0.40659145484E+02  0.00000000000E+00 0. -1.
         11    1    3    3    0    0  0.85151066569E+01  0.91700843227E+00  0.54723154152E+01  0.10163374543E+02  0.51100000000E-03 0. -1.
        -11    1    3    3    0    0  0.63022087101E+01  0.61989257463E+01 -0.46445710794E+01  0.99858177335E+01  0.51100000000E-03 0.  1.
        -12    1    3    3    0    0  0.59470149698E+01  0.17052461196E+02  0.24428885728E+02  0.30379662239E+02  0.00000000000E+00 0.  1.
</event>
<event>
 7    1  0.2680581E-011  0.5052887E+02  0.7816164E-02  0.1300439E+00
        -11   -1    0    0    0    0  0.00000000000E+00  0.00000000000E+00  0.45593999997E+02  0.45594000000E+02  0.51100000000E-03 0.  1.
         11   -1    0    0    0    0 -0.00000000000E+00 -0.00000000000E+00 -0.45593999997E+02  0.45594000000E+02  0.51100000000E-03 0. -1.
    9900012    2    1    2    0    0  0.27953252120E+01 -0.96929552179E+01  0.39387787122E+02  0.50528868206E+02  0.30000025399E+02 0.  0.
         12    1    1    2    0    0 -0.27953252120E+01  0.96929552179E+01 -0.39387787122E+02  0.40659131794E+02  0.00000000000E+00 0. -1.
         11    1    3    3    0    0 -0.30670184191E+00 -0.10622135337E+02  0.11405141373E+02  0.15588491753E+02  0.51100000000E-03 0. -1.
        -11    1    3    3    0    0 -0.56829297255E+01 -0.17801464029E+01  0.24329743852E+02  0.25047974921E+02  0.51100000000E-03 0.  1.
         12    1    3    3    0    0  0.87849567794E+01  0.27093265217E+01  0.36529018974E+01  0.98924015329E+01  0.00000000000E+00 0. -1.
</event>
<event>
 7    1  0.2680581E-011  0.5052884E+02  0.7816164E-02  0.1300439E+00
        -11   -1    0    0    0    0  0.00000000000E+00  0.00000000000E+00  0.45593999997E+02  0.45594000000E+02  0.51100000000E-03 0. -1.
         11   -1    0    0    0    0 -0.00000000000E+00 -0.00000000000E+00 -0.45593999997E+02  0.45594000000E+02  0.51100000000E-03 0.  1.
    9900012    2    1    2    0    0 -0.25355309008E+02 -0.29243552320E+02  0.12453522874E+02  0.50528840157E+02  0.29999940140E+02 0.  0.
         12    1    1    2    0    0  0.25355309008E+02  0.29243552320E+02 -0.12453522874E+02  0.40659159843E+02  0.00000000000E+00 0. -1.
         11    1    3    3    0    0 -0.11412024029E+02 -0.22450809138E+02  0.81278918545E-01  0.25184910759E+02  0.51100000000E-03 0.  1.
        -11    1    3    3    0    0  0.26456104588E+01 -0.44952449603E+01  0.42641995777E+01  0.67372012180E+01  0.51100000000E-03 0. -1.
        -12    1    3    3    0    0 -0.16588895438E+02 -0.22974982215E+01  0.81080443779E+01  0.18606728180E+02  0.00000000000E+00 0.  1.
</event>
<event>
 7    1  0.2680581E-011  0.5052887E+02  0.7816164E-02  0.1300439E+00
        -11   -1    0    0    0    0  0.00000000000E+00  0.00000000000E+00  0.45593999997E+02  0.45594000000E+02  0.51100000000E-03 0.  1.
         11   -1    0    0    0    0 -0.00000000000E+00 -0.00000000000E+00 -0.45593999997E+02  0.45594000000E+02  0.51100000000E-03 0. -1.
    9900012    2    1    2    0    0  0.32078212984E+02 -0.24102922354E+02  0.65728704508E+01  0.50528865230E+02  0.30000016354E+02 0.  0.
         12    1    1    2    0    0 -0.32078212984E+02  0.24102922354E+02 -0.65728704508E+01  0.40659134770E+02  0.00000000000E+00 0. -1.
         11    1    3    3    0    0  0.22820811964E+02 -0.63219108172E+01  0.18776690310E+01  0.23754613370E+02  0.51100000000E-03 0. -1.
        -11    1    3    3    0    0  0.13679911582E+02 -0.14294351262E+02  0.57070969749E+00  0.19793791166E+02  0.51100000000E-03 0.  1.
        -12    1    3    3    0    0 -0.44225105622E+01 -0.34866602751E+01  0.41244917223E+01  0.69804606949E+01  0.00000000000E+00 0.  1.
</event>
<event>
 7    1  0.2680581E-011  0.5052885E+02  0.7816164E-02  0.1300439E+00
        -11   -1    0    0    0    0  0.00000000000E+00  0.00000000000E+00  0.45593999997E+02  0.45594000000E+02  0.51100000000E-03 0. -1.
         11   -1    0    0    0    0 -0.00000000000E+00 -0.00000000000E+00 -0.45593999997E+02  0.45594000000E+02  0.51100000000E-03 0.  1.
    9900012    2    1    2    0    0  0.27372781181E+02 -0.20130537049E+02 -0.22330663800E+02  0.50528853216E+02  0.29999979836E+02 0.  0.
         12    1    1    2    0    0 -0.27372781181E+02  0.20130537049E+02  0.22330663800E+02  0.40659146784E+02  0.00000000000E+00 0. -1.
         11    1    3    3    0    0  0.72704862022E+01 -0.20170992005E+02 -0.12002323694E+02  0.24572030083E+02  0.51100000000E-03 0. -1.
        -11    1    3    3    0    0  0.12522152410E+02 -0.46428833590E+01 -0.10587591212E+02  0.17042821210E+02  0.51100000000E-03 0.  1.
         12    1    3    3    0    0  0.75801425686E+01  0.46833383159E+01  0.25925110657E+00  0.89140019227E+01  0.00000000000E+00 0. -1.
</event>
<event>
 7    1  0.2680581E-011  0.5052886E+02  0.7816164E-02  0.1300439E+00
        -11   -1    0    0    0    0  0.00000000000E+00  0.00000000000E+00  0.45593999997E+02  0.45594000000E+02  0.51100000000E-03 0. -1.
         11   -1    0    0    0    0 -0.00000000000E+00 -0.00000000000E+00 -0.45593999997E+02  0.45594000000E+02  0.51100000000E-03 0.  1.
    9900012    2    1    2    0    0  0.10396873889E+02 -0.27056254769E+02 -0.28513680862E+02  0.50528857054E+02  0.29999991502E+02 0.  0.
         12    1    1    2    0    0 -0.10396873889E+02  0.27056254769E+02  0.28513680862E+02  0.40659142946E+02  0.00000000000E+00 0. -1.
         11    1    3    3    0    0  0.11500470126E+02 -0.22275904747E+02 -0.17097070312E+02  0.30344465046E+02  0.51100000000E-03 0. -1.
        -11    1    3    3    0    0  0.23643401193E+01 -0.99559770186E+01 -0.85126146833E+01  0.13310754734E+02  0.51100000000E-03 0.  1.
         12    1    3    3    0    0 -0.34679363562E+01  0.51756269963E+01 -0.29039958662E+01  0.68736372734E+01  0.00000000000E+00 0. -1.
</event>
<event>
 7    1  0.2680581E-011  0.5052889E+02  0.7816164E-02  0.1300439E+00
        -11   -1    0    0    0    0  0.00000000000E+00  0.00000000000E+00  0.45593999997E+02  0.45594000000E+02  0.51100000000E-03 0.  1.
         11   -1    0    0    0    0 -0.00000000000E+00 -0.00000000000E+00 -0.45593999997E+02  0.45594000000E+02  0.51100000000E-03 0. -1.
    9900012    2    1    2    0    0 -0.25858560908E+02  0.19293306286E+02  0.24744020280E+02  0.50528888115E+02  0.30000085914E+02 0.  0.
         12    1    1    2    0    0  0.25858560908E+02 -0.19293306286E+02 -0.24744020280E+02  0.40659111885E+02  0.00000000000E+00 0. -1.
         11    1    3    3    0    0 -0.18531313266E+01  0.57659431661E+01  0.70359044142E+01  0.92835417539E+01  0.51100000000E-03 0. -1.
        -11    1    3    3    0    0 -0.37395335662E+01  0.10436853515E+02 -0.36198705028E+01  0.11662567697E+02  0.51100000000E-03 0.  1.
        -12    1    3    3    0    0 -0.20265896015E+02  0.30905096053E+01  0.21327986368E+02  0.29582778663E+02  0.00000000000E+00 0.  1.
</event>
<event>
 7    1  0.2680581E-011  0.5052887E+02  0.7816164E-02  0.1300439E+00
        -11   -1    0    0    0    0  0.00000000000E+00  0.00000000000E+00  0.45593999997E+02  0.45594000000E+02  0.51100000000E-03 0.  1.
         11   -1    0    0    0    0 -0.00000000000E+00 -0.00000000000E+00 -0.45593999997E+02  0.45594000000E+02  0.51100000000E-03 0. -1.
    9900012    2    1    2    0    0  0.17776310755E+01  0.91615068869E+01  0.39573625953E+02  0.50528867548E+02  0.30000023400E+02 0.  0.
         12    1    1    2    0    0 -0.17776310755E+01 -0.91615068869E+01 -0.39573625953E+02  0.40659132452E+02  0.00000000000E+00 0. -1.
         11    1    3    3    0    0  0.51651545216E+01 -0.45043821697E+00  0.40115218116E+01  0.65554575222E+01  0.51100000000E-03 0. -1.
        -11    1    3    3    0    0 -0.52068493566E+01 -0.68188467785E+01  0.74582887050E+01  0.11368114280E+02  0.51100000000E-03 0.  1.
        -12    1    3    3    0    0  0.18193259105E+01  0.16430791882E+02  0.28103815436E+02  0.32605295746E+02  0.00000000000E+00 0.  1.
</event>
<event>
 7    1  0.2680581E-011  0.5052886E+02  0.7816164E-02  0.1300439E+00
        -11   -1    0    0    0    0  0.00000000000E+00  0.00000000000E+00  0.45593999997E+02  0.45594000000E+02  0.51100000000E-03 0.  1.
         11   -1    0    0    0    0 -0.00000000000E+00 -0.00000000000E+00 -0.45593999997E+02  0.45594000000E+02  0.51100000000E-03 0. -1.
    9900012    2    1    2    0    0  0.11025487425E+02  0.37335479449E+02  0.11733137037E+02  0.50528857075E+02  0.29999991565E+02 0.  0.
         12    1    1    2    0    0 -0.11025487425E+02 -0.37335479449E+02 -0.11733137037E+02  0.40659142925E+02  0.00000000000E+00 0. -1.
         11    1    3    3    0    0  0.12369635569E+02  0.63757797715E+01  0.93446062300E+01  0.16762461563E+02  0.51100000000E-03 0. -1.
        -11    1    3    3    0    0  0.25865399685E+01  0.65521786170E+01 -0.41742447385E+01  0.81881348936E+01  0.51100000000E-03 0.  1.
        -12    1    3    3    0    0 -0.39306881129E+01  0.24407521061E+02  0.65627755459E+01  0.25578260618E+02  0.00000000000E+00 0.  1.
</event>
<event>
 7    1  0.2680581E-011  0.5052887E+02  0.7816164E-02  0.1300439E+00
        -11   -1    0    0    0    0  0.00000000000E+00  0.00000000000E+00  0.45593999997E+02  0.45594000000E+02  0.51100000000E-03 0. -1.
         11   -1    0    0    0    0 -0.00000000000E+00 -0.00000000000E+00 -0.45593999997E+02  0.45594000000E+02  0.51100000000E-03 0.  1.
    9900012    2    1    2    0    0  0.66944862764E+01 -0.37732651413E+02 -0.13586590927E+02  0.50528873322E+02  0.30000040950E+02 0.  0.
         12    1    1    2    0    0 -0.66944862764E+01  0.37732651413E+02  0.13586590927E+02  0.40659126678E+02  0.00000000000E+00 0. -1.
         11    1    3    3    0    0 -0.31069529559E+01 -0.25092478424E+02 -0.34260089256E+01  0.25515155644E+02  0.51100000000E-03 0.  1.
        -11    1    3    3    0    0 -0.27726405738E+01 -0.35215263859E+01 -0.82173060726E+01  0.93601711090E+01  0.51100000000E-03 0. -1.
         12    1    3    3    0    0  0.12574079806E+02 -0.91186466033E+01 -0.19432759285E+01  0.15653546569E+02  0.00000000000E+00 0. -1.
</event>
<event>
 7    1  0.2680581E-011  0.5052887E+02  0.7816164E-02  0.1300439E+00
        -11   -1    0    0    0    0  0.00000000000E+00  0.00000000000E+00  0.45593999997E+02  0.45594000000E+02  0.51100000000E-03 0.  1.
         11   -1    0    0    0    0 -0.00000000000E+00 -0.00000000000E+00 -0.45593999997E+02  0.45594000000E+02  0.51100000000E-03 0. -1.
    9900012    2    1    2    0    0  0.38596845338E+02  0.65964026859E+01  0.10951530636E+02  0.50528867917E+02  0.30000024521E+02 0.  0.
         12    1    1    2    0    0 -0.38596845338E+02 -0.65964026859E+01 -0.10951530636E+02  0.40659132083E+02  0.00000000000E+00 0. -1.
         11    1    3    3    0    0 -0.18720023935E+00  0.40932092355E+01  0.40631134398E+01  0.57704676467E+01  0.51100000000E-03 0.  1.
        -11    1    3    3    0    0  0.36622880652E+01 -0.60384458223E+01 -0.23641542743E+01  0.74474430186E+01  0.51100000000E-03 0. -1.
        -12    1    3    3    0    0  0.35121757512E+02  0.85416392727E+01  0.92525714706E+01  0.37310957252E+02  0.00000000000E+00 0.  1.
</event>
<event>
 7    1  0.2680581E-011  0.5052887E+02  0.7816164E-02  0.1300439E+00
        -11   -1    0    0    0    0  0.00000000000E+00  0.00000000000E+00  0.45593999997E+02  0.45594000000E+02  0.51100000000E-03 0.  1.
         11   -1    0    0    0    0 -0.00000000000E+00 -0.00000000000E+00 -0.45593999997E+02  0.45594000000E+02  0.51100000000E-03 0. -1.
    9900012    2    1    2    0    0  0.19361713862E+01 -0.13476349577E+02  0.38311933955E+02  0.50528867681E+02  0.30000023803E+02 0.  0.
         12    1    1    2    0    0 -0.19361713862E+01  0.13476349577E+02 -0.38311933955E+02  0.40659132319E+02  0.00000000000E+00 0. -1.
         11    1    3    3    0    0 -0.17412171708E+01 -0.15331063814E+02  0.33126897032E+02  0.36544009935E+02  0.51100000000E-03 0. -1.
        -11    1    3    3    0    0  0.23540207484E+01  0.24019735749E+01  0.91610133290E+01  0.97588450246E+01  0.51100000000E-03 0.  1.
         12    1    3    3    0    0  0.13233678086E+01 -0.54725933756E+00 -0.39759764059E+01  0.42260127212E+01  0.00000000000E+00 0. -1.
</event>
<event>
 7    1  0.2680581E-011  0.5052887E+02  0.7816164E-02  0.1300439E+00
        -11   -1    0    0    0    0  0.00000000000E+00  0.00000000000E+00  0.45593999997E+02  0.45594000000E+02  0.51100000000E-03 0. -1.
         11   -1    0    0    0    0 -0.00000000000E+00 -0.00000000000E+00 -0.45593999997E+02  0.45594000000E+02  0.51100000000E-03 0.  1.
    9900012    2    1    2    0    0  0.24393434088E+02 -0.30320653260E+02 -0.11780643451E+02  0.50528865714E+02  0.30000017826E+02 0.  0.
         12    1    1    2    0    0 -0.24393434088E+02  0.30320653260E+02  0.11780643451E+02  0.40659134286E+02  0.00000000000E+00 0. -1.
         11    1    3    3    0    0  0.95378387192E+01 -0.27868886215E+01 -0.43563970188E+01  0.10849668699E+02  0.51100000000E-03 0. -1.
        -11    1    3    3    0    0  0.17721053915E+02 -0.18354156964E+02  0.27724877280E+01  0.25663154876E+02  0.51100000000E-03 0.  1.
         12    1    3    3    0    0 -0.28654585456E+01 -0.91796076740E+01 -0.10196734161E+02  0.14016042140E+02  0.00000000000E+00 0. -1.
</event>
<event>
 7    1  0.2680581E-011  0.5052886E+02  0.7816164E-02  0.1300439E+00
        -11   -1    0    0    0    0  0.00000000000E+00  0.00000000000E+00  0.45593999997E+02  0.45594000000E+02  0.51100000000E-03 0. -1.
         11   -1    0    0    0    0 -0.00000000000E+00 -0.00000000000E+00 -0.45593999997E+02  0.45594000000E+02  0.51100000000E-03 0.  1.
    9900012    2    1    2    0    0  0.31244249782E+02  0.25907510521E+02 -0.24007269129E+01  0.50528859139E+02  0.29999997838E+02 0.  0.
         12    1    1    2    0    0 -0.31244249782E+02 -0.25907510521E+02  0.24007269129E+01  0.40659140861E+02  0.00000000000E+00 0. -1.
         11    1    3    3    0    0 -0.25871699112E+01 -0.79471977341E+00  0.75553005025E+00  0.28099561537E+01  0.51100000000E-03 0. -1.
        -11    1    3    3    0    0 -0.13555442717E+01  0.72968096572E+01 -0.14640411748E+00  0.74230967845E+01  0.51100000000E-03 0.  1.
        -12    1    3    3    0    0  0.35186963965E+02  0.19405420637E+02 -0.30098528457E+01  0.40295806201E+02  0.00000000000E+00 0.  1.
</event>
<event>
 7    1  0.2680581E-011  0.5052886E+02  0.7816164E-02  0.1300439E+00
        -11   -1    0    0    0    0  0.00000000000E+00  0.00000000000E+00  0.45593999997E+02  0.45594000000E+02  0.51100000000E-03 0.  1.
         11   -1    0    0    0    0 -0.00000000000E+00 -0.00000000000E+00 -0.45593999997E+02  0.45594000000E+02  0.51100000000E-03 0. -1.
    9900012    2    1    2    0    0 -0.36983210465E+00  0.24704199709E+02  0.32291353056E+02  0.50528859069E+02  0.29999997628E+02 0.  0.
         12    1    1    2    0    0  0.36983210465E+00 -0.24704199709E+02 -0.32291353056E+02  0.40659140931E+02  0.00000000000E+00 0. -1.
         11    1    3    3    0    0  0.13606144701E+01  0.17277287447E+01  0.99240463531E+01  0.10164792897E+02  0.51100000000E-03 0. -1.
        -11    1    3    3    0    0  0.11204885528E+02  0.11099151503E+02  0.80553471098E+01  0.17709580489E+02  0.51100000000E-03 0.  1.
         12    1    3    3    0    0 -0.12935332103E+02  0.11877319461E+02  0.14311959593E+02  0.22654485684E+02  0.00000000000E+00 0. -1.
</event>
<event>
 7    1  0.2680581E-011  0.5052886E+02  0.7816164E-02  0.1300439E+00
        -11   -1    0    0    0    0  0.00000000000E+00  0.00000000000E+00  0.45593999997E+02  0.45594000000E+02  0.51100000000E-03 0.  1.
         11   -1    0    0    0    0 -0.00000000000E+00 -0.00000000000E+00 -0.45593999997E+02  0.45594000000E+02  0.51100000000E-03 0. -1.
    9900012    2    1    2    0    0  0.50415836138E+01  0.88473909379E+01  0.39363334809E+02  0.50528855653E+02  0.29999987244E+02 0.  0.
         12    1    1    2    0    0 -0.50415836138E+01 -0.88473909379E+01 -0.39363334809E+02  0.40659144347E+02  0.00000000000E+00 0. -1.
         11    1    3    3    0    0 -0.52201911072E+01  0.48922433666E+01  0.25600717657E+01  0.75985793449E+01  0.51100000000E-03 0. -1.
        -11    1    3    3    0    0  0.15896289568E+02  0.26832611702E+01  0.24355329975E+02  0.29207430749E+02  0.51100000000E-03 0.  1.
         12    1    3    3    0    0 -0.56345148465E+01  0.12718864011E+01  0.12447933068E+02  0.13722845559E+02  0.00000000000E+00 0. -1.
</event>
<event>
 7    1  0.2680581E-011  0.5052888E+02  0.7816164E-02  0.1300439E+00
        -11   -1    0    0    0    0  0.00000000000E+00  0.00000000000E+00  0.45593999997E+02  0.45594000000E+02  0.51100000000E-03 0.  1.
         11   -1    0    0    0    0 -0.00000000000E+00 -0.00000000000E+00 -0.45593999997E+02  0.45594000000E+02  0.51100000000E-03 0. -1.
    9900012    2    1    2    0    0  0.15766364849E+02  0.20921511244E+02  0.31094637555E+02  0.50528875834E+02  0.30000048584E+02 0.  0.
         12    1    1    2    0    0 -0.15766364849E+02 -0.20921511244E+02 -0.31094637555E+02  0.40659124166E+02  0.00000000000E+00 0. -1.
         11    1    3    3    0    0 -0.39452564181E+01  0.11507544364E+02  0.11578093351E+02  0.16794072508E+02  0.51100000000E-03 0. -1.
        -11    1    3    3    0    0  0.13004692927E+02  0.10397356194E+02  0.44821144900E+01  0.17242865322E+02  0.51100000000E-03 0.  1.
         12    1    3    3    0    0  0.67069283402E+01 -0.98338931374E+00  0.15034429714E+02  0.16491938004E+02  0.00000000000E+00 0. -1.
</event>
<event>
 7    1  0.2680581E-011  0.5052888E+02  0.7816164E-02  0.1300439E+00
        -11   -1    0    0    0    0  0.00000000000E+00  0.00000000000E+00  0.45593999997E+02  0.45594000000E+02  0.51100000000E-03 0.  1.
         11   -1    0    0    0    0 -0.00000000000E+00 -0.00000000000E+00 -0.45593999997E+02  0.45594000000E+02  0.51100000000E-03 0. -1.
    9900012    2    1    2    0    0 -0.39701986406E+02  0.61818804290E+01 -0.62209860474E+01  0.50528880019E+02  0.30000061305E+02 0.  0.
         12    1    1    2    0    0  0.39701986406E+02 -0.61818804290E+01  0.62209860474E+01  0.40659119981E+02  0.00000000000E+00 0. -1.
         11    1    3    3    0    0 -0.11155049478E+02 -0.40419107668E+01 -0.95620078309E+01  0.15238246799E+02  0.51100000000E-03 0. -1.
        -11    1    3    3    0    0 -0.12808798676E+02  0.67697536034E+01 -0.70560214194E+01  0.16114661830E+02  0.51100000000E-03 0.  1.
        -12    1    3    3    0    0 -0.15738138253E+02  0.34540375924E+01  0.10397043203E+02  0.19175971389E+02  0.00000000000E+00 0.  1.
</event>
<event>
 7    1  0.2680581E-011  0.5052888E+02  0.7816164E-02  0.1300439E+00
        -11   -1    0    0    0    0  0.00000000000E+00  0.00000000000E+00  0.45593999997E+02  0.45594000000E+02  0.51100000000E-03 0.  1.
         11   -1    0    0    0    0 -0.00000000000E+00 -0.00000000000E+00 -0.45593999997E+02  0.45594000000E+02  0.51100000000E-03 0. -1.
    9900012    2    1    2    0    0 -0.14150164165E+02 -0.14976334212E+01  0.38087981750E+02  0.50528875494E+02  0.30000047553E+02 0.  0.
         12    1    1    2    0    0  0.14150164165E+02  0.14976334212E+01 -0.38087981750E+02  0.40659124506E+02  0.00000000000E+00 0. -1.
         11    1    3    3    0    0 -0.22778584323E+01  0.70228550221E+01  0.88564736952E+01  0.11530232360E+02  0.51100000000E-03 0. -1.
        -11    1    3    3    0    0 -0.50231361941E+01  0.47871989782E+01  0.95360044595E+00  0.70041791349E+01  0.51100000000E-03 0.  1.
        -12    1    3    3    0    0 -0.68491695383E+01 -0.13307687422E+02  0.28277907609E+02  0.31994464000E+02  0.00000000000E+00 0.  1.
</event>
<event>
 7    1  0.2680581E-011  0.5052887E+02  0.7816164E-02  0.1300439E+00
        -11   -1    0    0    0    0  0.00000000000E+00  0.00000000000E+00  0.45593999997E+02  0.45594000000E+02  0.51100000000E-03 0.  1.
         11   -1    0    0    0    0 -0.00000000000E+00 -0.00000000000E+00 -0.45593999997E+02  0.45594000000E+02  0.51100000000E-03 0. -1.
    9900012    2    1    2    0    0 -0.15407704643E+02  0.31308353111E+02  0.20869948859E+02  0.50528866927E+02  0.30000021510E+02 0.  0.
         12    1    1    2    0    0  0.15407704643E+02 -0.31308353111E+02 -0.20869948859E+02  0.40659133073E+02  0.00000000000E+00 0. -1.
         11    1    3    3    0    0  0.14678669371E+01 -0.16034484777E+01  0.37785846488E+01  0.43592869342E+01  0.51100000000E-03 0. -1.
        -11    1    3    3    0    0 -0.22255583081E+01  0.10973539347E+02 -0.45125659491E+01  0.12072072203E+02  0.51100000000E-03 0.  1.
        -12    1    3    3    0    0 -0.14650013272E+02  0.21938262242E+02  0.21603930160E+02  0.34097507789E+02  0.00000000000E+00 0.  1.
</event>
<event>
 7    1  0.2680581E-011  0.5052886E+02  0.7816164E-02  0.1300439E+00
        -11   -1    0    0    0    0  0.00000000000E+00  0.00000000000E+00  0.45593999997E+02  0.45594000000E+02  0.51100000000E-03 0.  1.
         11   -1    0    0    0    0 -0.00000000000E+00 -0.00000000000E+00 -0.45593999997E+02  0.45594000000E+02  0.51100000000E-03 0. -1.
    9900012    2    1    2    0    0 -0.18721637691E+02  0.69983026313E+01  0.35407475336E+02  0.50528864898E+02  0.30000015344E+02 0.  0.
         12    1    1    2    0    0  0.18721637691E+02 -0.69983026313E+01 -0.35407475336E+02  0.40659135102E+02  0.00000000000E+00 0. -1.
         11    1    3    3    0    0  0.26138007413E+01  0.12056916138E+02  0.14711827260E+02  0.19199975069E+02  0.51100000000E-03 0. -1.
        -11    1    3    3    0    0 -0.12608850539E+02 -0.43587098451E+01  0.17508848551E+02  0.22012297501E+02  0.51100000000E-03 0.  1.
        -12    1    3    3    0    0 -0.87265878931E+01 -0.69990366159E+00  0.31867995255E+01  0.93165923281E+01  0.00000000000E+00 0.  1.
</event>
<event>
 7    1  0.2680581E-011  0.5052885E+02  0.7816164E-02  0.1300439E+00
        -11   -1    0    0    0    0  0.00000000000E+00  0.00000000000E+00  0.45593999997E+02  0.45594000000E+02  0.51100000000E-03 0.  1.
         11   -1    0    0    0    0 -0.00000000000E+00 -0.00000000000E+00 -0.45593999997E+02  0.45594000000E+02  0.51100000000E-03 0. -1.
    9900012    2    1    2    0    0 -0.44271037737E+01 -0.24905234329E+02  0.31832316686E+02  0.50528851823E+02  0.29999975602E+02 0.  0.
         12    1    1    2    0    0  0.44271037737E+01  0.24905234329E+02 -0.31832316686E+02  0.40659148177E+02  0.00000000000E+00 0. -1.
         11    1    3    3    0    0 -0.87418927654E+01 -0.16273306067E+02  0.53059425447E+01  0.19219630747E+02  0.51100000000E-03 0. -1.
        -11    1    3    3    0    0 -0.45026213595E+01 -0.32318928854E+00  0.69709387237E+01  0.83049405401E+01  0.51100000000E-03 0.  1.
         12    1    3    3    0    0  0.88174103512E+01 -0.83087389734E+01  0.19555435418E+02  0.23004280537E+02  0.00000000000E+00 0. -1.
</event>
<event>
 7    1  0.2680581E-011  0.5052886E+02  0.7816164E-02  0.1300439E+00
        -11   -1    0    0    0    0  0.00000000000E+00  0.00000000000E+00  0.45593999997E+02  0.45594000000E+02  0.51100000000E-03 0. -1.
         11   -1    0    0    0    0 -0.00000000000E+00 -0.00000000000E+00 -0.45593999997E+02  0.45594000000E+02  0.51100000000E-03 0.  1.
    9900012    2    1    2    0    0 -0.20957900892E+02 -0.30981637151E+02 -0.15939583554E+02  0.50528858663E+02  0.29999996392E+02 0.  0.
         12    1    1    2    0    0  0.20957900892E+02  0.30981637151E+02  0.15939583554E+02  0.40659141337E+02  0.00000000000E+00 0. -1.
         11    1    3    3    0    0 -0.18649910923E+02 -0.19641724910E+02  0.17333618201E+01  0.27140764144E+02  0.51100000000E-03 0. -1.
        -11    1    3    3    0    0 -0.29392625482E+01  0.72873158027E+00 -0.21424449921E+01  0.37094992720E+01  0.51100000000E-03 0.  1.
         12    1    3    3    0    0  0.63127257859E+00 -0.12068643821E+02 -0.15530500382E+02  0.19678595247E+02  0.00000000000E+00 0. -1.
</event>
<event>
 7    1  0.2680581E-011  0.5052884E+02  0.7816164E-02  0.1300439E+00
        -11   -1    0    0    0    0  0.00000000000E+00  0.00000000000E+00  0.45593999997E+02  0.45594000000E+02  0.51100000000E-03 0.  1.
         11   -1    0    0    0    0 -0.00000000000E+00 -0.00000000000E+00 -0.45593999997E+02  0.45594000000E+02  0.51100000000E-03 0. -1.
    9900012    2    1    2    0    0  0.24892329571E+02 -0.69383129996E+01  0.31391061310E+02  0.50528843726E+02  0.29999950989E+02 0.  0.
         12    1    1    2    0    0 -0.24892329571E+02  0.69383129996E+01 -0.31391061310E+02  0.40659156274E+02  0.00000000000E+00 0. -1.
         11    1    3    3    0    0  0.89801066784E+01 -0.57207593908E+01  0.76564702099E+01  0.13114531646E+02  0.51100000000E-03 0.  1.
        -11    1    3    3    0    0  0.64543275713E+00 -0.16993193539E+01 -0.47537903587E+01  0.50894786321E+01  0.51100000000E-03 0. -1.
         12    1    3    3    0    0  0.15266790135E+02  0.48176574507E+00  0.28488381459E+02  0.32324833448E+02  0.00000000000E+00 0. -1.
</event>
<event>
 7    1  0.2680581E-011  0.5052885E+02  0.7816164E-02  0.1300439E+00
        -11   -1    0    0    0    0  0.00000000000E+00  0.00000000000E+00  0.45593999997E+02  0.45594000000E+02  0.51100000000E-03 0.  1.
         11   -1    0    0    0    0 -0.00000000000E+00 -0.00000000000E+00 -0.45593999997E+02  0.45594000000E+02  0.51100000000E-03 0. -1.
    9900012    2    1    2    0    0  0.38253268730E+02  0.86491763834E+01  0.10725921699E+02  0.50528853220E+02  0.29999979847E+02 0.  0.
         12    1    1    2    0    0 -0.38253268730E+02 -0.86491763834E+01 -0.10725921699E+02  0.40659146780E+02  0.00000000000E+00 0. -1.
         11    1    3    3    0    0  0.15077465456E+02  0.10030959403E+01 -0.68909135787E+00  0.15126500362E+02  0.51100000000E-03 0. -1.
        -11    1    3    3    0    0  0.25184470947E+01  0.73856874120E+01 -0.47810876230E+01  0.91514891377E+01  0.51100000000E-03 0.  1.
        -12    1    3    3    0    0  0.20657356179E+02  0.26039303108E+00  0.16196100680E+02  0.26250863720E+02  0.00000000000E+00 0.  1.
</event>
<event>
 7    1  0.2680581E-011  0.5052886E+02  0.7816164E-02  0.1300439E+00
        -11   -1    0    0    0    0  0.00000000000E+00  0.00000000000E+00  0.45593999997E+02  0.45594000000E+02  0.51100000000E-03 0.  1.
         11   -1    0    0    0    0 -0.00000000000E+00 -0.00000000000E+00 -0.45593999997E+02  0.45594000000E+02  0.51100000000E-03 0. -1.
    9900012    2    1    2    0    0  0.11958897639E+02  0.36503536759E+02 -0.13328240723E+02  0.50528862903E+02  0.30000009280E+02 0.  0.
         12    1    1    2    0    0 -0.11958897639E+02 -0.36503536759E+02  0.13328240723E+02  0.40659137097E+02  0.00000000000E+00 0. -1.
         11    1    3    3    0    0  0.12437031293E+02  0.19643651390E+02 -0.95550242639E+00  0.23269417106E+02  0.51100000000E-03 0. -1.
        -11    1    3    3    0    0  0.34124947339E+01 -0.26695017622E+01 -0.15961597824E+01  0.46172596071E+01  0.51100000000E-03 0.  1.
         12    1    3    3    0    0 -0.38906283875E+01  0.19529387131E+02 -0.10776578515E+02  0.22642186190E+02  0.00000000000E+00 0. -1.
</event>
<event>
 7    1  0.2680581E-011  0.5052886E+02  0.7816164E-02  0.1300439E+00
        -11   -1    0    0    0    0  0.00000000000E+00  0.00000000000E+00  0.45593999997E+02  0.45594000000E+02  0.51100000000E-03 0.  1.
         11   -1    0    0    0    0 -0.00000000000E+00 -0.00000000000E+00 -0.45593999997E+02  0.45594000000E+02  0.51100000000E-03 0. -1.
    9900012    2    1    2    0    0  0.21593982502E+02  0.30238397732E+02  0.16507725407E+02  0.50528858644E+02  0.29999996334E+02 0.  0.
         12    1    1    2    0    0 -0.21593982502E+02 -0.30238397732E+02 -0.16507725407E+02  0.40659141356E+02  0.00000000000E+00 0. -1.
         11    1    3    3    0    0  0.20090840480E+02  0.17120638092E+02  0.29176074445E+01  0.26556930420E+02  0.51100000000E-03 0. -1.
        -11    1    3    3    0    0  0.10979148409E+01  0.10781999289E+02  0.69424585155E+00  0.10859967920E+02  0.51100000000E-03 0.  1.
         12    1    3    3    0    0  0.40522718063E+00  0.23357603507E+01  0.12895872111E+02  0.13111960303E+02  0.00000000000E+00 0. -1.
</event>
<event>
 7    1  0.2680581E-011  0.5052886E+02  0.7816164E-02  0.1300439E+00
        -11   -1    0    0    0    0  0.00000000000E+00  0.00000000000E+00  0.45593999997E+02  0.45594000000E+02  0.51100000000E-03 0.  1.
         11   -1    0    0    0    0 -0.00000000000E+00 -0.00000000000E+00 -0.45593999997E+02  0.45594000000E+02  0.51100000000E-03 0. -1.
    9900012    2    1    2    0    0 -0.10167935415E+02  0.18553319531E+02  0.34721077774E+02  0.50528858125E+02  0.29999994757E+02 0.  0.
         12    1    1    2    0    0  0.10167935415E+02 -0.18553319531E+02 -0.34721077774E+02  0.40659141875E+02  0.00000000000E+00 0. -1.
         11    1    3    3    0    0 -0.49178818847E+01  0.42655057168E+01  0.25820611076E+02  0.26628632294E+02  0.51100000000E-03 0. -1.
        -11    1    3    3    0    0  0.55090359198E+01  0.21799717963E+01  0.16227410471E+01  0.61428855244E+01  0.51100000000E-03 0.  1.
         12    1    3    3    0    0 -0.10759089450E+02  0.12107842017E+02  0.72777256515E+01  0.17757340307E+02  0.00000000000E+00 0. -1.
</event>
<event>
 7    1  0.2680581E-011  0.5052886E+02  0.7816164E-02  0.1300439E+00
        -11   -1    0    0    0    0  0.00000000000E+00  0.00000000000E+00  0.45593999997E+02  0.45594000000E+02  0.51100000000E-03 0.  1.
         11   -1    0    0    0    0 -0.00000000000E+00 -0.00000000000E+00 -0.45593999997E+02  0.45594000000E+02  0.51100000000E-03 0. -1.
    9900012    2    1    2    0    0  0.48917590262E+01  0.28551576770E+02  0.28531456046E+02  0.50528858020E+02  0.29999994439E+02 0.  0.
         12    1    1    2    0    0 -0.48917590262E+01 -0.28551576770E+02 -0.28531456046E+02  0.40659141980E+02  0.00000000000E+00 0. -1.
         11    1    3    3    0    0  0.25113734470E+01 -0.50092504764E+01 -0.20838931907E+00  0.56074070028E+01  0.51100000000E-03 0. -1.
        -11    1    3    3    0    0 -0.24501672138E+01  0.14915785370E+02  0.10586677519E+02  0.18454314231E+02  0.51100000000E-03 0.  1.
        -12    1    3    3    0    0  0.48305527929E+01  0.18645041876E+02  0.18153167846E+02  0.26467136786E+02  0.00000000000E+00 0.  1.
</event>
<event>
 7    1  0.2680581E-011  0.5052886E+02  0.7816164E-02  0.1300439E+00
        -11   -1    0    0    0    0  0.00000000000E+00  0.00000000000E+00  0.45593999997E+02  0.45594000000E+02  0.51100000000E-03 0.  1.
         11   -1    0    0    0    0 -0.00000000000E+00 -0.00000000000E+00 -0.45593999997E+02  0.45594000000E+02  0.51100000000E-03 0. -1.
    9900012    2    1    2    0    0  0.16479604023E+02  0.37013269120E+02  0.34067899682E+01  0.50528860097E+02  0.30000000752E+02 0.  0.
         12    1    1    2    0    0 -0.16479604023E+02 -0.37013269120E+02 -0.34067899682E+01  0.40659139903E+02  0.00000000000E+00 0. -1.
         11    1    3    3    0    0  0.27190491467E+01  0.17546642271E+02  0.86086701307E+01  0.19732893476E+02  0.51100000000E-03 0. -1.
        -11    1    3    3    0    0  0.25515988698E+01  0.18774215263E+02 -0.48611110817E+01  0.19560475883E+02  0.51100000000E-03 0.  1.
         12    1    3    3    0    0  0.11208956007E+02  0.69241158568E+00 -0.34076908082E+00  0.11235490739E+02  0.00000000000E+00 0. -1.
</event>
<event>
 7    1  0.2680581E-011  0.5052886E+02  0.7816164E-02  0.1300439E+00
        -11   -1    0    0    0    0  0.00000000000E+00  0.00000000000E+00  0.45593999997E+02  0.45594000000E+02  0.51100000000E-03 0.  1.
         11   -1    0    0    0    0 -0.00000000000E+00 -0.00000000000E+00 -0.45593999997E+02  0.45594000000E+02  0.51100000000E-03 0. -1.
    9900012    2    1    2    0    0 -0.21200033762E+02  0.80110708563E+00  0.34685474053E+02  0.50528864319E+02  0.30000013585E+02 0.  0.
         12    1    1    2    0    0  0.21200033762E+02 -0.80110708563E+00 -0.34685474053E+02  0.40659135681E+02  0.00000000000E+00 0. -1.
         11    1    3    3    0    0  0.25522336833E+01 -0.93730212573E+00 -0.50994472993E+00  0.27663108895E+01  0.51100000000E-03 0. -1.
        -11    1    3    3    0    0 -0.11979549672E+02  0.56244961284E+01  0.34416272898E+01  0.13674405498E+02  0.51100000000E-03 0.  1.
        -12    1    3    3    0    0 -0.11772717772E+02 -0.38860869170E+01  0.31753791493E+02  0.34088147932E+02  0.00000000000E+00 0.  1.
</event>
<event>
 7    1  0.2680581E-011  0.5052887E+02  0.7816164E-02  0.1300439E+00
        -11   -1    0    0    0    0  0.00000000000E+00  0.00000000000E+00  0.45593999997E+02  0.45594000000E+02  0.51100000000E-03 0. -1.
         11   -1    0    0    0    0 -0.00000000000E+00 -0.00000000000E+00 -0.45593999997E+02  0.45594000000E+02  0.51100000000E-03 0.  1.
    9900012    2    1    2    0    0  0.38673335966E+02 -0.88493167878E+01 -0.89010053018E+01  0.50528865507E+02  0.30000017194E+02 0.  0.
         12    1    1    2    0    0 -0.38673335966E+02  0.88493167878E+01  0.89010053018E+01  0.40659134493E+02  0.00000000000E+00 0. -1.
         11    1    3    3    0    0  0.31955953311E+02 -0.11287436649E+02 -0.37196815771E+01  0.34094357443E+02  0.51100000000E-03 0. -1.
        -11    1    3    3    0    0  0.20330834851E+01  0.36670262152E+01  0.41637854865E+01  0.59091132633E+01  0.51100000000E-03 0.  1.
        -12    1    3    3    0    0  0.46842991701E+01 -0.12289063542E+01 -0.93451092111E+01  0.10525394801E+02  0.00000000000E+00 0.  1.
</event>
<event>
 7    1  0.2680581E-011  0.5052886E+02  0.7816164E-02  0.1300439E+00
        -11   -1    0    0    0    0  0.00000000000E+00  0.00000000000E+00  0.45593999997E+02  0.45594000000E+02  0.51100000000E-03 0. -1.
         11   -1    0    0    0    0 -0.00000000000E+00 -0.00000000000E+00 -0.45593999997E+02  0.45594000000E+02  0.51100000000E-03 0.  1.
    9900012    2    1    2    0    0 -0.39753508966E+02 -0.58161569420E+01 -0.62447343437E+01  0.50528857564E+02  0.29999993050E+02 0.  0.
         12    1    1    2    0    0  0.39753508966E+02  0.58161569420E+01  0.62447343437E+01  0.40659142436E+02  0.00000000000E+00 0. -1.
         11    1    3    3    0    0 -0.22670373577E+01 -0.49060883701E+01 -0.29078149701E+01  0.61371450723E+01  0.51100000000E-03 0. -1.
        -11    1    3    3    0    0 -0.51546001435E+01 -0.78090757360E+00  0.84912022089E+01  0.99639467327E+01  0.51100000000E-03 0.  1.
        -12    1    3    3    0    0 -0.32331871464E+02 -0.12916099832E+00 -0.11828121583E+02  0.34427765759E+02  0.00000000000E+00 0.  1.
</event>
<event>
 7    1  0.2680581E-011  0.5052886E+02  0.7816164E-02  0.1300439E+00
        -11   -1    0    0    0    0  0.00000000000E+00  0.00000000000E+00  0.45593999997E+02  0.45594000000E+02  0.51100000000E-03 0. -1.
         11   -1    0    0    0    0 -0.00000000000E+00 -0.00000000000E+00 -0.45593999997E+02  0.45594000000E+02  0.51100000000E-03 0.  1.
    9900012    2    1    2    0    0  0.19806302432E+02  0.29109744223E+02 -0.20334671407E+02  0.50528859749E+02  0.29999999692E+02 0.  0.
         12    1    1    2    0    0 -0.19806302432E+02 -0.29109744223E+02  0.20334671407E+02  0.40659140251E+02  0.00000000000E+00 0. -1.
         11    1    3    3    0    0 -0.35665219207E+01  0.40856453266E+01  0.89723329943E+00  0.54970541384E+01  0.51100000000E-03 0. -1.
        -11    1    3    3    0    0  0.94610637983E+01 -0.40109706212E+00 -0.66390037009E+00  0.94928062769E+01  0.51100000000E-03 0.  1.
        -12    1    3    3    0    0  0.13911760554E+02  0.25425195959E+02 -0.20568004336E+02  0.35538999333E+02  0.00000000000E+00 0.  1.
</event>
<event>
 7    1  0.2680581E-011  0.5052888E+02  0.7816164E-02  0.1300439E+00
        -11   -1    0    0    0    0  0.00000000000E+00  0.00000000000E+00  0.45593999997E+02  0.45594000000E+02  0.51100000000E-03 0.  1.
         11   -1    0    0    0    0 -0.00000000000E+00 -0.00000000000E+00 -0.45593999997E+02  0.45594000000E+02  0.51100000000E-03 0. -1.
    9900012    2    1    2    0    0  0.11121623027E+02  0.25620194520E+02  0.29547914022E+02  0.50528879387E+02  0.30000059385E+02 0.  0.
         12    1    1    2    0    0 -0.11121623027E+02 -0.25620194520E+02 -0.29547914022E+02  0.40659120613E+02  0.00000000000E+00 0. -1.
         11    1    3    3    0    0  0.39123867442E+01  0.84404432927E+01  0.19979094017E+02  0.22038875902E+02  0.51100000000E-03 0. -1.
        -11    1    3    3    0    0 -0.26429542290E+01  0.14759415896E+02  0.10495724918E+02  0.18302617476E+02  0.51100000000E-03 0.  1.
         12    1    3    3    0    0  0.98521905113E+01  0.24203353313E+01 -0.92690491335E+00  0.10187386009E+02  0.00000000000E+00 0. -1.
</event>
<event>
 7    1  0.2680581E-011  0.5052886E+02  0.7816164E-02  0.1300439E+00
        -11   -1    0    0    0    0  0.00000000000E+00  0.00000000000E+00  0.45593999997E+02  0.45594000000E+02  0.51100000000E-03 0.  1.
         11   -1    0    0    0    0 -0.00000000000E+00 -0.00000000000E+00 -0.45593999997E+02  0.45594000000E+02  0.51100000000E-03 0. -1.
    9900012    2    1    2    0    0  0.33187548314E+02  0.20240440757E+02  0.11919588104E+02  0.50528863441E+02  0.30000010917E+02 0.  0.
         12    1    1    2    0    0 -0.33187548314E+02 -0.20240440757E+02 -0.11919588104E+02  0.40659136559E+02  0.00000000000E+00 0. -1.
         11    1    3    3    0    0  0.72974600825E+01  0.70994450142E+01 -0.79506533362E+01  0.12917737104E+02  0.51100000000E-03 0. -1.
        -11    1    3    3    0    0  0.15710855659E+02  0.81880579749E+01  0.40765599432E+01  0.18179483496E+02  0.51100000000E-03 0.  1.
         12    1    3    3    0    0  0.10179232572E+02  0.49529377678E+01  0.15793681496E+02  0.19431642841E+02  0.00000000000E+00 0. -1.
</event>
<event>
 7    1  0.2680581E-011  0.5052885E+02  0.7816164E-02  0.1300439E+00
        -11   -1    0    0    0    0  0.00000000000E+00  0.00000000000E+00  0.45593999997E+02  0.45594000000E+02  0.51100000000E-03 0.  1.
         11   -1    0    0    0    0 -0.00000000000E+00 -0.00000000000E+00 -0.45593999997E+02  0.45594000000E+02  0.51100000000E-03 0. -1.
    9900012    2    1    2    0    0  0.38944178764E+02 -0.11105503799E+02  0.36311918307E+01  0.50528845700E+02  0.29999956991E+02 0.  0.
         12    1    1    2    0    0 -0.38944178764E+02  0.11105503799E+02 -0.36311918307E+01  0.40659154300E+02  0.00000000000E+00 0. -1.
         11    1    3    3    0    0  0.36095369339E+01 -0.10371739554E+02 -0.14200589371E+01  0.11073315036E+02  0.51100000000E-03 0. -1.
        -11    1    3    3    0    0  0.16082821863E-01  0.35394017361E+01  0.77535591239E+00  0.36233686479E+01  0.51100000000E-03 0.  1.
        -12    1    3    3    0    0  0.35318559008E+02 -0.42731659811E+01  0.42758948554E+01  0.35832162016E+02  0.00000000000E+00 0.  1.
</event>
<event>
 7    1  0.2680581E-011  0.5052891E+02  0.7816164E-02  0.1300439E+00
        -11   -1    0    0    0    0  0.00000000000E+00  0.00000000000E+00  0.45593999997E+02  0.45594000000E+02  0.51100000000E-03 0. -1.
         11   -1    0    0    0    0 -0.00000000000E+00 -0.00000000000E+00 -0.45593999997E+02  0.45594000000E+02  0.51100000000E-03 0.  1.
    9900012    2    1    2    0    0 -0.36870394656E+02  0.16357130093E+02 -0.51166640784E+01  0.50528905590E+02  0.30000139031E+02 0.  0.
         12    1    1    2    0    0  0.36870394656E+02 -0.16357130093E+02  0.51166640784E+01  0.40659094410E+02  0.00000000000E+00 0. -1.
         11    1    3    3    0    0 -0.72430017484E+01 -0.81346717782E+00  0.67569492186E+01  0.99387708587E+01  0.51100000000E-03 0. -1.
        -11    1    3    3    0    0 -0.10196107780E+01  0.90067546968E+01 -0.26850611080E+01  0.94536125224E+01  0.51100000000E-03 0.  1.
        -12    1    3    3    0    0 -0.28607782130E+02  0.81638425735E+01 -0.91885521889E+01  0.31136522209E+02  0.00000000000E+00 0.  1.
</event>
<event>
 7    1  0.2680581E-011  0.5052887E+02  0.7816164E-02  0.1300439E+00
        -11   -1    0    0    0    0  0.00000000000E+00  0.00000000000E+00  0.45593999997E+02  0.45594000000E+02  0.51100000000E-03 0. -1.
         11   -1    0    0    0    0 -0.00000000000E+00 -0.00000000000E+00 -0.45593999997E+02  0.45594000000E+02  0.51100000000E-03 0.  1.
    9900012    2    1    2    0    0  0.12332953420E+02 -0.17607340379E+02 -0.34511512568E+02  0.50528872181E+02  0.30000037480E+02 0.  0.
         12    1    1    2    0    0 -0.12332953420E+02  0.17607340379E+02  0.34511512568E+02  0.40659127819E+02  0.00000000000E+00 0. -1.
         11    1    3    3    0    0  0.11765617185E+01 -0.68576194923E+01 -0.96405212234E+01  0.11889108137E+02  0.51100000000E-03 0. -1.
        -11    1    3    3    0    0  0.56771017114E+01 -0.18906617943E+02 -0.16289147089E+02  0.25593475713E+02  0.51100000000E-03 0.  1.
         12    1    3    3    0    0  0.54792899898E+01  0.81568970564E+01 -0.85818442558E+01  0.13046288331E+02  0.00000000000E+00 0. -1.
</event>
<event>
 7    1  0.2680581E-011  0.5052886E+02  0.7816164E-02  0.1300439E+00
        -11   -1    0    0    0    0  0.00000000000E+00  0.00000000000E+00  0.45593999997E+02  0.45594000000E+02  0.51100000000E-03 0.  1.
         11   -1    0    0    0    0 -0.00000000000E+00 -0.00000000000E+00 -0.45593999997E+02  0.45594000000E+02  0.51100000000E-03 0. -1.
    9900012    2    1    2    0    0  0.87777137997E+01  0.13358586898E+01  0.39677864955E+02  0.50528859018E+02  0.29999997472E+02 0.  0.
         12    1    1    2    0    0 -0.87777137997E+01 -0.13358586898E+01 -0.39677864955E+02  0.40659140982E+02  0.00000000000E+00 0. -1.
         11    1    3    3    0    0  0.43287650321E+01 -0.79733480938E+01  0.72001545281E+01  0.11582517516E+02  0.51100000000E-03 0. -1.
        -11    1    3    3    0    0  0.51939487177E+01  0.65289083886E+00  0.29191748734E+02  0.29657403193E+02  0.51100000000E-03 0.  1.
         12    1    3    3    0    0 -0.74499995017E+00  0.86563159447E+01  0.32859616926E+01  0.92889383089E+01  0.00000000000E+00 0. -1.
</event>
<event>
 7    1  0.2680581E-011  0.5052889E+02  0.7816164E-02  0.1300439E+00
        -11   -1    0    0    0    0  0.00000000000E+00  0.00000000000E+00  0.45593999997E+02  0.45594000000E+02  0.51100000000E-03 0.  1.
         11   -1    0    0    0    0 -0.00000000000E+00 -0.00000000000E+00 -0.45593999997E+02  0.45594000000E+02  0.51100000000E-03 0. -1.
    9900012    2    1    2    0    0 -0.65384363700E+01  0.27036155310E+02  0.29655663915E+02  0.50528889750E+02  0.30000090883E+02 0.  0.
         12    1    1    2    0    0  0.65384363700E+01 -0.27036155310E+02 -0.29655663915E+02  0.40659110250E+02  0.00000000000E+00 0. -1.
         11    1    3    3    0    0 -0.51347005994E+01  0.35735690940E+01  0.30066457673E+01  0.69408547994E+01  0.51100000000E-03 0.  1.
        -11    1    3    3    0    0 -0.10782857422E+01 -0.48461936180E+01  0.88488813183E+01  0.10146476904E+02  0.51100000000E-03 0. -1.
         12    1    3    3    0    0 -0.32545002840E+00  0.28308779834E+02  0.17800136829E+02  0.33441558046E+02  0.00000000000E+00 0. -1.
</event>
<event>
 7    1  0.2680581E-011  0.5052886E+02  0.7816164E-02  0.1300439E+00
        -11   -1    0    0    0    0  0.00000000000E+00  0.00000000000E+00  0.45593999997E+02  0.45594000000E+02  0.51100000000E-03 0.  1.
         11   -1    0    0    0    0 -0.00000000000E+00 -0.00000000000E+00 -0.45593999997E+02  0.45594000000E+02  0.51100000000E-03 0. -1.
    9900012    2    1    2    0    0 -0.11409817951E+02  0.10325049423E+02  0.37634760146E+02  0.50528858808E+02  0.29999996833E+02 0.  0.
         12    1    1    2    0    0  0.11409817951E+02 -0.10325049423E+02 -0.37634760146E+02  0.40659141192E+02  0.00000000000E+00 0. -1.
         11    1    3    3    0    0 -0.35991790219E+01  0.53438570845E+01 -0.36004179247E+01  0.73806441226E+01  0.51100000000E-03 0. -1.
        -11    1    3    3    0    0  0.15974029276E+01  0.22372641242E+01  0.65090102343E+01  0.70657102521E+01  0.51100000000E-03 0.  1.
        -12    1    3    3    0    0 -0.94080418564E+01  0.27439282141E+01  0.34726167836E+02  0.36082504433E+02  0.00000000000E+00 0.  1.
</event>
<event>
 7    1  0.2680581E-011  0.5052886E+02  0.7816164E-02  0.1300439E+00
        -11   -1    0    0    0    0  0.00000000000E+00  0.00000000000E+00  0.45593999997E+02  0.45594000000E+02  0.51100000000E-03 0.  1.
         11   -1    0    0    0    0 -0.00000000000E+00 -0.00000000000E+00 -0.45593999997E+02  0.45594000000E+02  0.51100000000E-03 0. -1.
    9900012    2    1    2    0    0 -0.37575805652E+02  0.11922195311E+01  0.15485568590E+02  0.50528863360E+02  0.30000010668E+02 0.  0.
         12    1    1    2    0    0  0.37575805652E+02 -0.11922195311E+01 -0.15485568590E+02  0.40659136640E+02  0.00000000000E+00 0. -1.
         11    1    3    3    0    0 -0.13318890410E+02  0.62083255288E+01  0.13005028798E+02  0.19623122125E+02  0.51100000000E-03 0.  1.
        -11    1    3    3    0    0  0.15386676411E+01 -0.46042426454E+01 -0.72540350517E+00  0.49084375267E+01  0.51100000000E-03 0. -1.
         12    1    3    3    0    0 -0.25795582883E+02 -0.41186335234E+00  0.32059432972E+01  0.25997303708E+02  0.00000000000E+00 0. -1.
</event>
<event>
 7    1  0.2680581E-011  0.5052886E+02  0.7816164E-02  0.1300439E+00
        -11   -1    0    0    0    0  0.00000000000E+00  0.00000000000E+00  0.45593999997E+02  0.45594000000E+02  0.51100000000E-03 0.  1.
         11   -1    0    0    0    0 -0.00000000000E+00 -0.00000000000E+00 -0.45593999997E+02  0.45594000000E+02  0.51100000000E-03 0. -1.
    9900012    2    1    2    0    0 -0.19495452654E+02  0.90797503001E+01  0.34505816362E+02  0.50528857085E+02  0.29999991597E+02 0.  0.
         12    1    1    2    0    0  0.19495452654E+02 -0.90797503001E+01 -0.34505816362E+02  0.40659142915E+02  0.00000000000E+00 0. -1.
         11    1    3    3    0    0 -0.32305832780E+01 -0.42890644088E+01  0.11367300490E+02  0.12571724723E+02  0.51100000000E-03 0. -1.
        -11    1    3    3    0    0  0.30320053993E+01  0.43914923882E+01  0.13647759946E+02  0.14653996517E+02  0.51100000000E-03 0.  1.
         12    1    3    3    0    0 -0.19296874776E+02  0.89773223207E+01  0.94907559268E+01  0.23303135845E+02  0.00000000000E+00 0. -1.
</event>
<event>
 7    1  0.2680581E-011  0.5052884E+02  0.7816164E-02  0.1300439E+00
        -11   -1    0    0    0    0  0.00000000000E+00  0.00000000000E+00  0.45593999997E+02  0.45594000000E+02  0.51100000000E-03 0. -1.
         11   -1    0    0    0    0 -0.00000000000E+00 -0.00000000000E+00 -0.45593999997E+02  0.45594000000E+02  0.51100000000E-03 0.  1.
    9900012    2    1    2    0    0 -0.37680221548E+02 -0.12433862988E+02  0.88750972335E+01  0.50528838725E+02  0.29999935789E+02 0.  0.
         12    1    1    2    0    0  0.37680221548E+02  0.12433862988E+02 -0.88750972335E+01  0.40659161275E+02  0.00000000000E+00 0. -1.
         11    1    3    3    0    0 -0.62312893071E+01  0.20945919818E+01  0.13405971260E+02  0.14931053134E+02  0.51100000000E-03 0. -1.
        -11    1    3    3    0    0 -0.13873398207E+02 -0.28598932287E+01 -0.27199798475E+01  0.14423884973E+02  0.51100000000E-03 0.  1.
        -12    1    3    3    0    0 -0.17575534033E+02 -0.11668561741E+02 -0.18108941787E+01  0.21173900618E+02  0.00000000000E+00 0.  1.
</event>
<event>
 7    1  0.2680581E-011  0.5052887E+02  0.7816164E-02  0.1300439E+00
        -11   -1    0    0    0    0  0.00000000000E+00  0.00000000000E+00  0.45593999997E+02  0.45594000000E+02  0.51100000000E-03 0.  1.
         11   -1    0    0    0    0 -0.00000000000E+00 -0.00000000000E+00 -0.45593999997E+02  0.45594000000E+02  0.51100000000E-03 0. -1.
    9900012    2    1    2    0    0 -0.31843554749E+02 -0.22667907839E+02 -0.11194604729E+02  0.50528865726E+02  0.30000017862E+02 0.  0.
         12    1    1    2    0    0  0.31843554749E+02  0.22667907839E+02  0.11194604729E+02  0.40659134274E+02  0.00000000000E+00 0. -1.
         11    1    3    3    0    0 -0.14201715618E+02 -0.20601047607E+02 -0.11366089954E+02  0.27482355978E+02  0.51100000000E-03 0. -1.
        -11    1    3    3    0    0 -0.10295747235E+02 -0.11588062191E+01 -0.71868233013E+01  0.12609348612E+02  0.51100000000E-03 0.  1.
        -12    1    3    3    0    0 -0.73460918953E+01 -0.90805401335E+00  0.73583085262E+01  0.10437161137E+02  0.00000000000E+00 0.  1.
</event>
<event>
 7    1  0.2680581E-011  0.5052887E+02  0.7816164E-02  0.1300439E+00
        -11   -1    0    0    0    0  0.00000000000E+00  0.00000000000E+00  0.45593999997E+02  0.45594000000E+02  0.51100000000E-03 0.  1.
         11   -1    0    0    0    0 -0.00000000000E+00 -0.00000000000E+00 -0.45593999997E+02  0.45594000000E+02  0.51100000000E-03 0. -1.
    9900012    2    1    2    0    0 -0.17426672553E+02  0.34510704782E+02  0.12589184523E+02  0.50528865383E+02  0.30000016819E+02 0.  0.
         12    1    1    2    0    0  0.17426672553E+02 -0.34510704782E+02 -0.12589184523E+02  0.40659134617E+02  0.00000000000E+00 0. -1.
         11    1    3    3    0    0  0.11725702266E+01  0.13912193962E+02 -0.49474662176E+01  0.14812207263E+02  0.51100000000E-03 0. -1.
        -11    1    3    3    0    0 -0.86227621588E+01  0.19152366609E+02  0.11105052535E+02  0.23758942864E+02  0.51100000000E-03 0.  1.
         12    1    3    3    0    0 -0.99764806206E+01  0.14461442117E+01  0.64315982063E+01  0.11957715256E+02  0.00000000000E+00 0. -1.
</event>
<event>
 7    1  0.2680581E-011  0.5052885E+02  0.7816164E-02  0.1300439E+00
        -11   -1    0    0    0    0  0.00000000000E+00  0.00000000000E+00  0.45593999997E+02  0.45594000000E+02  0.51100000000E-03 0.  1.
         11   -1    0    0    0    0 -0.00000000000E+00 -0.00000000000E+00 -0.45593999997E+02  0.45594000000E+02  0.51100000000E-03 0. -1.
    9900012    2    1    2    0    0  0.15965432758E+02 -0.21059429592E+02  0.30899376946E+02  0.50528854491E+02  0.29999983710E+02 0.  0.
         12    1    1    2    0    0 -0.15965432758E+02  0.21059429592E+02 -0.30899376946E+02  0.40659145509E+02  0.00000000000E+00 0. -1.
         11    1    3    3    0    0  0.82790299705E+01 -0.31993249649E+01  0.14176094494E+02  0.16725419960E+02  0.51100000000E-03 0. -1.
        -11    1    3    3    0    0  0.14460177064E+02 -0.93395574078E+01  0.52698526209E+01  0.18002649811E+02  0.51100000000E-03 0.  1.
         12    1    3    3    0    0 -0.67737742762E+01 -0.85205472188E+01  0.11453429831E+02  0.15800784720E+02  0.00000000000E+00 0. -1.
</event>
<event>
 7    1  0.2680581E-011  0.5052886E+02  0.7816164E-02  0.1300439E+00
        -11   -1    0    0    0    0  0.00000000000E+00  0.00000000000E+00  0.45593999997E+02  0.45594000000E+02  0.51100000000E-03 0.  1.
         11   -1    0    0    0    0 -0.00000000000E+00 -0.00000000000E+00 -0.45593999997E+02  0.45594000000E+02  0.51100000000E-03 0. -1.
    9900012    2    1    2    0    0  0.35805997379E+02  0.14896602606E+02  0.12214230785E+02  0.50528860177E+02  0.30000000994E+02 0.  0.
         12    1    1    2    0    0 -0.35805997379E+02 -0.14896602606E+02 -0.12214230785E+02  0.40659139823E+02  0.00000000000E+00 0. -1.
         11    1    3    3    0    0  0.18214502083E+01  0.77456884837E+01 -0.17302345761E+01  0.81429161176E+01  0.51100000000E-03 0. -1.
        -11    1    3    3    0    0 -0.87047426820E+00  0.48368073562E+01  0.30959456058E+01  0.58083827618E+01  0.51100000000E-03 0.  1.
        -12    1    3    3    0    0  0.34855021438E+02  0.23141067660E+01  0.10848519755E+02  0.36577561298E+02  0.00000000000E+00 0.  1.
</event>
<event>
 7    1  0.2680581E-011  0.5052887E+02  0.7816164E-02  0.1300439E+00
        -11   -1    0    0    0    0  0.00000000000E+00  0.00000000000E+00  0.45593999997E+02  0.45594000000E+02  0.51100000000E-03 0.  1.
         11   -1    0    0    0    0 -0.00000000000E+00 -0.00000000000E+00 -0.45593999997E+02  0.45594000000E+02  0.51100000000E-03 0. -1.
    9900012    2    1    2    0    0 -0.82759738101E+01 -0.42747937503E+01  0.39577764070E+02  0.50528868026E+02  0.30000024851E+02 0.  0.
         12    1    1    2    0    0  0.82759738101E+01  0.42747937503E+01 -0.39577764070E+02  0.40659131974E+02  0.00000000000E+00 0. -1.
         11    1    3    3    0    0  0.45687663014E+01 -0.38455345800E+01  0.26637566277E+02  0.27298749040E+02  0.51100000000E-03 0. -1.
        -11    1    3    3    0    0 -0.43344318357E+00  0.46059478939E+01  0.74184482555E+01  0.87427686562E+01  0.51100000000E-03 0.  1.
         12    1    3    3    0    0 -0.12411296928E+02 -0.50352070643E+01  0.55217495376E+01  0.14487350329E+02  0.00000000000E+00 0. -1.
</event>
<event>
 7    1  0.2680581E-011  0.5052885E+02  0.7816164E-02  0.1300439E+00
        -11   -1    0    0    0    0  0.00000000000E+00  0.00000000000E+00  0.45593999997E+02  0.45594000000E+02  0.51100000000E-03 0. -1.
         11   -1    0    0    0    0 -0.00000000000E+00 -0.00000000000E+00 -0.45593999997E+02  0.45594000000E+02  0.51100000000E-03 0.  1.
    9900012    2    1    2    0    0  0.20938893384E+02 -0.41075661448E+01 -0.34610070284E+02  0.50528851941E+02  0.29999975961E+02 0.  0.
         12    1    1    2    0    0 -0.20938893384E+02  0.41075661448E+01  0.34610070284E+02  0.40659148059E+02  0.00000000000E+00 0. -1.
         11    1    3    3    0    0  0.14138823505E+01 -0.36204325111E+01  0.54058112435E+00  0.39241334180E+01  0.51100000000E-03 0.  1.
        -11    1    3    3    0    0  0.16133536372E+02 -0.20954639871E+01 -0.38359255085E+02  0.41666706327E+02  0.51100000000E-03 0. -1.
         12    1    3    3    0    0  0.33914746615E+01  0.16083303534E+01  0.32086036761E+01  0.49380121968E+01  0.00000000000E+00 0. -1.
</event>
<event>
 7    1  0.2680581E-011  0.5052885E+02  0.7816164E-02  0.1300439E+00
        -11   -1    0    0    0    0  0.00000000000E+00  0.00000000000E+00  0.45593999997E+02  0.45594000000E+02  0.51100000000E-03 0. -1.
         11   -1    0    0    0    0 -0.00000000000E+00 -0.00000000000E+00 -0.45593999997E+02  0.45594000000E+02  0.51100000000E-03 0.  1.
    9900012    2    1    2    0    0 -0.10909342720E+01 -0.86569913849E+01 -0.39711869600E+02  0.50528853126E+02  0.29999979562E+02 0.  0.
         12    1    1    2    0    0  0.10909342720E+01  0.86569913849E+01  0.39711869600E+02  0.40659146874E+02  0.00000000000E+00 0. -1.
         11    1    3    3    0    0  0.24808989193E+01  0.30593814283E+01 -0.22508508904E+01  0.45366291632E+01  0.51100000000E-03 0. -1.
        -11    1    3    3    0    0  0.91975450994E+01 -0.44702930946E+01 -0.23940163751E+02  0.26032859944E+02  0.51100000000E-03 0.  1.
        -12    1    3    3    0    0 -0.12769378291E+02 -0.72460797186E+01 -0.13520854958E+02  0.19959364018E+02  0.00000000000E+00 0.  1.
</event>
<event>
 7    1  0.2680581E-011  0.5052886E+02  0.7816164E-02  0.1300439E+00
        -11   -1    0    0    0    0  0.00000000000E+00  0.00000000000E+00  0.45593999997E+02  0.45594000000E+02  0.51100000000E-03 0.  1.
         11   -1    0    0    0    0 -0.00000000000E+00 -0.00000000000E+00 -0.45593999997E+02  0.45594000000E+02  0.51100000000E-03 0. -1.
    9900012    2    1    2    0    0  0.32414844775E+02 -0.37098490455E+01  0.24262737199E+02  0.50528861321E+02  0.30000004472E+02 0.  0.
         12    1    1    2    0    0 -0.32414844775E+02  0.37098490455E+01 -0.24262737199E+02  0.40659138679E+02  0.00000000000E+00 0. -1.
         11    1    3    3    0    0  0.21084091941E+02  0.29148697387E+00  0.28150102487E+02  0.35171752415E+02  0.51100000000E-03 0.  1.
        -11    1    3    3    0    0  0.94387279355E+01  0.90770715412E+00 -0.15828284219E+01  0.96134730141E+01  0.51100000000E-03 0. -1.
        -12    1    3    3    0    0  0.18920248985E+01 -0.49090431735E+01 -0.23045368665E+01  0.57436358924E+01  0.00000000000E+00 0.  1.
</event>
<event>
 7    1  0.2680581E-011  0.5052885E+02  0.7816164E-02  0.1300439E+00
        -11   -1    0    0    0    0  0.00000000000E+00  0.00000000000E+00  0.45593999997E+02  0.45594000000E+02  0.51100000000E-03 0.  1.
         11   -1    0    0    0    0 -0.00000000000E+00 -0.00000000000E+00 -0.45593999997E+02  0.45594000000E+02  0.51100000000E-03 0. -1.
    9900012    2    1    2    0    0 -0.71891935509E+01 -0.83119766733E+01  0.39145791388E+02  0.50528850433E+02  0.29999971376E+02 0.  0.
         12    1    1    2    0    0  0.71891935509E+01  0.83119766733E+01 -0.39145791388E+02  0.40659149567E+02  0.00000000000E+00 0. -1.
         11    1    3    3    0    0  0.29433548450E+01 -0.27770330780E+01 -0.12474742589E+01  0.42345534296E+01  0.51100000000E-03 0. -1.
        -11    1    3    3    0    0 -0.61007869036E+01  0.44607624049E+01  0.44513976970E+01  0.87711426732E+01  0.51100000000E-03 0.  1.
        -12    1    3    3    0    0 -0.40317614924E+01 -0.99957060001E+01  0.35941867950E+02  0.37523154330E+02  0.00000000000E+00 0.  1.
</event>
<event>
 7    1  0.2680581E-011  0.5052887E+02  0.7816164E-02  0.1300439E+00
        -11   -1    0    0    0    0  0.00000000000E+00  0.00000000000E+00  0.45593999997E+02  0.45594000000E+02  0.51100000000E-03 0.  1.
         11   -1    0    0    0    0 -0.00000000000E+00 -0.00000000000E+00 -0.45593999997E+02  0.45594000000E+02  0.51100000000E-03 0. -1.
    9900012    2    1    2    0    0 -0.16269075623E+02 -0.85083283945E+01  0.36277963425E+02  0.50528866906E+02  0.30000021448E+02 0.  0.
         12    1    1    2    0    0  0.16269075623E+02  0.85083283945E+01 -0.36277963425E+02  0.40659133094E+02  0.00000000000E+00 0. -1.
         11    1    3    3    0    0 -0.52603076845E+01 -0.19201566996E+01  0.12901872189E+01  0.57465139004E+01  0.51100000000E-03 0. -1.
        -11    1    3    3    0    0 -0.97968400733E+01  0.78418063961E+01  0.22015813283E+02  0.25341034662E+02  0.51100000000E-03 0.  1.
        -12    1    3    3    0    0 -0.12119278648E+01 -0.14429978091E+02  0.12971962923E+02  0.19441318344E+02  0.00000000000E+00 0.  1.
</event>
<event>
 7    1  0.2680581E-011  0.5052886E+02  0.7816164E-02  0.1300439E+00
        -11   -1    0    0    0    0  0.00000000000E+00  0.00000000000E+00  0.45593999997E+02  0.45594000000E+02  0.51100000000E-03 0.  1.
         11   -1    0    0    0    0 -0.00000000000E+00 -0.00000000000E+00 -0.45593999997E+02  0.45594000000E+02  0.51100000000E-03 0. -1.
    9900012    2    1    2    0    0  0.35198726741E+02  0.18037136634E+02 -0.94274771481E+01  0.50528856041E+02  0.29999988421E+02 0.  0.
         12    1    1    2    0    0 -0.35198726741E+02 -0.18037136634E+02  0.94274771481E+01  0.40659143959E+02  0.00000000000E+00 0. -1.
         11    1    3    3    0    0  0.91975472392E+01  0.45263985054E+01 -0.17251832184E-01  0.10251022219E+02  0.51100000000E-03 0. -1.
        -11    1    3    3    0    0  0.25071548937E+02  0.11772953021E+02  0.28645620597E+01  0.27845838198E+02  0.51100000000E-03 0.  1.
         12    1    3    3    0    0  0.92963056502E+00  0.17377851077E+01 -0.12274787376E+02  0.12431995624E+02  0.00000000000E+00 0. -1.
</event>
<event>
 7    1  0.2680581E-011  0.5052886E+02  0.7816164E-02  0.1300439E+00
        -11   -1    0    0    0    0  0.00000000000E+00  0.00000000000E+00  0.45593999997E+02  0.45594000000E+02  0.51100000000E-03 0.  1.
         11   -1    0    0    0    0 -0.00000000000E+00 -0.00000000000E+00 -0.45593999997E+02  0.45594000000E+02  0.51100000000E-03 0. -1.
    9900012    2    1    2    0    0 -0.39497717810E+02 -0.28943168756E+01  0.92042865363E+01  0.50528859908E+02  0.30000000177E+02 0.  0.
         12    1    1    2    0    0  0.39497717810E+02  0.28943168756E+01 -0.92042865363E+01  0.40659140092E+02  0.00000000000E+00 0. -1.
         11    1    3    3    0    0 -0.57052207962E+00  0.21246734235E+01  0.10597658261E+01  0.24418919852E+01  0.51100000000E-03 0. -1.
        -11    1    3    3    0    0 -0.22095680405E+02 -0.15997980659E+02  0.40470391256E+01  0.27577762848E+02  0.51100000000E-03 0.  1.
        -12    1    3    3    0    0 -0.16831515325E+02  0.10978990360E+02  0.40974815846E+01  0.20509205075E+02  0.00000000000E+00 0.  1.
</event>
<event>
 7    1  0.2680581E-011  0.5052887E+02  0.7816164E-02  0.1300439E+00
        -11   -1    0    0    0    0  0.00000000000E+00  0.00000000000E+00  0.45593999997E+02  0.45594000000E+02  0.51100000000E-03 0. -1.
         11   -1    0    0    0    0 -0.00000000000E+00 -0.00000000000E+00 -0.45593999997E+02  0.45594000000E+02  0.51100000000E-03 0.  1.
    9900012    2    1    2    0    0 -0.14318953323E+01  0.76787035092E+01 -0.39901776189E+02  0.50528873659E+02  0.30000041973E+02 0.  0.
         12    1    1    2    0    0  0.14318953323E+01 -0.76787035092E+01  0.39901776189E+02  0.40659126341E+02  0.00000000000E+00 0. -1.
         11    1    3    3    0    0 -0.12546581825E+02  0.40574498010E+01 -0.13167550630E+02  0.18635020908E+02  0.51100000000E-03 0. -1.
        -11    1    3    3    0    0  0.20571275415E+01 -0.41260168970E+01 -0.35266867127E+01  0.58045937487E+01  0.51100000000E-03 0.  1.
         12    1    3    3    0    0  0.90575589516E+01  0.77472706052E+01 -0.23207538846E+02  0.26089259002E+02  0.00000000000E+00 0. -1.
</event>
<event>
 7    1  0.2680581E-011  0.5052886E+02  0.7816164E-02  0.1300439E+00
        -11   -1    0    0    0    0  0.00000000000E+00  0.00000000000E+00  0.45593999997E+02  0.45594000000E+02  0.51100000000E-03 0.  1.
         11   -1    0    0    0    0 -0.00000000000E+00 -0.00000000000E+00 -0.45593999997E+02  0.45594000000E+02  0.51100000000E-03 0. -1.
    9900012    2    1    2    0    0  0.11665478668E+02  0.26622096407E+02 -0.28431433082E+02  0.50528858387E+02  0.29999995553E+02 0.  0.
         12    1    1    2    0    0 -0.11665478668E+02 -0.26622096407E+02  0.28431433082E+02  0.40659141613E+02  0.00000000000E+00 0. -1.
         11    1    3    3    0    0  0.41210881322E+01 -0.31006466315E+01 -0.40105235107E+01  0.65331214605E+01  0.51100000000E-03 0. -1.
        -11    1    3    3    0    0 -0.41185981031E+00  0.15331247083E+02 -0.98808282686E+00  0.15368574220E+02  0.51100000000E-03 0.  1.
         12    1    3    3    0    0  0.79562503464E+01  0.14391495955E+02 -0.23432826744E+02  0.28627162707E+02  0.00000000000E+00 0. -1.
</event>
<event>
 7    1  0.2680581E-011  0.5052886E+02  0.7816164E-02  0.1300439E+00
        -11   -1    0    0    0    0  0.00000000000E+00  0.00000000000E+00  0.45593999997E+02  0.45594000000E+02  0.51100000000E-03 0.  1.
         11   -1    0    0    0    0 -0.00000000000E+00 -0.00000000000E+00 -0.45593999997E+02  0.45594000000E+02  0.51100000000E-03 0. -1.
    9900012    2    1    2    0    0 -0.21050706179E+01 -0.12508892967E+02  0.38629805953E+02  0.50528860394E+02  0.30000001653E+02 0.  0.
         12    1    1    2    0    0  0.21050706179E+01  0.12508892967E+02 -0.38629805953E+02  0.40659139606E+02  0.00000000000E+00 0. -1.
         11    1    3    3    0    0 -0.31912742586E-01  0.40927834882E+01 -0.27638591161E+01  0.49387055571E+01  0.51100000000E-03 0. -1.
        -11    1    3    3    0    0 -0.56607258362E+00 -0.16448447117E+01  0.15896898191E+02  0.15991789288E+02  0.51100000000E-03 0.  1.
        -12    1    3    3    0    0 -0.15070852916E+01 -0.14956831744E+02  0.25496766878E+02  0.29598365548E+02  0.00000000000E+00 0.  1.
</event>
<event>
 7    1  0.3095787E-011  0.5052884E+02  0.7816164E-02  0.1300439E+00
        -11   -1    0    0    0    0  0.00000000000E+00  0.00000000000E+00  0.45593999997E+02  0.45594000000E+02  0.51100000000E-03 0. -1.
         11   -1    0    0    0    0 -0.00000000000E+00 -0.00000000000E+00 -0.45593999997E+02  0.45594000000E+02  0.51100000000E-03 0.  1.
    9900012    2    1    2    0    0 -0.35514606654E+02 -0.36387245463E+01 -0.19458658234E+02  0.50528843807E+02  0.29999951234E+02 0.  0.
         12    1    1    2    0    0  0.35514606654E+02  0.36387245463E+01  0.19458658234E+02  0.40659156193E+02  0.00000000000E+00 0. -1.
         11    1    3    3    0    0 -0.18253054094E+02 -0.27808914510E+01 -0.15824798018E+01  0.18531367558E+02  0.51100000000E-03 0. -1.
        -11    1    3    3    0    0 -0.19176136846E+02  0.43672060218E+01 -0.17653793966E+02  0.26428264310E+02  0.51100000000E-03 0.  1.
         12    1    3    3    0    0  0.19145842859E+01 -0.52250391171E+01 -0.22238446655E+00  0.55692119383E+01  0.00000000000E+00 0. -1.
</event>
<event>
 7    1  0.2680581E-011  0.5052885E+02  0.7816164E-02  0.1300439E+00
        -11   -1    0    0    0    0  0.00000000000E+00  0.00000000000E+00  0.45593999997E+02  0.45594000000E+02  0.51100000000E-03 0.  1.
         11   -1    0    0    0    0 -0.00000000000E+00 -0.00000000000E+00 -0.45593999997E+02  0.45594000000E+02  0.51100000000E-03 0. -1.
    9900012    2    1    2    0    0 -0.19712568384E+02  0.25389302975E+02  0.24899088645E+02  0.50528847608E+02  0.29999962789E+02 0.  0.
         12    1    1    2    0    0  0.19712568384E+02 -0.25389302975E+02 -0.24899088645E+02  0.40659152392E+02  0.00000000000E+00 0. -1.
         11    1    3    3    0    0 -0.59267745991E+01  0.54678257632E+00  0.63383518219E+01  0.86948451633E+01  0.51100000000E-03 0. -1.
        -11    1    3    3    0    0 -0.18598524590E+02  0.88694303335E+01  0.12410985103E+02  0.24054198445E+02  0.51100000000E-03 0.  1.
        -12    1    3    3    0    0  0.48127308050E+01  0.15973090065E+02  0.61497517207E+01  0.17779804000E+02  0.00000000000E+00 0.  1.
</event>
<event>
 7    1  0.2680581E-011  0.5052884E+02  0.7816164E-02  0.1300439E+00
        -11   -1    0    0    0    0  0.00000000000E+00  0.00000000000E+00  0.45593999997E+02  0.45594000000E+02  0.51100000000E-03 0. -1.
         11   -1    0    0    0    0 -0.00000000000E+00 -0.00000000000E+00 -0.45593999997E+02  0.45594000000E+02  0.51100000000E-03 0.  1.
    9900012    2    1    2    0    0 -0.11219453532E+02 -0.38870174283E+02  0.40498172128E+01  0.50528836140E+02  0.29999927932E+02 0.  0.
         12    1    1    2    0    0  0.11219453532E+02  0.38870174283E+02 -0.40498172128E+01  0.40659163860E+02  0.00000000000E+00 0. -1.
         11    1    3    3    0    0 -0.13923616418E+02 -0.25351151301E+02  0.12771214435E+02  0.31617271939E+02  0.51100000000E-03 0. -1.
        -11    1    3    3    0    0 -0.21017933970E+01  0.32423979202E+00 -0.11202884058E+01  0.24036874380E+01  0.51100000000E-03 0.  1.
        -12    1    3    3    0    0  0.48059562825E+01 -0.13843262773E+02 -0.76011088164E+01  0.16507876763E+02  0.00000000000E+00 0.  1.
</event>
<event>
 7    1  0.2680581E-011  0.5052886E+02  0.7816164E-02  0.1300439E+00
        -11   -1    0    0    0    0  0.00000000000E+00  0.00000000000E+00  0.45593999997E+02  0.45594000000E+02  0.51100000000E-03 0.  1.
         11   -1    0    0    0    0 -0.00000000000E+00 -0.00000000000E+00 -0.45593999997E+02  0.45594000000E+02  0.51100000000E-03 0. -1.
    9900012    2    1    2    0    0  0.19690497077E+02 -0.75436543309E+01  0.34764104331E+02  0.50528863933E+02  0.30000012411E+02 0.  0.
         12    1    1    2    0    0 -0.19690497077E+02  0.75436543309E+01 -0.34764104331E+02  0.40659136067E+02  0.00000000000E+00 0. -1.
         11    1    3    3    0    0 -0.82069352261E+00 -0.84118733714E+01  0.41946657530E+01  0.94354847525E+01  0.51100000000E-03 0. -1.
        -11    1    3    3    0    0  0.77268458157E+01 -0.21602908177E+01  0.22440738768E+00  0.80262918968E+01  0.51100000000E-03 0.  1.
        -12    1    3    3    0    0  0.12784344784E+02  0.30285098583E+01  0.30345031190E+02  0.33067087284E+02  0.00000000000E+00 0.  1.
</event>
<event>
 7    1  0.2680581E-011  0.5052886E+02  0.7816164E-02  0.1300439E+00
        -11   -1    0    0    0    0  0.00000000000E+00  0.00000000000E+00  0.45593999997E+02  0.45594000000E+02  0.51100000000E-03 0. -1.
         11   -1    0    0    0    0 -0.00000000000E+00 -0.00000000000E+00 -0.45593999997E+02  0.45594000000E+02  0.51100000000E-03 0.  1.
    9900012    2    1    2    0    0  0.31625015055E+02  0.89295733104E+01 -0.23943406260E+02  0.50528861297E+02  0.30000004398E+02 0.  0.
         12    1    1    2    0    0 -0.31625015055E+02 -0.89295733104E+01  0.23943406260E+02  0.40659138703E+02  0.00000000000E+00 0. -1.
         11    1    3    3    0    0  0.44044400370E+01  0.11740220847E+02 -0.49680185710E+01  0.13487515944E+02  0.51100000000E-03 0. -1.
        -11    1    3    3    0    0  0.35305581008E+01  0.56448861293E+01 -0.39444453312E+01  0.77387485518E+01  0.51100000000E-03 0.  1.
        -12    1    3    3    0    0  0.23690016917E+02 -0.84555336655E+01 -0.15030942358E+02  0.29302596801E+02  0.00000000000E+00 0.  1.
</event>
<event>
 7    1  0.2680581E-011  0.5052888E+02  0.7816164E-02  0.1300439E+00
        -11   -1    0    0    0    0  0.00000000000E+00  0.00000000000E+00  0.45593999997E+02  0.45594000000E+02  0.51100000000E-03 0.  1.
         11   -1    0    0    0    0 -0.00000000000E+00 -0.00000000000E+00 -0.45593999997E+02  0.45594000000E+02  0.51100000000E-03 0. -1.
    9900012    2    1    2    0    0  0.17132296285E+02  0.91600440794E+01  0.35717531853E+02  0.50528879680E+02  0.30000060275E+02 0.  0.
         12    1    1    2    0    0 -0.17132296285E+02 -0.91600440794E+01 -0.35717531853E+02  0.40659120320E+02  0.00000000000E+00 0. -1.
         11    1    3    3    0    0  0.48287325352E+01  0.38339715398E+01 -0.21113027279E-01  0.61657474555E+01  0.51100000000E-03 0. -1.
        -11    1    3    3    0    0  0.72640496164E+01 -0.80184802376E+01  0.90660346998E+01  0.14115786467E+02  0.51100000000E-03 0.  1.
        -12    1    3    3    0    0  0.50395141339E+01  0.13344552777E+02  0.26672610180E+02  0.30247345757E+02  0.00000000000E+00 0.  1.
</event>
<event>
 7    1  0.2680581E-011  0.5052885E+02  0.7816164E-02  0.1300439E+00
        -11   -1    0    0    0    0  0.00000000000E+00  0.00000000000E+00  0.45593999997E+02  0.45594000000E+02  0.51100000000E-03 0.  1.
         11   -1    0    0    0    0 -0.00000000000E+00 -0.00000000000E+00 -0.45593999997E+02  0.45594000000E+02  0.51100000000E-03 0. -1.
    9900012    2    1    2    0    0  0.53501096803E+01  0.21231493817E+02  0.34260277927E+02  0.50528847932E+02  0.29999963774E+02 0.  0.
         12    1    1    2    0    0 -0.53501096803E+01 -0.21231493817E+02 -0.34260277927E+02  0.40659152068E+02  0.00000000000E+00 0. -1.
         11    1    3    3    0    0  0.18801059249E+01  0.68288268041E+00  0.16323495955E+01  0.25818002454E+01  0.51100000000E-03 0. -1.
        -11    1    3    3    0    0 -0.28182955306E+01 -0.36965329466E+01  0.18738450186E+02  0.19306389128E+02  0.51100000000E-03 0.  1.
        -12    1    3    3    0    0  0.62882992860E+01  0.24245144083E+02  0.13889478145E+02  0.28640658559E+02  0.00000000000E+00 0.  1.
</event>
<event>
 7    1  0.2680581E-011  0.5052887E+02  0.7816164E-02  0.1300439E+00
        -11   -1    0    0    0    0  0.00000000000E+00  0.00000000000E+00  0.45593999997E+02  0.45594000000E+02  0.51100000000E-03 0. -1.
         11   -1    0    0    0    0 -0.00000000000E+00 -0.00000000000E+00 -0.45593999997E+02  0.45594000000E+02  0.51100000000E-03 0.  1.
    9900012    2    1    2    0    0 -0.28189689929E+02  0.26624151320E+02 -0.12233604490E+02  0.50528866578E+02  0.30000020452E+02 0.  0.
         12    1    1    2    0    0  0.28189689929E+02 -0.26624151320E+02  0.12233604490E+02  0.40659133422E+02  0.00000000000E+00 0. -1.
         11    1    3    3    0    0 -0.33039513085E+01  0.78714489339E+01 -0.13217296859E+02  0.15734444352E+02  0.51100000000E-03 0.  1.
        -11    1    3    3    0    0 -0.33896736194E-01  0.19599903453E+01  0.41941102309E+01  0.46296081943E+01  0.51100000000E-03 0. -1.
        -12    1    3    3    0    0 -0.24851841884E+02  0.16792712040E+02 -0.32104178622E+01  0.30164814032E+02  0.00000000000E+00 0.  1.
</event>
<event>
 7    1  0.2680581E-011  0.5052886E+02  0.7816164E-02  0.1300439E+00
        -11   -1    0    0    0    0  0.00000000000E+00  0.00000000000E+00  0.45593999997E+02  0.45594000000E+02  0.51100000000E-03 0.  1.
         11   -1    0    0    0    0 -0.00000000000E+00 -0.00000000000E+00 -0.45593999997E+02  0.45594000000E+02  0.51100000000E-03 0. -1.
    9900012    2    1    2    0    0 -0.24159428606E+02  0.11679022484E+02  0.30546496358E+02  0.50528855930E+02  0.29999988084E+02 0.  0.
         12    1    1    2    0    0  0.24159428606E+02 -0.11679022484E+02 -0.30546496358E+02  0.40659144070E+02  0.00000000000E+00 0. -1.
         11    1    3    3    0    0 -0.35875372813E+01 -0.74500773751E+01  0.11125213013E+02  0.13861617564E+02  0.51100000000E-03 0. -1.
        -11    1    3    3    0    0 -0.47557550212E+01  0.54811375094E+01 -0.11512917945E+01  0.73474857792E+01  0.51100000000E-03 0.  1.
        -12    1    3    3    0    0 -0.15816136304E+02  0.13647962349E+02  0.20572575140E+02  0.29319752587E+02  0.00000000000E+00 0.  1.
</event>
<event>
 7    1  0.2680581E-011  0.5052886E+02  0.7816164E-02  0.1300439E+00
        -11   -1    0    0    0    0  0.00000000000E+00  0.00000000000E+00  0.45593999997E+02  0.45594000000E+02  0.51100000000E-03 0. -1.
         11   -1    0    0    0    0 -0.00000000000E+00 -0.00000000000E+00 -0.45593999997E+02  0.45594000000E+02  0.51100000000E-03 0.  1.
    9900012    2    1    2    0    0  0.26427477965E+02  0.10540822933E+02 -0.29045563329E+02  0.50528864633E+02  0.30000014538E+02 0.  0.
         12    1    1    2    0    0 -0.26427477965E+02 -0.10540822933E+02  0.29045563329E+02  0.40659135367E+02  0.00000000000E+00 0. -1.
         11    1    3    3    0    0 -0.30373162405E+01  0.14627487223E+01 -0.10576889659E+02  0.11101149440E+02  0.51100000000E-03 0. -1.
        -11    1    3    3    0    0  0.15512740447E+02  0.78979082066E+01 -0.18532236100E+02  0.25425692623E+02  0.51100000000E-03 0.  1.
         12    1    3    3    0    0  0.13952053758E+02  0.11801660037E+01  0.63562429732E-01  0.14002022570E+02  0.00000000000E+00 0. -1.
</event>
<event>
 7    1  0.2680581E-011  0.5052885E+02  0.7816164E-02  0.1300439E+00
        -11   -1    0    0    0    0  0.00000000000E+00  0.00000000000E+00  0.45593999997E+02  0.45594000000E+02  0.51100000000E-03 0.  1.
         11   -1    0    0    0    0 -0.00000000000E+00 -0.00000000000E+00 -0.45593999997E+02  0.45594000000E+02  0.51100000000E-03 0. -1.
    9900012    2    1    2    0    0  0.20315701530E+02  0.34015400323E+02 -0.91318780182E+01  0.50528851165E+02  0.29999973602E+02 0.  0.
         12    1    1    2    0    0 -0.20315701530E+02 -0.34015400323E+02  0.91318780182E+01  0.40659148835E+02  0.00000000000E+00 0. -1.
         11    1    3    3    0    0  0.11229308320E+02  0.12775459514E+02 -0.66301120848E+01  0.18255632491E+02  0.51100000000E-03 0. -1.
        -11    1    3    3    0    0  0.17447331237E+01  0.23907739178E+02 -0.40468958238E+01  0.24310521433E+02  0.51100000000E-03 0.  1.
         12    1    3    3    0    0  0.73416600869E+01 -0.26677983694E+01  0.15451298904E+01  0.79626972409E+01  0.00000000000E+00 0. -1.
</event>
<event>
 7    1  0.2680581E-011  0.5052886E+02  0.7816164E-02  0.1300439E+00
        -11   -1    0    0    0    0  0.00000000000E+00  0.00000000000E+00  0.45593999997E+02  0.45594000000E+02  0.51100000000E-03 0. -1.
         11   -1    0    0    0    0 -0.00000000000E+00 -0.00000000000E+00 -0.45593999997E+02  0.45594000000E+02  0.51100000000E-03 0.  1.
    9900012    2    1    2    0    0  0.11306663782E+02  0.52894367202E+00 -0.39051825665E+02  0.50528861850E+02  0.30000006080E+02 0.  0.
         12    1    1    2    0    0 -0.11306663782E+02 -0.52894367202E+00  0.39051825665E+02  0.40659138150E+02  0.00000000000E+00 0. -1.
         11    1    3    3    0    0  0.10448178927E+02  0.34321874743E+01 -0.94396893523E+01  0.14493173878E+02  0.51100000000E-03 0. -1.
        -11    1    3    3    0    0  0.78058043756E+01 -0.92203005525E+00 -0.27362759329E+02  0.28469304870E+02  0.51100000000E-03 0.  1.
        -12    1    3    3    0    0 -0.69473195207E+01 -0.19812137471E+01 -0.22493769837E+01  0.75663831022E+01  0.00000000000E+00 0.  1.
</event>
<event>
 7    1  0.2680581E-011  0.5052885E+02  0.7816164E-02  0.1300439E+00
        -11   -1    0    0    0    0  0.00000000000E+00  0.00000000000E+00  0.45593999997E+02  0.45594000000E+02  0.51100000000E-03 0.  1.
         11   -1    0    0    0    0 -0.00000000000E+00 -0.00000000000E+00 -0.45593999997E+02  0.45594000000E+02  0.51100000000E-03 0. -1.
    9900012    2    1    2    0    0 -0.35465432882E+02 -0.19694498059E+02  0.27378931658E+01  0.50528852908E+02  0.29999978899E+02 0.  0.
         12    1    1    2    0    0  0.35465432882E+02  0.19694498059E+02 -0.27378931658E+01  0.40659147092E+02  0.00000000000E+00 0. -1.
         11    1    3    3    0    0 -0.76675199830E+01 -0.13492867249E+02 -0.46056284088E+01  0.16188271761E+02  0.51100000000E-03 0. -1.
        -11    1    3    3    0    0 -0.17235603443E+02 -0.32841271069E+01 -0.45931404171E+01  0.18136936236E+02  0.51100000000E-03 0.  1.
         12    1    3    3    0    0 -0.10562309456E+02 -0.29175037025E+01  0.11936661992E+02  0.16203644911E+02  0.00000000000E+00 0. -1.
</event>
<event>
 7    1  0.2680581E-011  0.5052884E+02  0.7816164E-02  0.1300439E+00
        -11   -1    0    0    0    0  0.00000000000E+00  0.00000000000E+00  0.45593999997E+02  0.45594000000E+02  0.51100000000E-03 0.  1.
         11   -1    0    0    0    0 -0.00000000000E+00 -0.00000000000E+00 -0.45593999997E+02  0.45594000000E+02  0.51100000000E-03 0. -1.
    9900012    2    1    2    0    0 -0.16585005613E+02 -0.23592608463E+02  0.28661710562E+02  0.50528840667E+02  0.29999941692E+02 0.  0.
         12    1    1    2    0    0  0.16585005613E+02  0.23592608463E+02 -0.28661710562E+02  0.40659159333E+02  0.00000000000E+00 0. -1.
         11    1    3    3    0    0  0.32293565762E+01 -0.47166095573E+01 -0.34426412209E+01  0.66728500994E+01  0.51100000000E-03 0. -1.
        -11    1    3    3    0    0 -0.41663853661E+01 -0.91559629312E+00  0.11828775309E+02  0.12574458603E+02  0.51100000000E-03 0.  1.
        -12    1    3    3    0    0 -0.15647976823E+02 -0.17960402613E+02  0.20275576474E+02  0.31281531965E+02  0.00000000000E+00 0.  1.
</event>
<event>
 7    1  0.2680581E-011  0.5052883E+02  0.7816164E-02  0.1300439E+00
        -11   -1    0    0    0    0  0.00000000000E+00  0.00000000000E+00  0.45593999997E+02  0.45594000000E+02  0.51100000000E-03 0. -1.
         11   -1    0    0    0    0 -0.00000000000E+00 -0.00000000000E+00 -0.45593999997E+02  0.45594000000E+02  0.51100000000E-03 0.  1.
    9900012    2    1    2    0    0  0.39378001719E+02 -0.54263747280E+01  0.85495906259E+01  0.50528830530E+02  0.29999910879E+02 0.  0.
         12    1    1    2    0    0 -0.39378001719E+02  0.54263747280E+01 -0.85495906259E+01  0.40659169470E+02  0.00000000000E+00 0. -1.
         11    1    3    3    0    0  0.49444602601E+01  0.25648431881E+01  0.26709631075E+01  0.61773903897E+01  0.51100000000E-03 0. -1.
        -11    1    3    3    0    0  0.61316726803E+01 -0.32191119848E+01  0.13044663016E+02  0.14768998792E+02  0.51100000000E-03 0.  1.
        -12    1    3    3    0    0  0.28301868779E+02 -0.47721059313E+01 -0.71660354981E+01  0.29582441349E+02  0.00000000000E+00 0.  1.
</event>
<event>
 7    1  0.2680581E-011  0.5052885E+02  0.7816164E-02  0.1300439E+00
        -11   -1    0    0    0    0  0.00000000000E+00  0.00000000000E+00  0.45593999997E+02  0.45594000000E+02  0.51100000000E-03 0. -1.
         11   -1    0    0    0    0 -0.00000000000E+00 -0.00000000000E+00 -0.45593999997E+02  0.45594000000E+02  0.51100000000E-03 0.  1.
    9900012    2    1    2    0    0 -0.60545854815E+01 -0.28580659065E+02 -0.28278158546E+02  0.50528851845E+02  0.29999975667E+02 0.  0.
         12    1    1    2    0    0  0.60545854815E+01  0.28580659065E+02  0.28278158546E+02  0.40659148155E+02  0.00000000000E+00 0. -1.
         11    1    3    3    0    0 -0.74015923679E+01 -0.82107735817E+00  0.19253428961E+01  0.76918582370E+01  0.51100000000E-03 0. -1.
        -11    1    3    3    0    0 -0.23579065506E+01 -0.18538043188E+02 -0.12336569599E+02  0.22392179846E+02  0.51100000000E-03 0.  1.
        -12    1    3    3    0    0  0.37049134370E+01 -0.92215385189E+01 -0.17866931844E+02  0.20444813761E+02  0.00000000000E+00 0.  1.
</event>
<event>
 7    1  0.2680581E-011  0.5052886E+02  0.7816164E-02  0.1300439E+00
        -11   -1    0    0    0    0  0.00000000000E+00  0.00000000000E+00  0.45593999997E+02  0.45594000000E+02  0.51100000000E-03 0.  1.
         11   -1    0    0    0    0 -0.00000000000E+00 -0.00000000000E+00 -0.45593999997E+02  0.45594000000E+02  0.51100000000E-03 0. -1.
    9900012    2    1    2    0    0  0.25110811496E+02  0.21735735069E+02  0.23455714789E+02  0.50528860938E+02  0.30000003307E+02 0.  0.
         12    1    1    2    0    0 -0.25110811496E+02 -0.21735735069E+02 -0.23455714789E+02  0.40659139062E+02  0.00000000000E+00 0. -1.
         11    1    3    3    0    0  0.84533344809E+01 -0.18277956468E+01 -0.20358084756E+01  0.88850558345E+01  0.51100000000E-03 0.  1.
        -11    1    3    3    0    0  0.56469109712E+01  0.16234282850E+02  0.62392773175E+01  0.18285735558E+02  0.51100000000E-03 0. -1.
         12    1    3    3    0    0  0.11010566044E+02  0.73292478659E+01  0.19252245947E+02  0.23358069546E+02  0.00000000000E+00 0. -1.
</event>
<event>
 7    1  0.2680581E-011  0.5052898E+02  0.7816164E-02  0.1300438E+00
        -11   -1    0    0    0    0  0.00000000000E+00  0.00000000000E+00  0.45593999997E+02  0.45594000000E+02  0.51100000000E-03 0.  1.
         11   -1    0    0    0    0 -0.00000000000E+00 -0.00000000000E+00 -0.45593999997E+02  0.45594000000E+02  0.51100000000E-03 0. -1.
    9900012    2    1    2    0    0  0.33380413539E+02  0.68842163438E+01  0.22170056672E+02  0.50528980637E+02  0.30000367143E+02 0.  0.
         12    1    1    2    0    0 -0.33380413539E+02 -0.68842163438E+01 -0.22170056672E+02  0.40659019363E+02  0.00000000000E+00 0. -1.
         11    1    3    3    0    0  0.43578248694E+01 -0.57886014307E+01  0.13116891389E+01  0.73633601551E+01  0.51100000000E-03 0. -1.
        -11    1    3    3    0    0  0.88401134348E+01 -0.22218634667E+01  0.14766058546E+02  0.17352831701E+02  0.51100000000E-03 0.  1.
        -12    1    3    3    0    0  0.20182475234E+02  0.14894681241E+02  0.60923089877E+01  0.25812788781E+02  0.00000000000E+00 0.  1.
</event>
<event>
 7    1  0.2680581E-011  0.5052886E+02  0.7816164E-02  0.1300439E+00
        -11   -1    0    0    0    0  0.00000000000E+00  0.00000000000E+00  0.45593999997E+02  0.45594000000E+02  0.51100000000E-03 0.  1.
         11   -1    0    0    0    0 -0.00000000000E+00 -0.00000000000E+00 -0.45593999997E+02  0.45594000000E+02  0.51100000000E-03 0. -1.
    9900012    2    1    2    0    0 -0.33955409032E+02 -0.23385172953E+01  0.22242469119E+02  0.50528857139E+02  0.29999991760E+02 0.  0.
         12    1    1    2    0    0  0.33955409032E+02  0.23385172953E+01 -0.22242469119E+02  0.40659142861E+02  0.00000000000E+00 0. -1.
         11    1    3    3    0    0 -0.50119749372E+01 -0.89603405545E+01  0.11434706097E+02  0.15367501405E+02  0.51100000000E-03 0. -1.
        -11    1    3    3    0    0 -0.19670356318E+01  0.56011108008E+01  0.44713037347E+01  0.74319734074E+01  0.51100000000E-03 0.  1.
        -12    1    3    3    0    0 -0.26976398463E+02  0.10207124584E+01  0.63364592873E+01  0.27729382327E+02  0.00000000000E+00 0.  1.
</event>
<event>
 7    1  0.2680581E-011  0.5052886E+02  0.7816164E-02  0.1300439E+00
        -11   -1    0    0    0    0  0.00000000000E+00  0.00000000000E+00  0.45593999997E+02  0.45594000000E+02  0.51100000000E-03 0. -1.
         11   -1    0    0    0    0 -0.00000000000E+00 -0.00000000000E+00 -0.45593999997E+02  0.45594000000E+02  0.51100000000E-03 0.  1.
    9900012    2    1    2    0    0 -0.20360869246E+02 -0.15896157849E+02 -0.31399249300E+02  0.50528859731E+02  0.29999999637E+02 0.  0.
         12    1    1    2    0    0  0.20360869246E+02  0.15896157849E+02  0.31399249300E+02  0.40659140269E+02  0.00000000000E+00 0. -1.
         11    1    3    3    0    0 -0.13104311969E+01 -0.40578437643E+01 -0.14677968536E+02  0.15284831911E+02  0.51100000000E-03 0. -1.
        -11    1    3    3    0    0  0.45348083069E+01 -0.39111994639E+01 -0.19010912844E+01  0.62830021455E+01  0.51100000000E-03 0.  1.
        -12    1    3    3    0    0 -0.23585246356E+02 -0.79271146211E+01 -0.14820189480E+02  0.28961025674E+02  0.00000000000E+00 0.  1.
</event>
<event>
 7    1  0.2680581E-011  0.5052885E+02  0.7816164E-02  0.1300439E+00
        -11   -1    0    0    0    0  0.00000000000E+00  0.00000000000E+00  0.45593999997E+02  0.45594000000E+02  0.51100000000E-03 0. -1.
         11   -1    0    0    0    0 -0.00000000000E+00 -0.00000000000E+00 -0.45593999997E+02  0.45594000000E+02  0.51100000000E-03 0.  1.
    9900012    2    1    2    0    0 -0.29366561300E+02 -0.27944467011E+02 -0.31429366674E+01  0.50528853305E+02  0.29999980105E+02 0.  0.
         12    1    1    2    0    0  0.29366561300E+02  0.27944467011E+02  0.31429366674E+01  0.40659146695E+02  0.00000000000E+00 0. -1.
         11    1    3    3    0    0 -0.10491173284E+02 -0.25136818173E+01  0.47333413506E+01  0.11780824833E+02  0.51100000000E-03 0.  1.
        -11    1    3    3    0    0 -0.19051080266E+01  0.31980473182E+01 -0.36268336993E+01  0.51971979168E+01  0.51100000000E-03 0. -1.
        -12    1    3    3    0    0 -0.16970279989E+02 -0.28628832512E+02 -0.42494443187E+01  0.33550830555E+02  0.00000000000E+00 0.  1.
</event>
<event>
 7    1  0.2680581E-011  0.5052884E+02  0.7816164E-02  0.1300439E+00
        -11   -1    0    0    0    0  0.00000000000E+00  0.00000000000E+00  0.45593999997E+02  0.45594000000E+02  0.51100000000E-03 0. -1.
         11   -1    0    0    0    0 -0.00000000000E+00 -0.00000000000E+00 -0.45593999997E+02  0.45594000000E+02  0.51100000000E-03 0.  1.
    9900012    2    1    2    0    0 -0.35155888369E+02  0.19699064556E+02  0.54016245692E+01  0.50528841383E+02  0.29999943868E+02 0.  0.
         12    1    1    2    0    0  0.35155888369E+02 -0.19699064556E+02 -0.54016245692E+01  0.40659158617E+02  0.00000000000E+00 0. -1.
         11    1    3    3    0    0 -0.17507773337E+02 -0.41506186503E+01  0.37808163918E+01  0.18385982031E+02  0.51100000000E-03 0. -1.
        -11    1    3    3    0    0  0.79035943126E+00  0.12014587963E+01  0.25452649511E+01  0.29234474858E+01  0.51100000000E-03 0.  1.
        -12    1    3    3    0    0 -0.18438474463E+02  0.22648224410E+02 -0.92445677367E+00  0.29219411866E+02  0.00000000000E+00 0.  1.
</event>
<event>
 7    1  0.2680581E-011  0.5052886E+02  0.7816164E-02  0.1300439E+00
        -11   -1    0    0    0    0  0.00000000000E+00  0.00000000000E+00  0.45593999997E+02  0.45594000000E+02  0.51100000000E-03 0. -1.
         11   -1    0    0    0    0 -0.00000000000E+00 -0.00000000000E+00 -0.45593999997E+02  0.45594000000E+02  0.51100000000E-03 0.  1.
    9900012    2    1    2    0    0 -0.31221994716E+02 -0.17593921772E+02 -0.19204337479E+02  0.50528860617E+02  0.30000002332E+02 0.  0.
         12    1    1    2    0    0  0.31221994716E+02  0.17593921772E+02  0.19204337479E+02  0.40659139383E+02  0.00000000000E+00 0. -1.
         11    1    3    3    0    0 -0.32012326084E+02 -0.74836851431E+01 -0.10812238717E+02  0.34607789166E+02  0.51100000000E-03 0.  1.
        -11    1    3    3    0    0 -0.25072486159E+01 -0.74124664451E+01 -0.17313567051E+01  0.80142716901E+01  0.51100000000E-03 0. -1.
        -12    1    3    3    0    0  0.32975799838E+01 -0.26977701837E+01 -0.66607420571E+01  0.79067997612E+01  0.00000000000E+00 0.  1.
</event>
<event>
 7    1  0.2680581E-011  0.5052887E+02  0.7816164E-02  0.1300439E+00
        -11   -1    0    0    0    0  0.00000000000E+00  0.00000000000E+00  0.45593999997E+02  0.45594000000E+02  0.51100000000E-03 0.  1.
         11   -1    0    0    0    0 -0.00000000000E+00 -0.00000000000E+00 -0.45593999997E+02  0.45594000000E+02  0.51100000000E-03 0. -1.
    9900012    2    1    2    0    0 -0.35935475874E+02  0.16129305693E+02  0.10082275839E+02  0.50528865546E+02  0.30000017315E+02 0.  0.
         12    1    1    2    0    0  0.35935475874E+02 -0.16129305693E+02 -0.10082275839E+02  0.40659134454E+02  0.00000000000E+00 0. -1.
         11    1    3    3    0    0 -0.10521523037E+01 -0.43009532779E+01  0.46964587439E+01  0.64546067706E+01  0.51100000000E-03 0.  1.
        -11    1    3    3    0    0 -0.13142637838E+02  0.16636515775E+02 -0.59215415125E+00  0.21209743828E+02  0.51100000000E-03 0. -1.
        -12    1    3    3    0    0 -0.21740685733E+02  0.37937431957E+01  0.59779712464E+01  0.22864514948E+02  0.00000000000E+00 0.  1.
</event>
<event>
 7    1  0.2680581E-011  0.5052886E+02  0.7816164E-02  0.1300439E+00
        -11   -1    0    0    0    0  0.00000000000E+00  0.00000000000E+00  0.45593999997E+02  0.45594000000E+02  0.51100000000E-03 0. -1.
         11   -1    0    0    0    0 -0.00000000000E+00 -0.00000000000E+00 -0.45593999997E+02  0.45594000000E+02  0.51100000000E-03 0.  1.
    9900012    2    1    2    0    0 -0.99337214372E+01 -0.36175514766E+02 -0.15678618173E+02  0.50528858863E+02  0.29999997000E+02 0.  0.
         12    1    1    2    0    0  0.99337214372E+01  0.36175514766E+02  0.15678618173E+02  0.40659141137E+02  0.00000000000E+00 0. -1.
         11    1    3    3    0    0  0.82281194644E+00 -0.29756080355E+01  0.15367703819E+01  0.34486122060E+01  0.51100000000E-03 0. -1.
        -11    1    3    3    0    0 -0.17795583392E+02 -0.28005825352E+02 -0.18877923227E+02  0.38175712535E+02  0.51100000000E-03 0.  1.
         12    1    3    3    0    0  0.70390500088E+01 -0.51940813784E+01  0.16625346723E+01  0.89045341219E+01  0.00000000000E+00 0. -1.
</event>
<event>
 7    1  0.2680581E-011  0.5052886E+02  0.7816164E-02  0.1300439E+00
        -11   -1    0    0    0    0  0.00000000000E+00  0.00000000000E+00  0.45593999997E+02  0.45594000000E+02  0.51100000000E-03 0. -1.
         11   -1    0    0    0    0 -0.00000000000E+00 -0.00000000000E+00 -0.45593999997E+02  0.45594000000E+02  0.51100000000E-03 0.  1.
    9900012    2    1    2    0    0  0.15753649236E+02  0.30706085244E+02 -0.21497075844E+02  0.50528863202E+02  0.30000010190E+02 0.  0.
         12    1    1    2    0    0 -0.15753649236E+02 -0.30706085244E+02  0.21497075844E+02  0.40659136798E+02  0.00000000000E+00 0. -1.
         11    1    3    3    0    0  0.71246497853E+01 -0.27901664472E+01 -0.10988669501E+02  0.13390165086E+02  0.51100000000E-03 0.  1.
        -11    1    3    3    0    0  0.48507635923E+01  0.11629862711E+02 -0.35333531332E-01  0.12600986581E+02  0.51100000000E-03 0. -1.
        -12    1    3    3    0    0  0.37782358588E+01  0.21866388981E+02 -0.10473072812E+02  0.24537711535E+02  0.00000000000E+00 0.  1.
</event>
<event>
 7    1  0.2680581E-011  0.5052891E+02  0.7816164E-02  0.1300439E+00
        -11   -1    0    0    0    0  0.00000000000E+00  0.00000000000E+00  0.45593999997E+02  0.45594000000E+02  0.51100000000E-03 0.  1.
         11   -1    0    0    0    0 -0.00000000000E+00 -0.00000000000E+00 -0.45593999997E+02  0.45594000000E+02  0.51100000000E-03 0. -1.
    9900012    2    1    2    0    0 -0.66746811685E+01 -0.30829804851E+00  0.40106299064E+02  0.50528909491E+02  0.30000150888E+02 0.  0.
         12    1    1    2    0    0  0.66746811685E+01  0.30829804851E+00 -0.40106299064E+02  0.40659090509E+02  0.00000000000E+00 0. -1.
         11    1    3    3    0    0 -0.68794892539E+01 -0.57020477947E+01  0.43463752890E+01  0.99363826346E+01  0.51100000000E-03 0. -1.
        -11    1    3    3    0    0  0.38966467702E+01 -0.60429991140E+01  0.13546222175E+02  0.15336291266E+02  0.51100000000E-03 0.  1.
         12    1    3    3    0    0 -0.36918386849E+01  0.11436748860E+02  0.22213701601E+02  0.25256235590E+02  0.00000000000E+00 0. -1.
</event>
<event>
 7    1  0.2680581E-011  0.5052887E+02  0.7816164E-02  0.1300439E+00
        -11   -1    0    0    0    0  0.00000000000E+00  0.00000000000E+00  0.45593999997E+02  0.45594000000E+02  0.51100000000E-03 0. -1.
         11   -1    0    0    0    0 -0.00000000000E+00 -0.00000000000E+00 -0.45593999997E+02  0.45594000000E+02  0.51100000000E-03 0.  1.
    9900012    2    1    2    0    0 -0.37337977718E+01 -0.15279786496E+02 -0.37493360524E+02  0.50528865669E+02  0.30000017688E+02 0.  0.
         12    1    1    2    0    0  0.37337977718E+01  0.15279786496E+02  0.37493360524E+02  0.40659134331E+02  0.00000000000E+00 0. -1.
         11    1    3    3    0    0 -0.12014694282E+02 -0.51931264352E+01 -0.25691096392E+02  0.28833207851E+02  0.51100000000E-03 0. -1.
        -11    1    3    3    0    0 -0.22582302654E+01 -0.67832780612E+01 -0.50009528358E+01  0.87247919583E+01  0.51100000000E-03 0.  1.
         12    1    3    3    0    0  0.10539126776E+02 -0.33033819991E+01 -0.68013112956E+01  0.12970865860E+02  0.00000000000E+00 0. -1.
</event>
<event>
 7    1  0.2680581E-011  0.5052882E+02  0.7816164E-02  0.1300439E+00
        -11   -1    0    0    0    0  0.00000000000E+00  0.00000000000E+00  0.45593999997E+02  0.45594000000E+02  0.51100000000E-03 0.  1.
         11   -1    0    0    0    0 -0.00000000000E+00 -0.00000000000E+00 -0.45593999997E+02  0.45594000000E+02  0.51100000000E-03 0. -1.
    9900012    2    1    2    0    0 -0.18637162076E+01 -0.61336910440E+01  0.40150631955E+02  0.50528820836E+02  0.29999881412E+02 0.  0.
         12    1    1    2    0    0  0.18637162076E+01  0.61336910440E+01 -0.40150631955E+02  0.40659179164E+02  0.00000000000E+00 0. -1.
         11    1    3    3    0    0 -0.67984321496E+00 -0.44589881879E+01  0.28830124842E+01  0.53531788409E+01  0.51100000000E-03 0. -1.
        -11    1    3    3    0    0  0.10018588358E+01 -0.62989119149E+01  0.39194430888E+02  0.39709991505E+02  0.51100000000E-03 0.  1.
        -12    1    3    3    0    0 -0.21857318284E+01  0.46242090588E+01 -0.19268114168E+01  0.54656504902E+01  0.00000000000E+00 0.  1.
</event>
<event>
 7    1  0.2680581E-011  0.5052886E+02  0.7816164E-02  0.1300439E+00
        -11   -1    0    0    0    0  0.00000000000E+00  0.00000000000E+00  0.45593999997E+02  0.45594000000E+02  0.51100000000E-03 0.  1.
         11   -1    0    0    0    0 -0.00000000000E+00 -0.00000000000E+00 -0.45593999997E+02  0.45594000000E+02  0.51100000000E-03 0. -1.
    9900012    2    1    2    0    0  0.45962291723E+01 -0.28686713453E+02  0.28444909761E+02  0.50528859051E+02  0.29999997573E+02 0.  0.
         12    1    1    2    0    0 -0.45962291723E+01  0.28686713453E+02 -0.28444909761E+02  0.40659140949E+02  0.00000000000E+00 0. -1.
         11    1    3    3    0    0  0.10380442642E+01 -0.22715272284E+02  0.40417221734E+01  0.23095381556E+02  0.51100000000E-03 0. -1.
        -11    1    3    3    0    0  0.21952078791E+01 -0.88103300117E+01  0.15188280318E+02  0.17695330226E+02  0.51100000000E-03 0.  1.
        -12    1    3    3    0    0  0.13629770291E+01  0.28388888423E+01  0.92149072703E+01  0.97381472694E+01  0.00000000000E+00 0.  1.
</event>
<event>
 7    1  0.2680581E-011  0.5052887E+02  0.7816164E-02  0.1300439E+00
        -11   -1    0    0    0    0  0.00000000000E+00  0.00000000000E+00  0.45593999997E+02  0.45594000000E+02  0.51100000000E-03 0.  1.
         11   -1    0    0    0    0 -0.00000000000E+00 -0.00000000000E+00 -0.45593999997E+02  0.45594000000E+02  0.51100000000E-03 0. -1.
    9900012    2    1    2    0    0  0.19950335491E+02 -0.25411642325E+02  0.24685972753E+02  0.50528871842E+02  0.30000036450E+02 0.  0.
         12    1    1    2    0    0 -0.19950335491E+02  0.25411642325E+02 -0.24685972753E+02  0.40659128158E+02  0.00000000000E+00 0. -1.
         11    1    3    3    0    0  0.37107842143E+01  0.42623651583E+01  0.13981527298E+00  0.56530721558E+01  0.51100000000E-03 0. -1.
        -11    1    3    3    0    0  0.14051676494E+00 -0.17021660957E+02  0.97885843133E+01  0.19636014612E+02  0.51100000000E-03 0.  1.
         12    1    3    3    0    0  0.16099034512E+02 -0.12652346526E+02  0.14757573167E+02  0.25239785074E+02  0.00000000000E+00 0. -1.
</event>
<event>
 7    1  0.2680581E-011  0.5052890E+02  0.7816164E-02  0.1300439E+00
        -11   -1    0    0    0    0  0.00000000000E+00  0.00000000000E+00  0.45593999997E+02  0.45594000000E+02  0.51100000000E-03 0. -1.
         11   -1    0    0    0    0 -0.00000000000E+00 -0.00000000000E+00 -0.45593999997E+02  0.45594000000E+02  0.51100000000E-03 0.  1.
    9900012    2    1    2    0    0  0.12651914751E+01 -0.96031559016E+01 -0.39488498006E+02  0.50528895392E+02  0.30000108033E+02 0.  0.
         12    1    1    2    0    0 -0.12651914751E+01  0.96031559016E+01  0.39488498006E+02  0.40659104608E+02  0.00000000000E+00 0. -1.
         11    1    3    3    0    0 -0.30139664529E+00  0.83284426948E+01 -0.94062102762E+01  0.12567043792E+02  0.51100000000E-03 0. -1.
        -11    1    3    3    0    0  0.70496039812E+01 -0.48941323694E+01 -0.15028429168E+02  0.17306158773E+02  0.51100000000E-03 0.  1.
        -12    1    3    3    0    0 -0.54830158608E+01 -0.13037466227E+02 -0.15053858562E+02  0.20655692827E+02  0.00000000000E+00 0.  1.
</event>
<event>
 7    1  0.2680581E-011  0.5052887E+02  0.7816164E-02  0.1300439E+00
        -11   -1    0    0    0    0  0.00000000000E+00  0.00000000000E+00  0.45593999997E+02  0.45594000000E+02  0.51100000000E-03 0.  1.
         11   -1    0    0    0    0 -0.00000000000E+00 -0.00000000000E+00 -0.45593999997E+02  0.45594000000E+02  0.51100000000E-03 0. -1.
    9900012    2    1    2    0    0 -0.12582616723E+02  0.32618785995E+02  0.20757106507E+02  0.50528869243E+02  0.30000028551E+02 0.  0.
         12    1    1    2    0    0  0.12582616723E+02 -0.32618785995E+02 -0.20757106507E+02  0.40659130757E+02  0.00000000000E+00 0. -1.
         11    1    3    3    0    0 -0.56140089165E+01  0.21113068566E+01  0.11925088987E+02  0.13348500304E+02  0.51100000000E-03 0. -1.
        -11    1    3    3    0    0 -0.13117184338E+02  0.21903301919E+02  0.58425703530E+01  0.26190662239E+02  0.51100000000E-03 0.  1.
         12    1    3    3    0    0  0.61485765319E+01  0.86041772193E+01  0.29894471668E+01  0.10989706700E+02  0.00000000000E+00 0. -1.
</event>
<event>
 7    1  0.2680581E-011  0.5052885E+02  0.7816164E-02  0.1300439E+00
        -11   -1    0    0    0    0  0.00000000000E+00  0.00000000000E+00  0.45593999997E+02  0.45594000000E+02  0.51100000000E-03 0.  1.
         11   -1    0    0    0    0 -0.00000000000E+00 -0.00000000000E+00 -0.45593999997E+02  0.45594000000E+02  0.51100000000E-03 0. -1.
    9900012    2    1    2    0    0 -0.77979975519E+01  0.36200993969E+01  0.39739809958E+02  0.50528851202E+02  0.29999973715E+02 0.  0.
         12    1    1    2    0    0  0.77979975519E+01 -0.36200993969E+01 -0.39739809958E+02  0.40659148798E+02  0.00000000000E+00 0. -1.
         11    1    3    3    0    0 -0.20159770537E+01 -0.31773327216E+01  0.30505692445E+01  0.48441283717E+01  0.51100000000E-03 0. -1.
        -11    1    3    3    0    0 -0.15446848426E+02  0.80495691770E+01  0.24924475622E+02  0.30407732167E+02  0.51100000000E-03 0.  1.
        -12    1    3    3    0    0  0.96648279278E+01 -0.12521370584E+01  0.11764765092E+02  0.15276990664E+02  0.00000000000E+00 0.  1.
</event>
<event>
 7    1  0.2680581E-011  0.5052891E+02  0.7816164E-02  0.1300439E+00
        -11   -1    0    0    0    0  0.00000000000E+00  0.00000000000E+00  0.45593999997E+02  0.45594000000E+02  0.51100000000E-03 0.  1.
         11   -1    0    0    0    0 -0.00000000000E+00 -0.00000000000E+00 -0.45593999997E+02  0.45594000000E+02  0.51100000000E-03 0. -1.
    9900012    2    1    2    0    0  0.25225816404E+01  0.36716934617E+02 -0.17281915351E+02  0.50528913635E+02  0.30000163485E+02 0.  0.
         12    1    1    2    0    0 -0.25225816404E+01 -0.36716934617E+02  0.17281915351E+02  0.40659086365E+02  0.00000000000E+00 0. -1.
         11    1    3    3    0    0  0.77030213774E+01  0.13771832380E+02 -0.96272261431E+01  0.18484679844E+02  0.51100000000E-03 0. -1.
        -11    1    3    3    0    0 -0.68649334478E+01 -0.93294021481E+00 -0.34531057305E+01  0.77409061572E+01  0.51100000000E-03 0.  1.
         12    1    3    3    0    0  0.16844937108E+01  0.23878042452E+02 -0.42015834772E+01  0.24303327635E+02  0.00000000000E+00 0. -1.
</event>
<event>
 7    1  0.2680581E-011  0.5052883E+02  0.7816164E-02  0.1300439E+00
        -11   -1    0    0    0    0  0.00000000000E+00  0.00000000000E+00  0.45593999997E+02  0.45594000000E+02  0.51100000000E-03 0.  1.
         11   -1    0    0    0    0 -0.00000000000E+00 -0.00000000000E+00 -0.45593999997E+02  0.45594000000E+02  0.51100000000E-03 0. -1.
    9900012    2    1    2    0    0  0.18770221230E+02  0.13470232036E+02  0.33457437093E+02  0.50528825722E+02  0.29999896264E+02 0.  0.
         12    1    1    2    0    0 -0.18770221230E+02 -0.13470232036E+02 -0.33457437093E+02  0.40659174278E+02  0.00000000000E+00 0. -1.
         11    1    3    3    0    0  0.79851373200E+01  0.43219810426E+01 -0.16166369591E+01  0.92225513537E+01  0.51100000000E-03 0. -1.
        -11    1    3    3    0    0  0.10886079878E+02 -0.14485805605E+01  0.14798065918E+02  0.18427910243E+02  0.51100000000E-03 0.  1.
         12    1    3    3    0    0 -0.10099596869E+00  0.10596831554E+02  0.20276008134E+02  0.22878364125E+02  0.00000000000E+00 0. -1.
</event>
<event>
 7    1  0.2680581E-011  0.5052886E+02  0.7816164E-02  0.1300439E+00
        -11   -1    0    0    0    0  0.00000000000E+00  0.00000000000E+00  0.45593999997E+02  0.45594000000E+02  0.51100000000E-03 0.  1.
         11   -1    0    0    0    0 -0.00000000000E+00 -0.00000000000E+00 -0.45593999997E+02  0.45594000000E+02  0.51100000000E-03 0. -1.
    9900012    2    1    2    0    0  0.64123514559E+01 -0.37257381610E+02  0.14964453219E+02  0.50528860858E+02  0.30000003064E+02 0.  0.
         12    1    1    2    0    0 -0.64123514559E+01  0.37257381610E+02 -0.14964453219E+02  0.40659139142E+02  0.00000000000E+00 0. -1.
         11    1    3    3    0    0  0.78594499659E+01 -0.93854232308E+01  0.15944153773E+01  0.12345010476E+02  0.51100000000E-03 0. -1.
        -11    1    3    3    0    0  0.56555721021E+01 -0.38945585257E+01  0.11128175109E+02  0.13076290125E+02  0.51100000000E-03 0.  1.
        -12    1    3    3    0    0 -0.71026706121E+01 -0.23977399854E+02  0.22418627321E+01  0.25107560257E+02  0.00000000000E+00 0.  1.
</event>
<event>
 7    1  0.2680581E-011  0.5052886E+02  0.7816164E-02  0.1300439E+00
        -11   -1    0    0    0    0  0.00000000000E+00  0.00000000000E+00  0.45593999997E+02  0.45594000000E+02  0.51100000000E-03 0.  1.
         11   -1    0    0    0    0 -0.00000000000E+00 -0.00000000000E+00 -0.45593999997E+02  0.45594000000E+02  0.51100000000E-03 0. -1.
    9900012    2    1    2    0    0 -0.31395363515E+02 -0.25832798945E+02  0.40436262491E+00  0.50528857600E+02  0.29999993162E+02 0.  0.
         12    1    1    2    0    0  0.31395363515E+02  0.25832798945E+02 -0.40436262491E+00  0.40659142400E+02  0.00000000000E+00 0. -1.
         11    1    3    3    0    0 -0.17936323716E+02 -0.47331103489E+01  0.28829419664E+01  0.18772996475E+02  0.51100000000E-03 0. -1.
        -11    1    3    3    0    0 -0.16899105655E+02 -0.21171199323E+02  0.66265309381E+00  0.27096836754E+02  0.51100000000E-03 0.  1.
        -12    1    3    3    0    0  0.34400658560E+01  0.71510727140E-01 -0.31412324353E+01  0.46590243710E+01  0.00000000000E+00 0.  1.
</event>
<event>
 7    1  0.2680581E-011  0.5052886E+02  0.7816164E-02  0.1300439E+00
        -11   -1    0    0    0    0  0.00000000000E+00  0.00000000000E+00  0.45593999997E+02  0.45594000000E+02  0.51100000000E-03 0.  1.
         11   -1    0    0    0    0 -0.00000000000E+00 -0.00000000000E+00 -0.45593999997E+02  0.45594000000E+02  0.51100000000E-03 0. -1.
    9900012    2    1    2    0    0  0.55318623488E+01  0.98384940832E+01  0.39061080635E+02  0.50528862192E+02  0.30000007119E+02 0.  0.
         12    1    1    2    0    0 -0.55318623488E+01 -0.98384940832E+01 -0.39061080635E+02  0.40659137808E+02  0.00000000000E+00 0. -1.
         11    1    3    3    0    0  0.17386786722E+00  0.34660233123E+01 -0.18880558830E+00  0.34755136955E+01  0.51100000000E-03 0. -1.
        -11    1    3    3    0    0 -0.98164802204E+01  0.17974481610E+01  0.12984493940E+02  0.16376543803E+02  0.51100000000E-03 0.  1.
        -12    1    3    3    0    0  0.15174474702E+02  0.45750226099E+01  0.26265392284E+02  0.30676804693E+02  0.00000000000E+00 0.  1.
</event>
<event>
 7    1  0.2680581E-011  0.5052886E+02  0.7816164E-02  0.1300439E+00
        -11   -1    0    0    0    0  0.00000000000E+00  0.00000000000E+00  0.45593999997E+02  0.45594000000E+02  0.51100000000E-03 0.  1.
         11   -1    0    0    0    0 -0.00000000000E+00 -0.00000000000E+00 -0.45593999997E+02  0.45594000000E+02  0.51100000000E-03 0. -1.
    9900012    2    1    2    0    0 -0.23688324398E+02  0.21879937838E+02  0.24764840474E+02  0.50528859376E+02  0.29999998559E+02 0.  0.
         12    1    1    2    0    0  0.23688324398E+02 -0.21879937838E+02 -0.24764840474E+02  0.40659140624E+02  0.00000000000E+00 0. -1.
         11    1    3    3    0    0 -0.16119634951E+02  0.55786003773E+01  0.15209318339E+02  0.22853594416E+02  0.51100000000E-03 0. -1.
        -11    1    3    3    0    0 -0.29727866376E+01  0.16249558375E+02  0.13719403844E+02  0.21473417284E+02  0.51100000000E-03 0.  1.
         12    1    3    3    0    0 -0.45959028091E+01  0.51779085803E-01 -0.41638817087E+01  0.62018476753E+01  0.00000000000E+00 0. -1.
</event>
<event>
 7    1  0.2680581E-011  0.5052885E+02  0.7816164E-02  0.1300439E+00
        -11   -1    0    0    0    0  0.00000000000E+00  0.00000000000E+00  0.45593999997E+02  0.45594000000E+02  0.51100000000E-03 0. -1.
         11   -1    0    0    0    0 -0.00000000000E+00 -0.00000000000E+00 -0.45593999997E+02  0.45594000000E+02  0.51100000000E-03 0.  1.
    9900012    2    1    2    0    0  0.66464490723E+01 -0.56739592179E+01 -0.39708904461E+02  0.50528853526E+02  0.29999980778E+02 0.  0.
         12    1    1    2    0    0 -0.66464490723E+01  0.56739592179E+01  0.39708904461E+02  0.40659146474E+02  0.00000000000E+00 0. -1.
         11    1    3    3    0    0  0.27740017062E+01 -0.42464423328E+01 -0.15301673433E+01  0.52979968206E+01  0.51100000000E-03 0. -1.
        -11    1    3    3    0    0  0.78817638026E+01  0.72797786274E+01 -0.75036371226E+01  0.13092820469E+02  0.51100000000E-03 0.  1.
        -12    1    3    3    0    0 -0.40093164365E+01 -0.87072955125E+01 -0.30675099995E+02  0.32138036237E+02  0.00000000000E+00 0.  1.
</event>
<event>
 7    1  0.2680581E-011  0.5052885E+02  0.7816164E-02  0.1300439E+00
        -11   -1    0    0    0    0  0.00000000000E+00  0.00000000000E+00  0.45593999997E+02  0.45594000000E+02  0.51100000000E-03 0. -1.
         11   -1    0    0    0    0 -0.00000000000E+00 -0.00000000000E+00 -0.45593999997E+02  0.45594000000E+02  0.51100000000E-03 0.  1.
    9900012    2    1    2    0    0 -0.36118787964E+02  0.15207103416E+02 -0.10832540370E+02  0.50528846428E+02  0.29999959204E+02 0.  0.
         12    1    1    2    0    0  0.36118787964E+02 -0.15207103416E+02  0.10832540370E+02  0.40659153572E+02  0.00000000000E+00 0. -1.
         11    1    3    3    0    0 -0.17458961104E+02  0.23717142485E+01  0.60653255283E+01  0.18634068942E+02  0.51100000000E-03 0. -1.
        -11    1    3    3    0    0 -0.15927546603E+01 -0.55698555816E+00  0.23497731823E+01  0.28928419572E+01  0.51100000000E-03 0.  1.
         12    1    3    3    0    0 -0.17067072200E+02  0.13392374726E+02 -0.19247639081E+02  0.29001935529E+02  0.00000000000E+00 0. -1.
</event>
<event>
 7    1  0.2680581E-011  0.5052884E+02  0.7816164E-02  0.1300439E+00
        -11   -1    0    0    0    0  0.00000000000E+00  0.00000000000E+00  0.45593999997E+02  0.45594000000E+02  0.51100000000E-03 0.  1.
         11   -1    0    0    0    0 -0.00000000000E+00 -0.00000000000E+00 -0.45593999997E+02  0.45594000000E+02  0.51100000000E-03 0. -1.
    9900012    2    1    2    0    0 -0.40940562199E+01 -0.15969494794E+02  0.37166936030E+02  0.50528841201E+02  0.29999943316E+02 0.  0.
         12    1    1    2    0    0  0.40940562199E+01  0.15969494794E+02 -0.37166936030E+02  0.40659158799E+02  0.00000000000E+00 0. -1.
         11    1    3    3    0    0  0.33656887815E+01 -0.11166203946E+02  0.18604358183E+02  0.21957552578E+02  0.51100000000E-03 0. -1.
        -11    1    3    3    0    0 -0.42822290552E+01  0.63662246952E+01  0.14248983123E+02  0.16183319278E+02  0.51100000000E-03 0.  1.
         12    1    3    3    0    0 -0.31775159463E+01 -0.11169515544E+02  0.43135947245E+01  0.12387969346E+02  0.00000000000E+00 0. -1.
</event>
<event>
 7    1  0.2680581E-011  0.5052885E+02  0.7816164E-02  0.1300439E+00
        -11   -1    0    0    0    0  0.00000000000E+00  0.00000000000E+00  0.45593999997E+02  0.45594000000E+02  0.51100000000E-03 0.  1.
         11   -1    0    0    0    0 -0.00000000000E+00 -0.00000000000E+00 -0.45593999997E+02  0.45594000000E+02  0.51100000000E-03 0. -1.
    9900012    2    1    2    0    0 -0.20414413343E+02 -0.32608042753E+02 -0.13158038812E+02  0.50528847160E+02  0.29999961427E+02 0.  0.
         12    1    1    2    0    0  0.20414413343E+02  0.32608042753E+02  0.13158038812E+02  0.40659152840E+02  0.00000000000E+00 0. -1.
         11    1    3    3    0    0 -0.22337468084E+01 -0.23177528228E+02 -0.23318946628E+01  0.23401392535E+02  0.51100000000E-03 0. -1.
        -11    1    3    3    0    0 -0.84177206369E+01 -0.79530916243E+01  0.11133009793E+01  0.11633964347E+02  0.51100000000E-03 0.  1.
        -12    1    3    3    0    0 -0.97629458973E+01 -0.14774229001E+01 -0.11939445128E+02  0.15493490278E+02  0.00000000000E+00 0.  1.
</event>
<event>
 7    1  0.2680581E-011  0.5052885E+02  0.7816164E-02  0.1300439E+00
        -11   -1    0    0    0    0  0.00000000000E+00  0.00000000000E+00  0.45593999997E+02  0.45594000000E+02  0.51100000000E-03 0.  1.
         11   -1    0    0    0    0 -0.00000000000E+00 -0.00000000000E+00 -0.45593999997E+02  0.45594000000E+02  0.51100000000E-03 0. -1.
    9900012    2    1    2    0    0 -0.11868400915E+02  0.22116460036E+02  0.31987024249E+02  0.50528850167E+02  0.29999970568E+02 0.  0.
         12    1    1    2    0    0  0.11868400915E+02 -0.22116460036E+02 -0.31987024249E+02  0.40659149833E+02  0.00000000000E+00 0. -1.
         11    1    3    3    0    0 -0.79251665849E+01  0.58201177984E+01  0.39671899847E+01  0.10602859672E+02  0.51100000000E-03 0. -1.
        -11    1    3    3    0    0 -0.71742894403E+01 -0.14697562182E+01  0.17635347940E+02  0.19095447351E+02  0.51100000000E-03 0.  1.
         12    1    3    3    0    0  0.32310551098E+01  0.17766098456E+02  0.10384486324E+02  0.20830543144E+02  0.00000000000E+00 0. -1.
</event>
<event>
 7    1  0.2680581E-011  0.5052886E+02  0.7816164E-02  0.1300439E+00
        -11   -1    0    0    0    0  0.00000000000E+00  0.00000000000E+00  0.45593999997E+02  0.45594000000E+02  0.51100000000E-03 0.  1.
         11   -1    0    0    0    0 -0.00000000000E+00 -0.00000000000E+00 -0.45593999997E+02  0.45594000000E+02  0.51100000000E-03 0. -1.
    9900012    2    1    2    0    0  0.24241208443E+00  0.22706455734E+02  0.33727197570E+02  0.50528858942E+02  0.29999997241E+02 0.  0.
         12    1    1    2    0    0 -0.24241208443E+00 -0.22706455734E+02 -0.33727197570E+02  0.40659141058E+02  0.00000000000E+00 0. -1.
         11    1    3    3    0    0  0.67648300046E+01  0.58202959981E+00  0.71626909830E+01  0.98694389823E+01  0.51100000000E-03 0. -1.
        -11    1    3    3    0    0 -0.61389796160E+01  0.31423832356E+01 -0.12240436786E+01  0.70042791430E+01  0.51100000000E-03 0.  1.
        -12    1    3    3    0    0 -0.38343830416E+00  0.18982042899E+02  0.27788550266E+02  0.33655140817E+02  0.00000000000E+00 0.  1.
</event>
<event>
 7    1  0.2680581E-011  0.5052886E+02  0.7816164E-02  0.1300439E+00
        -11   -1    0    0    0    0  0.00000000000E+00  0.00000000000E+00  0.45593999997E+02  0.45594000000E+02  0.51100000000E-03 0.  1.
         11   -1    0    0    0    0 -0.00000000000E+00 -0.00000000000E+00 -0.45593999997E+02  0.45594000000E+02  0.51100000000E-03 0. -1.
    9900012    2    1    2    0    0  0.30389322680E+02 -0.15723410154E+02  0.21964267491E+02  0.50528860729E+02  0.30000002672E+02 0.  0.
         12    1    1    2    0    0 -0.30389322680E+02  0.15723410154E+02 -0.21964267491E+02  0.40659139271E+02  0.00000000000E+00 0. -1.
         11    1    3    3    0    0  0.15054982152E+01 -0.13178492201E+01 -0.42884092858E+01  0.47321988448E+01  0.51100000000E-03 0. -1.
        -11    1    3    3    0    0  0.26971282891E+01 -0.27241375103E+01 -0.29747656883E+01  0.48522837246E+01  0.51100000000E-03 0.  1.
        -12    1    3    3    0    0  0.26186696176E+02 -0.11681423424E+02  0.29227442465E+02  0.40944378160E+02  0.00000000000E+00 0.  1.
</event>
<event>
 7    1  0.2680581E-011  0.5052886E+02  0.7816164E-02  0.1300439E+00
        -11   -1    0    0    0    0  0.00000000000E+00  0.00000000000E+00  0.45593999997E+02  0.45594000000E+02  0.51100000000E-03 0. -1.
         11   -1    0    0    0    0 -0.00000000000E+00 -0.00000000000E+00 -0.45593999997E+02  0.45594000000E+02  0.51100000000E-03 0.  1.
    9900012    2    1    2    0    0 -0.13097234230E+02  0.34277663674E+02  0.17512002973E+02  0.50528855647E+02  0.29999987224E+02 0.  0.
         12    1    1    2    0    0  0.13097234230E+02 -0.34277663674E+02 -0.17512002973E+02  0.40659144353E+02  0.00000000000E+00 0. -1.
         11    1    3    3    0    0 -0.47830584778E+01  0.16676246089E+02  0.21795368635E+02  0.27857008566E+02  0.51100000000E-03 0. -1.
        -11    1    3    3    0    0  0.35449556494E+00  0.10108067154E+02  0.78043735055E+00  0.10144346771E+02  0.51100000000E-03 0.  1.
        -12    1    3    3    0    0 -0.86686713171E+01  0.74933504306E+01 -0.50638030122E+01  0.12527500310E+02  0.00000000000E+00 0.  1.
</event>
<event>
 7    1  0.2680581E-011  0.5052883E+02  0.7816164E-02  0.1300439E+00
        -11   -1    0    0    0    0  0.00000000000E+00  0.00000000000E+00  0.45593999997E+02  0.45594000000E+02  0.51100000000E-03 0.  1.
         11   -1    0    0    0    0 -0.00000000000E+00 -0.00000000000E+00 -0.45593999997E+02  0.45594000000E+02  0.51100000000E-03 0. -1.
    9900012    2    1    2    0    0 -0.30613486012E+02  0.21582442477E+02  0.15817102062E+02  0.50528830472E+02  0.29999910703E+02 0.  0.
         12    1    1    2    0    0  0.30613486012E+02 -0.21582442477E+02 -0.15817102062E+02  0.40659169528E+02  0.00000000000E+00 0. -1.
         11    1    3    3    0    0 -0.29229845228E+02  0.88028689664E+01  0.81969904335E+01  0.31607989600E+02  0.51100000000E-03 0. -1.
        -11    1    3    3    0    0 -0.55326776630E+01  0.89039205163E+01  0.80643459985E+01  0.13225883688E+02  0.51100000000E-03 0.  1.
        -12    1    3    3    0    0  0.41490368795E+01  0.38756529941E+01 -0.44423436972E+00  0.56949571845E+01  0.00000000000E+00 0.  1.
</event>
<event>
 7    1  0.2680581E-011  0.5052886E+02  0.7816164E-02  0.1300439E+00
        -11   -1    0    0    0    0  0.00000000000E+00  0.00000000000E+00  0.45593999997E+02  0.45594000000E+02  0.51100000000E-03 0.  1.
         11   -1    0    0    0    0 -0.00000000000E+00 -0.00000000000E+00 -0.45593999997E+02  0.45594000000E+02  0.51100000000E-03 0. -1.
    9900012    2    1    2    0    0 -0.40639996699E+02  0.11387804140E+01 -0.50902976534E+00  0.50528864940E+02  0.30000015472E+02 0.  0.
         12    1    1    2    0    0  0.40639996699E+02 -0.11387804140E+01  0.50902976534E+00  0.40659135060E+02  0.00000000000E+00 0. -1.
         11    1    3    3    0    0 -0.64545027245E+01  0.82175330148E+01  0.12732698209E+01  0.10526617242E+02  0.51100000000E-03 0. -1.
        -11    1    3    3    0    0 -0.18911035672E+02  0.13995134765E+01  0.72918960989E+01  0.20316438102E+02  0.51100000000E-03 0.  1.
         12    1    3    3    0    0 -0.15274458302E+02 -0.84782660773E+01 -0.90741956852E+01  0.19685809596E+02  0.00000000000E+00 0. -1.
</event>
<event>
 7    1  0.2680581E-011  0.5052887E+02  0.7816164E-02  0.1300439E+00
        -11   -1    0    0    0    0  0.00000000000E+00  0.00000000000E+00  0.45593999997E+02  0.45594000000E+02  0.51100000000E-03 0.  1.
         11   -1    0    0    0    0 -0.00000000000E+00 -0.00000000000E+00 -0.45593999997E+02  0.45594000000E+02  0.51100000000E-03 0. -1.
    9900012    2    1    2    0    0 -0.30465196415E+02 -0.26737993449E+02  0.31806097412E+01  0.50528871079E+02  0.30000034132E+02 0.  0.
         12    1    1    2    0    0  0.30465196415E+02  0.26737993449E+02 -0.31806097412E+01  0.40659128921E+02  0.00000000000E+00 0. -1.
         11    1    3    3    0    0 -0.14714871100E+02 -0.11022361671E+02  0.12496949800E+02  0.22230466546E+02  0.51100000000E-03 0. -1.
        -11    1    3    3    0    0 -0.21163893820E+01 -0.30202060070E+01  0.39683158924E+01  0.54174052483E+01  0.51100000000E-03 0.  1.
         12    1    3    3    0    0 -0.13633935933E+02 -0.12695425771E+02 -0.13284655951E+02  0.22880999285E+02  0.00000000000E+00 0. -1.
</event>
<event>
 7    1  0.2680581E-011  0.5052885E+02  0.7816164E-02  0.1300439E+00
        -11   -1    0    0    0    0  0.00000000000E+00  0.00000000000E+00  0.45593999997E+02  0.45594000000E+02  0.51100000000E-03 0.  1.
         11   -1    0    0    0    0 -0.00000000000E+00 -0.00000000000E+00 -0.45593999997E+02  0.45594000000E+02  0.51100000000E-03 0. -1.
    9900012    2    1    2    0    0  0.23853037381E+02 -0.30706437311E+02  0.11887549507E+02  0.50528849518E+02  0.29999968595E+02 0.  0.
         12    1    1    2    0    0 -0.23853037381E+02  0.30706437311E+02 -0.11887549507E+02  0.40659150482E+02  0.00000000000E+00 0. -1.
         11    1    3    3    0    0 -0.22289479917E+01 -0.88835278438E+01 -0.40106281688E+01  0.99985206241E+01  0.51100000000E-03 0. -1.
        -11    1    3    3    0    0  0.62726858991E+01 -0.72013169039E+01  0.12416206925E+02  0.15664218723E+02  0.51100000000E-03 0.  1.
        -12    1    3    3    0    0  0.19809299474E+02 -0.14621592563E+02  0.34819707505E+01  0.24866110171E+02  0.00000000000E+00 0.  1.
</event>
<event>
 7    1  0.2680581E-011  0.5052887E+02  0.7816164E-02  0.1300439E+00
        -11   -1    0    0    0    0  0.00000000000E+00  0.00000000000E+00  0.45593999997E+02  0.45594000000E+02  0.51100000000E-03 0.  1.
         11   -1    0    0    0    0 -0.00000000000E+00 -0.00000000000E+00 -0.45593999997E+02  0.45594000000E+02  0.51100000000E-03 0. -1.
    9900012    2    1    2    0    0 -0.48423613393E+01  0.12141518477E+02  0.38500643319E+02  0.50528874699E+02  0.30000045135E+02 0.  0.
         12    1    1    2    0    0  0.48423613393E+01 -0.12141518477E+02 -0.38500643319E+02  0.40659125301E+02  0.00000000000E+00 0. -1.
         11    1    3    3    0    0 -0.63787938387E+01  0.12165645946E+00  0.26111113125E+02  0.26879249246E+02  0.51100000000E-03 0.  1.
        -11    1    3    3    0    0 -0.37924072782E+01 -0.12490674200E+01 -0.93925884946E+00  0.41017959275E+01  0.51100000000E-03 0. -1.
        -12    1    3    3    0    0  0.53288397776E+01  0.13268929438E+02  0.13328789043E+02  0.19547829526E+02  0.00000000000E+00 0.  1.
</event>
<event>
 7    1  0.2680581E-011  0.5052886E+02  0.7816164E-02  0.1300439E+00
        -11   -1    0    0    0    0  0.00000000000E+00  0.00000000000E+00  0.45593999997E+02  0.45594000000E+02  0.51100000000E-03 0.  1.
         11   -1    0    0    0    0 -0.00000000000E+00 -0.00000000000E+00 -0.45593999997E+02  0.45594000000E+02  0.51100000000E-03 0. -1.
    9900012    2    1    2    0    0  0.26418533493E+02  0.30682107523E+02 -0.37194993398E+01  0.50528864381E+02  0.30000013771E+02 0.  0.
         12    1    1    2    0    0 -0.26418533493E+02 -0.30682107523E+02  0.37194993398E+01  0.40659135619E+02  0.00000000000E+00 0. -1.
         11    1    3    3    0    0  0.46717027742E+01  0.51857188863E+01  0.45692275432E+01  0.83423214863E+01  0.51100000000E-03 0. -1.
        -11    1    3    3    0    0  0.15500348823E+02  0.28009215890E+02 -0.67013051445E+00  0.32019151512E+02  0.51100000000E-03 0.  1.
         12    1    3    3    0    0  0.62464818963E+01 -0.25128272534E+01 -0.76185963686E+01  0.10167391382E+02  0.00000000000E+00 0. -1.
</event>
<event>
 7    1  0.2680581E-011  0.5052885E+02  0.7816164E-02  0.1300439E+00
        -11   -1    0    0    0    0  0.00000000000E+00  0.00000000000E+00  0.45593999997E+02  0.45594000000E+02  0.51100000000E-03 0. -1.
         11   -1    0    0    0    0 -0.00000000000E+00 -0.00000000000E+00 -0.45593999997E+02  0.45594000000E+02  0.51100000000E-03 0.  1.
    9900012    2    1    2    0    0 -0.14204429999E+02 -0.34683221171E+02 -0.15763071624E+02  0.50528854788E+02  0.29999984613E+02 0.  0.
         12    1    1    2    0    0  0.14204429999E+02  0.34683221171E+02  0.15763071624E+02  0.40659145212E+02  0.00000000000E+00 0. -1.
         11    1    3    3    0    0 -0.78726855886E+01  0.39912241669E+00 -0.99239556604E+00  0.79450189617E+01  0.51100000000E-03 0. -1.
        -11    1    3    3    0    0  0.61888595387E+01 -0.86547505187E+01 -0.29465911713E+01  0.11040339158E+02  0.51100000000E-03 0.  1.
        -12    1    3    3    0    0 -0.12520603949E+02 -0.26427593069E+02 -0.11824084887E+02  0.31543496668E+02  0.00000000000E+00 0.  1.
</event>
<event>
 7    1  0.2680581E-011  0.5052886E+02  0.7816164E-02  0.1300439E+00
        -11   -1    0    0    0    0  0.00000000000E+00  0.00000000000E+00  0.45593999997E+02  0.45594000000E+02  0.51100000000E-03 0. -1.
         11   -1    0    0    0    0 -0.00000000000E+00 -0.00000000000E+00 -0.45593999997E+02  0.45594000000E+02  0.51100000000E-03 0.  1.
    9900012    2    1    2    0    0 -0.34014490491E+02 -0.15427774282E+02 -0.16067467989E+02  0.50528864369E+02  0.30000013737E+02 0.  0.
         12    1    1    2    0    0  0.34014490491E+02  0.15427774282E+02  0.16067467989E+02  0.40659135631E+02  0.00000000000E+00 0. -1.
         11    1    3    3    0    0 -0.34630290688E+01 -0.42713202644E+01 -0.13283103459E+02  0.14376285504E+02  0.51100000000E-03 0. -1.
        -11    1    3    3    0    0 -0.97215377133E+01  0.30934704251E+01 -0.38198999657E+01  0.10893552717E+02  0.51100000000E-03 0.  1.
         12    1    3    3    0    0 -0.20829923709E+02 -0.14249924443E+02  0.10355354356E+01  0.25259026149E+02  0.00000000000E+00 0. -1.
</event>
<event>
 7    1  0.2680581E-011  0.5052886E+02  0.7816164E-02  0.1300439E+00
        -11   -1    0    0    0    0  0.00000000000E+00  0.00000000000E+00  0.45593999997E+02  0.45594000000E+02  0.51100000000E-03 0.  1.
         11   -1    0    0    0    0 -0.00000000000E+00 -0.00000000000E+00 -0.45593999997E+02  0.45594000000E+02  0.51100000000E-03 0. -1.
    9900012    2    1    2    0    0  0.70063862181E+01  0.39892689875E+02  0.35566528253E+01  0.50528856715E+02  0.29999990472E+02 0.  0.
         12    1    1    2    0    0 -0.70063862181E+01 -0.39892689875E+02 -0.35566528253E+01  0.40659143285E+02  0.00000000000E+00 0. -1.
         11    1    3    3    0    0 -0.37852530962E+00 -0.23538075206E+01 -0.17588657195E+01  0.29626508628E+01  0.51100000000E-03 0. -1.
        -11    1    3    3    0    0 -0.61800077111E+01  0.19448733725E+02 -0.47865412249E+00  0.20412614943E+02  0.51100000000E-03 0.  1.
         12    1    3    3    0    0  0.13564919239E+02  0.22797763671E+02  0.57941726673E+01  0.27153590909E+02  0.00000000000E+00 0. -1.
</event>
<event>
 7    1  0.2680581E-011  0.5052886E+02  0.7816164E-02  0.1300439E+00
        -11   -1    0    0    0    0  0.00000000000E+00  0.00000000000E+00  0.45593999997E+02  0.45594000000E+02  0.51100000000E-03 0.  1.
         11   -1    0    0    0    0 -0.00000000000E+00 -0.00000000000E+00 -0.45593999997E+02  0.45594000000E+02  0.51100000000E-03 0. -1.
    9900012    2    1    2    0    0  0.32830495888E+02 -0.20870356355E+02 -0.11821704279E+02  0.50528856788E+02  0.29999990693E+02 0.  0.
         12    1    1    2    0    0 -0.32830495888E+02  0.20870356355E+02  0.11821704279E+02  0.40659143212E+02  0.00000000000E+00 0. -1.
         11    1    3    3    0    0  0.24623016080E+02 -0.20006944139E+02  0.34268232990E+01  0.31911030269E+02  0.51100000000E-03 0. -1.
        -11    1    3    3    0    0  0.48835410389E+01 -0.34302122658E+00 -0.26276052364E+01  0.55561629007E+01  0.51100000000E-03 0.  1.
         12    1    3    3    0    0  0.33239387697E+01 -0.52039099019E+00 -0.12620922342E+02  0.13061663618E+02  0.00000000000E+00 0. -1.
</event>
<event>
 7    1  0.2680581E-011  0.5052886E+02  0.7816164E-02  0.1300439E+00
        -11   -1    0    0    0    0  0.00000000000E+00  0.00000000000E+00  0.45593999997E+02  0.45594000000E+02  0.51100000000E-03 0.  1.
         11   -1    0    0    0    0 -0.00000000000E+00 -0.00000000000E+00 -0.45593999997E+02  0.45594000000E+02  0.51100000000E-03 0. -1.
    9900012    2    1    2    0    0 -0.38499916447E+02 -0.97371273275E+00  0.13037409240E+02  0.50528859299E+02  0.29999998324E+02 0.  0.
         12    1    1    2    0    0  0.38499916447E+02  0.97371273275E+00 -0.13037409240E+02  0.40659140701E+02  0.00000000000E+00 0. -1.
         11    1    3    3    0    0 -0.19183381222E+01 -0.48884827586E+01  0.84165094047E+01  0.99204292071E+01  0.51100000000E-03 0. -1.
        -11    1    3    3    0    0 -0.16038088528E+02 -0.63060027814E+01  0.38050939469E+01  0.17648362386E+02  0.51100000000E-03 0.  1.
         12    1    3    3    0    0 -0.20543489796E+02  0.10220772807E+02  0.81580588837E+00  0.22960067705E+02  0.00000000000E+00 0. -1.
</event>
<event>
 7    1  0.2680581E-011  0.5052886E+02  0.7816164E-02  0.1300439E+00
        -11   -1    0    0    0    0  0.00000000000E+00  0.00000000000E+00  0.45593999997E+02  0.45594000000E+02  0.51100000000E-03 0.  1.
         11   -1    0    0    0    0 -0.00000000000E+00 -0.00000000000E+00 -0.45593999997E+02  0.45594000000E+02  0.51100000000E-03 0. -1.
    9900012    2    1    2    0    0 -0.31318561167E+02  0.12944786672E+02  0.22466556861E+02  0.50528856468E+02  0.29999989720E+02 0.  0.
         12    1    1    2    0    0  0.31318561167E+02 -0.12944786672E+02 -0.22466556861E+02  0.40659143532E+02  0.00000000000E+00 0. -1.
         11    1    3    3    0    0 -0.21983402478E+01 -0.12877893148E+01 -0.45548828256E+01  0.52190093869E+01  0.51100000000E-03 0. -1.
        -11    1    3    3    0    0 -0.41758268193E+01 -0.30441282590E+01  0.79140605907E+01  0.94518041546E+01  0.51100000000E-03 0.  1.
         12    1    3    3    0    0 -0.24944394100E+02  0.17276704246E+02  0.19107379096E+02  0.35858042927E+02  0.00000000000E+00 0. -1.
</event>
<event>
 7    1  0.2680581E-011  0.5052888E+02  0.7816164E-02  0.1300439E+00
        -11   -1    0    0    0    0  0.00000000000E+00  0.00000000000E+00  0.45593999997E+02  0.45594000000E+02  0.51100000000E-03 0.  1.
         11   -1    0    0    0    0 -0.00000000000E+00 -0.00000000000E+00 -0.45593999997E+02  0.45594000000E+02  0.51100000000E-03 0. -1.
    9900012    2    1    2    0    0  0.34250362140E+02  0.15422723856E+02  0.15563312664E+02  0.50528875330E+02  0.30000047053E+02 0.  0.
         12    1    1    2    0    0 -0.34250362140E+02 -0.15422723856E+02 -0.15563312664E+02  0.40659124670E+02  0.00000000000E+00 0. -1.
         11    1    3    3    0    0  0.17227907518E+02  0.71830330740E+01  0.30832668496E+01  0.18918332282E+02  0.51100000000E-03 0.  1.
        -11    1    3    3    0    0  0.71280956908E+01  0.13664953464E+02  0.13215493258E+02  0.20302462010E+02  0.51100000000E-03 0. -1.
         12    1    3    3    0    0  0.98943589315E+01 -0.54252626819E+01 -0.73544744402E+00  0.11308081039E+02  0.00000000000E+00 0. -1.
</event>
<event>
 7    1  0.2680581E-011  0.5052887E+02  0.7816164E-02  0.1300439E+00
        -11   -1    0    0    0    0  0.00000000000E+00  0.00000000000E+00  0.45593999997E+02  0.45594000000E+02  0.51100000000E-03 0. -1.
         11   -1    0    0    0    0 -0.00000000000E+00 -0.00000000000E+00 -0.45593999997E+02  0.45594000000E+02  0.51100000000E-03 0.  1.
    9900012    2    1    2    0    0 -0.18949149129E+02  0.55787719585E+01 -0.35538319287E+02  0.50528867114E+02  0.30000022081E+02 0.  0.
         12    1    1    2    0    0  0.18949149129E+02 -0.55787719585E+01  0.35538319287E+02  0.40659132886E+02  0.00000000000E+00 0. -1.
         11    1    3    3    0    0 -0.93356073629E+01  0.12496321183E+02 -0.97280261131E+01  0.18383310373E+02  0.51100000000E-03 0. -1.
        -11    1    3    3    0    0 -0.11693307787E+02  0.22766683292E-01 -0.13487834571E+02  0.17850928463E+02  0.51100000000E-03 0.  1.
        -12    1    3    3    0    0  0.20797660212E+01 -0.69403159076E+01 -0.12322458603E+02  0.14294628279E+02  0.00000000000E+00 0.  1.
</event>
<event>
 7    1  0.2680581E-011  0.5052886E+02  0.7816164E-02  0.1300439E+00
        -11   -1    0    0    0    0  0.00000000000E+00  0.00000000000E+00  0.45593999997E+02  0.45594000000E+02  0.51100000000E-03 0.  1.
         11   -1    0    0    0    0 -0.00000000000E+00 -0.00000000000E+00 -0.45593999997E+02  0.45594000000E+02  0.51100000000E-03 0. -1.
    9900012    2    1    2    0    0 -0.72143348901E+01  0.38783126641E+02  0.98482364185E+01  0.50528864489E+02  0.30000014100E+02 0.  0.
         12    1    1    2    0    0  0.72143348901E+01 -0.38783126641E+02 -0.98482364185E+01  0.40659135511E+02  0.00000000000E+00 0. -1.
         11    1    3    3    0    0 -0.55257379859E+01  0.28238130399E+01 -0.24632170223E+01  0.66764615428E+01  0.51100000000E-03 0. -1.
        -11    1    3    3    0    0 -0.31092944402E+01  0.22789388807E+02 -0.34565851758E+01  0.23258803397E+02  0.51100000000E-03 0.  1.
        -12    1    3    3    0    0  0.14206975359E+01  0.13169924794E+02  0.15768038617E+02  0.20593599549E+02  0.00000000000E+00 0.  1.
</event>
<event>
 7    1  0.2680581E-011  0.5052884E+02  0.7816164E-02  0.1300439E+00
        -11   -1    0    0    0    0  0.00000000000E+00  0.00000000000E+00  0.45593999997E+02  0.45594000000E+02  0.51100000000E-03 0.  1.
         11   -1    0    0    0    0 -0.00000000000E+00 -0.00000000000E+00 -0.45593999997E+02  0.45594000000E+02  0.51100000000E-03 0. -1.
    9900012    2    1    2    0    0  0.19623151524E+02  0.33823510029E+02  0.11138660340E+02  0.50528835467E+02  0.29999925884E+02 0.  0.
         12    1    1    2    0    0 -0.19623151524E+02 -0.33823510029E+02 -0.11138660340E+02  0.40659164533E+02  0.00000000000E+00 0. -1.
         11    1    3    3    0    0  0.60275279193E+01  0.51552608961E+01  0.12151297505E+02  0.14510749087E+02  0.51100000000E-03 0. -1.
        -11    1    3    3    0    0  0.87138548815E+01  0.12789035980E+02  0.76714424695E+01  0.17272571842E+02  0.51100000000E-03 0.  1.
         12    1    3    3    0    0  0.48817687229E+01  0.15879213152E+02 -0.86840796351E+01  0.18745514538E+02  0.00000000000E+00 0. -1.
</event>
<event>
 7    1  0.2680581E-011  0.5052886E+02  0.7816164E-02  0.1300439E+00
        -11   -1    0    0    0    0  0.00000000000E+00  0.00000000000E+00  0.45593999997E+02  0.45594000000E+02  0.51100000000E-03 0. -1.
         11   -1    0    0    0    0 -0.00000000000E+00 -0.00000000000E+00 -0.45593999997E+02  0.45594000000E+02  0.51100000000E-03 0.  1.
    9900012    2    1    2    0    0  0.66358166074E+01 -0.40045028333E+02 -0.23510155448E+01  0.50528860433E+02  0.30000001772E+02 0.  0.
         12    1    1    2    0    0 -0.66358166074E+01  0.40045028333E+02  0.23510155448E+01  0.40659139567E+02  0.00000000000E+00 0. -1.
         11    1    3    3    0    0  0.39817078810E+00  0.72393741748E+00  0.15343771912E+01  0.17426815507E+01  0.51100000000E-03 0. -1.
        -11    1    3    3    0    0  0.15872271906E+02 -0.22910514345E+02  0.10924226612E+01  0.27892903587E+02  0.51100000000E-03 0.  1.
        -12    1    3    3    0    0 -0.96346260865E+01 -0.17858451406E+02 -0.49778153973E+01  0.20893275295E+02  0.00000000000E+00 0.  1.
</event>
<event>
 7    1  0.2680581E-011  0.5052886E+02  0.7816164E-02  0.1300439E+00
        -11   -1    0    0    0    0  0.00000000000E+00  0.00000000000E+00  0.45593999997E+02  0.45594000000E+02  0.51100000000E-03 0.  1.
         11   -1    0    0    0    0 -0.00000000000E+00 -0.00000000000E+00 -0.45593999997E+02  0.45594000000E+02  0.51100000000E-03 0. -1.
    9900012    2    1    2    0    0  0.27402238975E+02  0.48135671626E+01  0.29649827957E+02  0.50528862927E+02  0.30000009353E+02 0.  0.
         12    1    1    2    0    0 -0.27402238975E+02 -0.48135671626E+01 -0.29649827957E+02  0.40659137073E+02  0.00000000000E+00 0. -1.
         11    1    3    3    0    0  0.77282082026E+01 -0.83002710313E+01  0.17188824779E+02  0.20593091044E+02  0.51100000000E-03 0. -1.
        -11    1    3    3    0    0  0.53228262034E-01  0.16344044239E+01 -0.23069433043E+01  0.28277373887E+01  0.51100000000E-03 0.  1.
        -12    1    3    3    0    0  0.19620802510E+02  0.11479433770E+02  0.14767946482E+02  0.27108034494E+02  0.00000000000E+00 0.  1.
</event>
<event>
 7    1  0.2680581E-011  0.5052887E+02  0.7816164E-02  0.1300439E+00
        -11   -1    0    0    0    0  0.00000000000E+00  0.00000000000E+00  0.45593999997E+02  0.45594000000E+02  0.51100000000E-03 0.  1.
         11   -1    0    0    0    0 -0.00000000000E+00 -0.00000000000E+00 -0.45593999997E+02  0.45594000000E+02  0.51100000000E-03 0. -1.
    9900012    2    1    2    0    0  0.32839791940E+02  0.22496998970E+02  0.82823796490E+01  0.50528871751E+02  0.30000036175E+02 0.  0.
         12    1    1    2    0    0 -0.32839791940E+02 -0.22496998970E+02 -0.82823796490E+01  0.40659128249E+02  0.00000000000E+00 0. -1.
         11    1    3    3    0    0  0.62563139251E+01 -0.22931986858E+01 -0.30232860729E+01  0.73171362624E+01  0.51100000000E-03 0. -1.
        -11    1    3    3    0    0  0.13680036051E+01  0.84591605357E+01 -0.40441131331E+01  0.94754251686E+01  0.51100000000E-03 0.  1.
         12    1    3    3    0    0  0.25215474410E+02  0.16331037120E+02  0.15349778855E+02  0.33736310320E+02  0.00000000000E+00 0. -1.
</event>
<event>
 7    1  0.2680581E-011  0.5052885E+02  0.7816164E-02  0.1300439E+00
        -11   -1    0    0    0    0  0.00000000000E+00  0.00000000000E+00  0.45593999997E+02  0.45594000000E+02  0.51100000000E-03 0.  1.
         11   -1    0    0    0    0 -0.00000000000E+00 -0.00000000000E+00 -0.45593999997E+02  0.45594000000E+02  0.51100000000E-03 0. -1.
    9900012    2    1    2    0    0  0.16440549745E+02 -0.23527475055E+01  0.37112518259E+02  0.50528854556E+02  0.29999983909E+02 0.  0.
         12    1    1    2    0    0 -0.16440549745E+02  0.23527475055E+01 -0.37112518259E+02  0.40659145444E+02  0.00000000000E+00 0. -1.
         11    1    3    3    0    0 -0.31592831840E+01  0.47152741660E+01  0.11969680109E+02  0.13247193018E+02  0.51100000000E-03 0. -1.
        -11    1    3    3    0    0  0.14363585292E+02  0.35260169839E+01  0.18634481665E+02  0.23790529322E+02  0.51100000000E-03 0.  1.
        -12    1    3    3    0    0  0.52362476370E+01 -0.10594038655E+02  0.65083564845E+01  0.13491132216E+02  0.00000000000E+00 0.  1.
</event>
<event>
 7    1  0.2680581E-011  0.5052877E+02  0.7816164E-02  0.1300439E+00
        -11   -1    0    0    0    0  0.00000000000E+00  0.00000000000E+00  0.45593999997E+02  0.45594000000E+02  0.51100000000E-03 0.  1.
         11   -1    0    0    0    0 -0.00000000000E+00 -0.00000000000E+00 -0.45593999997E+02  0.45594000000E+02  0.51100000000E-03 0. -1.
    9900012    2    1    2    0    0 -0.13607648457E+02 -0.38294670609E+02  0.12340637601E+01  0.50528772179E+02  0.29999733515E+02 0.  0.
         12    1    1    2    0    0  0.13607648457E+02  0.38294670609E+02 -0.12340637601E+01  0.40659227821E+02  0.00000000000E+00 0. -1.
         11    1    3    3    0    0 -0.53149230974E+01 -0.15681953833E+01 -0.15608616458E+01  0.57570768303E+01  0.51100000000E-03 0.  1.
        -11    1    3    3    0    0  0.26276633004E+01 -0.85257013239E+01 -0.86602317986E+01  0.12433495589E+02  0.51100000000E-03 0. -1.
         12    1    3    3    0    0 -0.10920388660E+02 -0.28200773902E+02  0.11455157205E+02  0.32338199760E+02  0.00000000000E+00 0. -1.
</event>
<event>
 7    1  0.2680581E-011  0.5052886E+02  0.7816164E-02  0.1300439E+00
        -11   -1    0    0    0    0  0.00000000000E+00  0.00000000000E+00  0.45593999997E+02  0.45594000000E+02  0.51100000000E-03 0.  1.
         11   -1    0    0    0    0 -0.00000000000E+00 -0.00000000000E+00 -0.45593999997E+02  0.45594000000E+02  0.51100000000E-03 0. -1.
    9900012    2    1    2    0    0 -0.10385735285E+02 -0.25840884621E+02  0.29623483601E+02  0.50528860854E+02  0.30000003052E+02 0.  0.
         12    1    1    2    0    0  0.10385735285E+02  0.25840884621E+02 -0.29623483601E+02  0.40659139146E+02  0.00000000000E+00 0. -1.
         11    1    3    3    0    0  0.44657288167E+01 -0.10170594204E+02  0.21561968103E+02  0.24254941539E+02  0.51100000000E-03 0. -1.
        -11    1    3    3    0    0  0.10998032831E+01 -0.46085335012E+01  0.45079446939E+01  0.65398558024E+01  0.51100000000E-03 0.  1.
         12    1    3    3    0    0 -0.15951267385E+02 -0.11061756916E+02  0.35535708043E+01  0.19734063512E+02  0.00000000000E+00 0. -1.
</event>
<event>
 7    1  0.2680581E-011  0.5052886E+02  0.7816164E-02  0.1300439E+00
        -11   -1    0    0    0    0  0.00000000000E+00  0.00000000000E+00  0.45593999997E+02  0.45594000000E+02  0.51100000000E-03 0.  1.
         11   -1    0    0    0    0 -0.00000000000E+00 -0.00000000000E+00 -0.45593999997E+02  0.45594000000E+02  0.51100000000E-03 0. -1.
    9900012    2    1    2    0    0  0.30713082885E+02  0.84608651801E+01  0.25264319517E+02  0.50528861537E+02  0.30000005129E+02 0.  0.
         12    1    1    2    0    0 -0.30713082885E+02 -0.84608651801E+01 -0.25264319517E+02  0.40659138463E+02  0.00000000000E+00 0. -1.
         11    1    3    3    0    0  0.57402482095E+01  0.97661238506E+01  0.86115806328E+01  0.14229790787E+02  0.51100000000E-03 0. -1.
        -11    1    3    3    0    0  0.48706218224E+01  0.82338651511E+01  0.23601041176E+01  0.98534046893E+01  0.51100000000E-03 0.  1.
         12    1    3    3    0    0  0.20102212853E+02 -0.95391238217E+01  0.14292634766E+02  0.26445666061E+02  0.00000000000E+00 0. -1.
</event>
<event>
 7    1  0.2680581E-011  0.5052888E+02  0.7816164E-02  0.1300439E+00
        -11   -1    0    0    0    0  0.00000000000E+00  0.00000000000E+00  0.45593999997E+02  0.45594000000E+02  0.51100000000E-03 0. -1.
         11   -1    0    0    0    0 -0.00000000000E+00 -0.00000000000E+00 -0.45593999997E+02  0.45594000000E+02  0.51100000000E-03 0.  1.
    9900012    2    1    2    0    0 -0.28200398749E+02  0.24981892300E+02 -0.15290733902E+02  0.50528880780E+02  0.30000063619E+02 0.  0.
         12    1    1    2    0    0  0.28200398749E+02 -0.24981892300E+02  0.15290733902E+02  0.40659119220E+02  0.00000000000E+00 0. -1.
         11    1    3    3    0    0 -0.16737087180E+01  0.95066378936E+00 -0.10149733330E+02  0.10330641289E+02  0.51100000000E-03 0. -1.
        -11    1    3    3    0    0  0.12868338154E+01  0.20197118577E+01  0.29677373005E+01  0.38134816379E+01  0.51100000000E-03 0.  1.
        -12    1    3    3    0    0 -0.27813523846E+02  0.22011516653E+02 -0.81087378726E+01  0.36384757853E+02  0.00000000000E+00 0.  1.
</event>
<event>
 7    1  0.2680581E-011  0.5052876E+02  0.7816164E-02  0.1300439E+00
        -11   -1    0    0    0    0  0.00000000000E+00  0.00000000000E+00  0.45593999997E+02  0.45594000000E+02  0.51100000000E-03 0. -1.
         11   -1    0    0    0    0 -0.00000000000E+00 -0.00000000000E+00 -0.45593999997E+02  0.45594000000E+02  0.51100000000E-03 0.  1.
    9900012    2    1    2    0    0  0.28760179387E+02 -0.24972980050E+02 -0.14225888814E+02  0.50528762876E+02  0.29999705237E+02 0.  0.
         12    1    1    2    0    0 -0.28760179387E+02  0.24972980050E+02  0.14225888814E+02  0.40659237124E+02  0.00000000000E+00 0. -1.
         11    1    3    3    0    0  0.17400127110E+02 -0.34106641055E+00 -0.52112865231E+01  0.18166955090E+02  0.51100000000E-03 0. -1.
        -11    1    3    3    0    0  0.98782105548E+01 -0.91778782131E+01 -0.10027825073E+02  0.16803861705E+02  0.51100000000E-03 0.  1.
         12    1    3    3    0    0  0.14818417214E+01 -0.15454035426E+02  0.10132227818E+01  0.15557946081E+02  0.00000000000E+00 0. -1.
</event>
<event>
 7    1  0.2680581E-011  0.5052887E+02  0.7816164E-02  0.1300439E+00
        -11   -1    0    0    0    0  0.00000000000E+00  0.00000000000E+00  0.45593999997E+02  0.45594000000E+02  0.51100000000E-03 0.  1.
         11   -1    0    0    0    0 -0.00000000000E+00 -0.00000000000E+00 -0.45593999997E+02  0.45594000000E+02  0.51100000000E-03 0. -1.
    9900012    2    1    2    0    0  0.48202235841E+01  0.18056701371E+02  0.36109358776E+02  0.50528870508E+02  0.30000032396E+02 0.  0.
         12    1    1    2    0    0 -0.48202235841E+01 -0.18056701371E+02 -0.36109358776E+02  0.40659129492E+02  0.00000000000E+00 0. -1.
         11    1    3    3    0    0  0.47779629255E+01 -0.37381538833E+01  0.61651928213E+00  0.60977717618E+01  0.51100000000E-03 0. -1.
        -11    1    3    3    0    0 -0.55345042564E+01  0.23174015269E+01  0.49442312843E+01  0.77747353946E+01  0.51100000000E-03 0.  1.
        -12    1    3    3    0    0  0.55767649151E+01  0.19477453727E+02  0.30548608210E+02  0.36656363352E+02  0.00000000000E+00 0.  1.
</event>
<event>
 7    1  0.2680581E-011  0.5052885E+02  0.7816164E-02  0.1300439E+00
        -11   -1    0    0    0    0  0.00000000000E+00  0.00000000000E+00  0.45593999997E+02  0.45594000000E+02  0.51100000000E-03 0.  1.
         11   -1    0    0    0    0 -0.00000000000E+00 -0.00000000000E+00 -0.45593999997E+02  0.45594000000E+02  0.51100000000E-03 0. -1.
    9900012    2    1    2    0    0  0.13002591952E+02 -0.46918871208E+01  0.38237222899E+02  0.50528850755E+02  0.29999972356E+02 0.  0.
         12    1    1    2    0    0 -0.13002591952E+02  0.46918871208E+01 -0.38237222899E+02  0.40659149245E+02  0.00000000000E+00 0. -1.
         11    1    3    3    0    0  0.32840115471E+01  0.27774688544E+01 -0.61744859017E+00  0.43451476501E+01  0.51100000000E-03 0. -1.
        -11    1    3    3    0    0  0.79261754839E+01  0.36676398625E+01  0.41073464194E+01  0.96512245251E+01  0.51100000000E-03 0.  1.
        -12    1    3    3    0    0  0.17924049210E+01 -0.11136995838E+02  0.34747325070E+02  0.36532478580E+02  0.00000000000E+00 0.  1.
</event>
<event>
 7    1  0.2680581E-011  0.5052886E+02  0.7816164E-02  0.1300439E+00
        -11   -1    0    0    0    0  0.00000000000E+00  0.00000000000E+00  0.45593999997E+02  0.45594000000E+02  0.51100000000E-03 0.  1.
         11   -1    0    0    0    0 -0.00000000000E+00 -0.00000000000E+00 -0.45593999997E+02  0.45594000000E+02  0.51100000000E-03 0. -1.
    9900012    2    1    2    0    0  0.29516544647E+02 -0.22746207126E+02  0.16264975380E+02  0.50528858708E+02  0.29999996530E+02 0.  0.
         12    1    1    2    0    0 -0.29516544647E+02  0.22746207126E+02 -0.16264975380E+02  0.40659141292E+02  0.00000000000E+00 0. -1.
         11    1    3    3    0    0 -0.13334207235E+01 -0.81420226702E+01  0.27569742718E+01  0.86989339223E+01  0.51100000000E-03 0. -1.
        -11    1    3    3    0    0  0.20610329863E+02 -0.17054977186E+02  0.15779524472E+02  0.31058836693E+02  0.51100000000E-03 0.  1.
        -12    1    3    3    0    0  0.10239635507E+02  0.24507927306E+01 -0.22715233637E+01  0.10771088093E+02  0.00000000000E+00 0.  1.
</event>
<event>
 7    1  0.2680581E-011  0.5052889E+02  0.7816164E-02  0.1300439E+00
        -11   -1    0    0    0    0  0.00000000000E+00  0.00000000000E+00  0.45593999997E+02  0.45594000000E+02  0.51100000000E-03 0. -1.
         11   -1    0    0    0    0 -0.00000000000E+00 -0.00000000000E+00 -0.45593999997E+02  0.45594000000E+02  0.51100000000E-03 0.  1.
    9900012    2    1    2    0    0 -0.84495639300E+00  0.32498548819E+02 -0.24419128136E+02  0.50528887300E+02  0.30000083438E+02 0.  0.
         12    1    1    2    0    0  0.84495639300E+00 -0.32498548819E+02  0.24419128136E+02  0.40659112700E+02  0.00000000000E+00 0. -1.
         11    1    3    3    0    0  0.11420392787E+01  0.11726183002E+02 -0.10465327319E+02  0.15758511912E+02  0.51100000000E-03 0.  1.
        -11    1    3    3    0    0  0.65784997477E+01  0.17772532155E+02 -0.10309180806E+01  0.18978997615E+02  0.51100000000E-03 0. -1.
        -12    1    3    3    0    0 -0.85654954194E+01  0.29998336619E+01 -0.12922882736E+02  0.15791377773E+02  0.00000000000E+00 0.  1.
</event>
<event>
 7    1  0.2680581E-011  0.5052886E+02  0.7816164E-02  0.1300439E+00
        -11   -1    0    0    0    0  0.00000000000E+00  0.00000000000E+00  0.45593999997E+02  0.45594000000E+02  0.51100000000E-03 0.  1.
         11   -1    0    0    0    0 -0.00000000000E+00 -0.00000000000E+00 -0.45593999997E+02  0.45594000000E+02  0.51100000000E-03 0. -1.
    9900012    2    1    2    0    0 -0.13785082441E+02 -0.54180779804E+01  0.37865313248E+02  0.50528855712E+02  0.29999987422E+02 0.  0.
         12    1    1    2    0    0  0.13785082441E+02  0.54180779804E+01 -0.37865313248E+02  0.40659144288E+02  0.00000000000E+00 0. -1.
         11    1    3    3    0    0 -0.11361872720E+01  0.21863528961E+01  0.94716734884E+01  0.97869126610E+01  0.51100000000E-03 0.  1.
        -11    1    3    3    0    0 -0.68564687100E+00 -0.12909725364E+02  0.23401978753E+02  0.26735439596E+02  0.51100000000E-03 0. -1.
         12    1    3    3    0    0 -0.11963248298E+02  0.53052944871E+01  0.49916610062E+01  0.14006503455E+02  0.00000000000E+00 0. -1.
</event>
<event>
 7    1  0.2680581E-011  0.5052886E+02  0.7816164E-02  0.1300439E+00
        -11   -1    0    0    0    0  0.00000000000E+00  0.00000000000E+00  0.45593999997E+02  0.45594000000E+02  0.51100000000E-03 0.  1.
         11   -1    0    0    0    0 -0.00000000000E+00 -0.00000000000E+00 -0.45593999997E+02  0.45594000000E+02  0.51100000000E-03 0. -1.
    9900012    2    1    2    0    0 -0.96041373429E+01 -0.21183750860E+02  0.33349283761E+02  0.50528862257E+02  0.30000007317E+02 0.  0.
         12    1    1    2    0    0  0.96041373429E+01  0.21183750860E+02 -0.33349283761E+02  0.40659137743E+02  0.00000000000E+00 0. -1.
         11    1    3    3    0    0 -0.56461795677E+01 -0.27760864163E+01  0.35602863251E+01  0.72292211530E+01  0.51100000000E-03 0. -1.
        -11    1    3    3    0    0 -0.69106547176E+01 -0.13908795167E+02  0.33389547782E+02  0.36824905064E+02  0.51100000000E-03 0.  1.
         12    1    3    3    0    0  0.29526969424E+01 -0.44988692766E+01 -0.36005503455E+01  0.64747360403E+01  0.00000000000E+00 0. -1.
</event>
<event>
 7    1  0.2680581E-011  0.5052886E+02  0.7816164E-02  0.1300439E+00
        -11   -1    0    0    0    0  0.00000000000E+00  0.00000000000E+00  0.45593999997E+02  0.45594000000E+02  0.51100000000E-03 0. -1.
         11   -1    0    0    0    0 -0.00000000000E+00 -0.00000000000E+00 -0.45593999997E+02  0.45594000000E+02  0.51100000000E-03 0.  1.
    9900012    2    1    2    0    0  0.18072623763E+02 -0.11480481996E+02 -0.34565075828E+02  0.50528860025E+02  0.30000000531E+02 0.  0.
         12    1    1    2    0    0 -0.18072623763E+02  0.11480481996E+02  0.34565075828E+02  0.40659139975E+02  0.00000000000E+00 0. -1.
         11    1    3    3    0    0  0.50626795224E+01 -0.63929798178E+01  0.12505766465E+01  0.82501428537E+01  0.51100000000E-03 0. -1.
        -11    1    3    3    0    0  0.14009015010E+02 -0.17554708783E+01 -0.12976336936E+02  0.19176013665E+02  0.51100000000E-03 0.  1.
        -12    1    3    3    0    0 -0.99907076994E+00 -0.33320313000E+01 -0.22839315539E+02  0.23102703506E+02  0.00000000000E+00 0.  1.
</event>
<event>
 7    1  0.2680581E-011  0.5052894E+02  0.7816164E-02  0.1300439E+00
        -11   -1    0    0    0    0  0.00000000000E+00  0.00000000000E+00  0.45593999997E+02  0.45594000000E+02  0.51100000000E-03 0.  1.
         11   -1    0    0    0    0 -0.00000000000E+00 -0.00000000000E+00 -0.45593999997E+02  0.45594000000E+02  0.51100000000E-03 0. -1.
    9900012    2    1    2    0    0  0.34203951404E+01 -0.37310479074E+02  0.15792026100E+02  0.50528941476E+02  0.30000248110E+02 0.  0.
         12    1    1    2    0    0 -0.34203951404E+01  0.37310479074E+02 -0.15792026100E+02  0.40659058524E+02  0.00000000000E+00 0. -1.
         11    1    3    3    0    0 -0.26623286410E+01 -0.57438336454E+00 -0.18490370929E+01  0.32919368879E+01  0.51100000000E-03 0. -1.
        -11    1    3    3    0    0 -0.45487287165E+01 -0.30445728931E+02  0.16240155124E+02  0.34804826990E+02  0.51100000000E-03 0.  1.
         12    1    3    3    0    0  0.10631452498E+02 -0.62903667788E+01  0.14009080697E+01  0.12432177599E+02  0.00000000000E+00 0. -1.
</event>
<event>
 7    1  0.2680581E-011  0.5052886E+02  0.7816164E-02  0.1300439E+00
        -11   -1    0    0    0    0  0.00000000000E+00  0.00000000000E+00  0.45593999997E+02  0.45594000000E+02  0.51100000000E-03 0.  1.
         11   -1    0    0    0    0 -0.00000000000E+00 -0.00000000000E+00 -0.45593999997E+02  0.45594000000E+02  0.51100000000E-03 0. -1.
    9900012    2    1    2    0    0  0.23513036092E+02  0.31888768922E+02 -0.91328575344E+01  0.50528861588E+02  0.30000005283E+02 0.  0.
         12    1    1    2    0    0 -0.23513036092E+02 -0.31888768922E+02  0.91328575344E+01  0.40659138412E+02  0.00000000000E+00 0. -1.
         11    1    3    3    0    0  0.12735313711E+02  0.62221016118E+01  0.28381358726E+01  0.14455371987E+02  0.51100000000E-03 0. -1.
        -11    1    3    3    0    0  0.11784641286E+02  0.26651173919E+02 -0.57591892181E+01  0.29704058682E+02  0.51100000000E-03 0.  1.
         12    1    3    3    0    0 -0.10069189052E+01 -0.98450660861E+00 -0.62118041889E+01  0.63694309184E+01  0.00000000000E+00 0. -1.
</event>
<event>
 7    1  0.2680581E-011  0.5052883E+02  0.7816164E-02  0.1300439E+00
        -11   -1    0    0    0    0  0.00000000000E+00  0.00000000000E+00  0.45593999997E+02  0.45594000000E+02  0.51100000000E-03 0. -1.
         11   -1    0    0    0    0 -0.00000000000E+00 -0.00000000000E+00 -0.45593999997E+02  0.45594000000E+02  0.51100000000E-03 0.  1.
    9900012    2    1    2    0    0  0.81470238006E-01 -0.34651240171E+02 -0.21270938471E+02  0.50528832445E+02  0.29999916701E+02 0.  0.
         12    1    1    2    0    0 -0.81470238006E-01  0.34651240171E+02  0.21270938471E+02  0.40659167555E+02  0.00000000000E+00 0. -1.
         11    1    3    3    0    0 -0.21375831646E+01  0.27385468086E+00  0.40405954284E+01  0.45793743949E+01  0.51100000000E-03 0. -1.
        -11    1    3    3    0    0  0.56830495859E+01 -0.43600894347E+01 -0.76460752126E+01  0.10477113099E+02  0.51100000000E-03 0.  1.
         12    1    3    3    0    0 -0.34639961833E+01 -0.30565005417E+02 -0.17665458687E+02  0.35472344951E+02  0.00000000000E+00 0. -1.
</event>
<event>
 7    1  0.2680581E-011  0.5052877E+02  0.7816164E-02  0.1300439E+00
        -11   -1    0    0    0    0  0.00000000000E+00  0.00000000000E+00  0.45593999997E+02  0.45594000000E+02  0.51100000000E-03 0.  1.
         11   -1    0    0    0    0 -0.00000000000E+00 -0.00000000000E+00 -0.45593999997E+02  0.45594000000E+02  0.51100000000E-03 0. -1.
    9900012    2    1    2    0    0 -0.28941237930E+02 -0.13300714866E+02  0.25271891049E+02  0.50528772929E+02  0.29999735793E+02 0.  0.
         12    1    1    2    0    0  0.28941237930E+02  0.13300714866E+02 -0.25271891049E+02  0.40659227071E+02  0.00000000000E+00 0. -1.
         11    1    3    3    0    0 -0.10717843132E+02  0.43845607397E+01  0.94615342783E+01  0.14953834473E+02  0.51100000000E-03 0.  1.
        -11    1    3    3    0    0 -0.10216089757E+02 -0.67267041594E+01  0.18065109424E+02  0.21816627089E+02  0.51100000000E-03 0. -1.
         12    1    3    3    0    0 -0.80073050403E+01 -0.10958571446E+02 -0.22547526528E+01  0.13758311367E+02  0.00000000000E+00 0. -1.
</event>
<event>
 7    1  0.2680581E-011  0.5052886E+02  0.7816164E-02  0.1300439E+00
        -11   -1    0    0    0    0  0.00000000000E+00  0.00000000000E+00  0.45593999997E+02  0.45594000000E+02  0.51100000000E-03 0. -1.
         11   -1    0    0    0    0 -0.00000000000E+00 -0.00000000000E+00 -0.45593999997E+02  0.45594000000E+02  0.51100000000E-03 0.  1.
    9900012    2    1    2    0    0  0.17327971452E+02 -0.34931002870E+02 -0.11520948141E+02  0.50528858320E+02  0.29999995349E+02 0.  0.
         12    1    1    2    0    0 -0.17327971452E+02  0.34931002870E+02  0.11520948141E+02  0.40659141680E+02  0.00000000000E+00 0. -1.
         11    1    3    3    0    0  0.10260929002E+01 -0.19213381259E+02 -0.14384084236E+02  0.24023088179E+02  0.51100000000E-03 0.  1.
        -11    1    3    3    0    0  0.10497181057E+02 -0.11917554603E+02 -0.43816087113E+01  0.16474750773E+02  0.51100000000E-03 0. -1.
         12    1    3    3    0    0  0.58046974944E+01 -0.38000670068E+01  0.72447448064E+01  0.10031019368E+02  0.00000000000E+00 0. -1.
</event>
<event>
 7    1  0.3470951E-011  0.5052884E+02  0.7816164E-02  0.1300439E+00
        -11   -1    0    0    0    0  0.00000000000E+00  0.00000000000E+00  0.45593999997E+02  0.45594000000E+02  0.51100000000E-03 0. -1.
         11   -1    0    0    0    0 -0.00000000000E+00 -0.00000000000E+00 -0.45593999997E+02  0.45594000000E+02  0.51100000000E-03 0.  1.
    9900012    2    1    2    0    0  0.22992637467E+01  0.34241262224E+02 -0.21804042252E+02  0.50528844685E+02  0.29999953903E+02 0.  0.
         12    1    1    2    0    0 -0.22992637467E+01 -0.34241262224E+02  0.21804042252E+02  0.40659155315E+02  0.00000000000E+00 0. -1.
         11    1    3    3    0    0  0.56795460846E+01 -0.11736186265E+01 -0.26385453865E+01  0.63715419190E+01  0.51100000000E-03 0. -1.
        -11    1    3    3    0    0  0.69156026977E+01  0.13704995201E+02 -0.44555756193E+01  0.15984511519E+02  0.51100000000E-03 0.  1.
        -12    1    3    3    0    0 -0.10295885036E+02  0.21709885649E+02 -0.14709921246E+02  0.28172791247E+02  0.00000000000E+00 0.  1.
</event>
<event>
 7    1  0.2680581E-011  0.5052885E+02  0.7816164E-02  0.1300439E+00
        -11   -1    0    0    0    0  0.00000000000E+00  0.00000000000E+00  0.45593999997E+02  0.45594000000E+02  0.51100000000E-03 0.  1.
         11   -1    0    0    0    0 -0.00000000000E+00 -0.00000000000E+00 -0.45593999997E+02  0.45594000000E+02  0.51100000000E-03 0. -1.
    9900012    2    1    2    0    0 -0.38096860824E+02  0.11364440306E+02  0.85231920845E+01  0.50528854517E+02  0.29999983790E+02 0.  0.
         12    1    1    2    0    0  0.38096860824E+02 -0.11364440306E+02 -0.85231920845E+01  0.40659145483E+02  0.00000000000E+00 0. -1.
         11    1    3    3    0    0 -0.27667776873E+02  0.12193227080E+02  0.15668444930E+02  0.34054086840E+02  0.51100000000E-03 0. -1.
        -11    1    3    3    0    0 -0.73411778223E+01  0.44780915008E+01 -0.31932251125E+01  0.91729429404E+01  0.51100000000E-03 0.  1.
         12    1    3    3    0    0 -0.30879061285E+01 -0.53068782750E+01 -0.39520277329E+01  0.73018247367E+01  0.00000000000E+00 0. -1.
</event>
<event>
 7    1  0.2680581E-011  0.5052886E+02  0.7816164E-02  0.1300439E+00
        -11   -1    0    0    0    0  0.00000000000E+00  0.00000000000E+00  0.45593999997E+02  0.45594000000E+02  0.51100000000E-03 0. -1.
         11   -1    0    0    0    0 -0.00000000000E+00 -0.00000000000E+00 -0.45593999997E+02  0.45594000000E+02  0.51100000000E-03 0.  1.
    9900012    2    1    2    0    0  0.33256895139E+01 -0.27411862172E+02 -0.29844515676E+02  0.50528861859E+02  0.30000006105E+02 0.  0.
         12    1    1    2    0    0 -0.33256895139E+01  0.27411862172E+02  0.29844515676E+02  0.40659138141E+02  0.00000000000E+00 0. -1.
         11    1    3    3    0    0 -0.98006850917E+01 -0.10529748979E+02 -0.14498181110E+02  0.20423670032E+02  0.51100000000E-03 0. -1.
        -11    1    3    3    0    0 -0.78044612649E+00 -0.39477533512E+00  0.21569705295E+01  0.23275450259E+01  0.51100000000E-03 0.  1.
        -12    1    3    3    0    0  0.13906820732E+02 -0.16487337857E+02 -0.17503305096E+02  0.27777646800E+02  0.00000000000E+00 0.  1.
</event>
<event>
 7    1  0.2680581E-011  0.5052886E+02  0.7816164E-02  0.1300439E+00
        -11   -1    0    0    0    0  0.00000000000E+00  0.00000000000E+00  0.45593999997E+02  0.45594000000E+02  0.51100000000E-03 0.  1.
         11   -1    0    0    0    0 -0.00000000000E+00 -0.00000000000E+00 -0.45593999997E+02  0.45594000000E+02  0.51100000000E-03 0. -1.
    9900012    2    1    2    0    0 -0.17397228970E+02 -0.57267769071E+00  0.36744717981E+02  0.50528857915E+02  0.29999994119E+02 0.  0.
         12    1    1    2    0    0  0.17397228970E+02  0.57267769071E+00 -0.36744717981E+02  0.40659142085E+02  0.00000000000E+00 0. -1.
         11    1    3    3    0    0  0.38604006164E+01 -0.20067847262E+01  0.50610357905E+01  0.66741262642E+01  0.51100000000E-03 0. -1.
        -11    1    3    3    0    0 -0.60130650841E+01 -0.59439669187E+00 -0.23691370663E+01  0.64902287967E+01  0.51100000000E-03 0.  1.
        -12    1    3    3    0    0 -0.15244564502E+02  0.20285037273E+01  0.34052819257E+02  0.37364502854E+02  0.00000000000E+00 0.  1.
</event>
<event>
 7    1  0.2680581E-011  0.5052885E+02  0.7816164E-02  0.1300439E+00
        -11   -1    0    0    0    0  0.00000000000E+00  0.00000000000E+00  0.45593999997E+02  0.45594000000E+02  0.51100000000E-03 0. -1.
         11   -1    0    0    0    0 -0.00000000000E+00 -0.00000000000E+00 -0.45593999997E+02  0.45594000000E+02  0.51100000000E-03 0.  1.
    9900012    2    1    2    0    0 -0.36226765215E+02 -0.51293564055E+01 -0.17733513102E+02  0.50528852173E+02  0.29999976666E+02 0.  0.
         12    1    1    2    0    0  0.36226765215E+02  0.51293564055E+01  0.17733513102E+02  0.40659147827E+02  0.00000000000E+00 0. -1.
         11    1    3    3    0    0 -0.16700247093E+02 -0.10058128679E+02 -0.11961633209E+00  0.19495602423E+02  0.51100000000E-03 0. -1.
        -11    1    3    3    0    0 -0.69630373695E+01 -0.52878477373E+01 -0.95342043858E+01  0.12936238891E+02  0.51100000000E-03 0.  1.
        -12    1    3    3    0    0 -0.12563480752E+02  0.10216620011E+02 -0.80796923841E+01  0.18097010860E+02  0.00000000000E+00 0.  1.
</event>
<event>
 7    1  0.2680581E-011  0.5052885E+02  0.7816164E-02  0.1300439E+00
        -11   -1    0    0    0    0  0.00000000000E+00  0.00000000000E+00  0.45593999997E+02  0.45594000000E+02  0.51100000000E-03 0.  1.
         11   -1    0    0    0    0 -0.00000000000E+00 -0.00000000000E+00 -0.45593999997E+02  0.45594000000E+02  0.51100000000E-03 0. -1.
    9900012    2    1    2    0    0 -0.36227203884E+02 -0.18447459742E+02  0.66869547575E+00  0.50528853110E+02  0.29999979513E+02 0.  0.
         12    1    1    2    0    0  0.36227203884E+02  0.18447459742E+02 -0.66869547575E+00  0.40659146890E+02  0.00000000000E+00 0. -1.
         11    1    3    3    0    0 -0.29575011117E+02 -0.66608259869E+01  0.71629371697E+01  0.31150530566E+02  0.51100000000E-03 0. -1.
        -11    1    3    3    0    0 -0.19865840800E+01 -0.36135576502E+01  0.36743120416E+01  0.55231227072E+01  0.51100000000E-03 0.  1.
         12    1    3    3    0    0 -0.46656086874E+01 -0.81730761047E+01 -0.10168553736E+02  0.13855199837E+02  0.00000000000E+00 0. -1.
</event>
<event>
 7    1  0.2680581E-011  0.5052884E+02  0.7816164E-02  0.1300439E+00
        -11   -1    0    0    0    0  0.00000000000E+00  0.00000000000E+00  0.45593999997E+02  0.45594000000E+02  0.51100000000E-03 0.  1.
         11   -1    0    0    0    0 -0.00000000000E+00 -0.00000000000E+00 -0.45593999997E+02  0.45594000000E+02  0.51100000000E-03 0. -1.
    9900012    2    1    2    0    0  0.21949882891E+02  0.87170728860E+01  0.33096565453E+02  0.50528839121E+02  0.29999936991E+02 0.  0.
         12    1    1    2    0    0 -0.21949882891E+02 -0.87170728860E+01 -0.33096565453E+02  0.40659160879E+02  0.00000000000E+00 0. -1.
         11    1    3    3    0    0  0.53864993485E+01 -0.24667634070E+01  0.16692700935E+02  0.17712864300E+02  0.51100000000E-03 0. -1.
        -11    1    3    3    0    0  0.11580025647E+02  0.47033342695E+01  0.20238045226E+02  0.23786484021E+02  0.51100000000E-03 0.  1.
         12    1    3    3    0    0  0.49833578955E+01  0.64805020235E+01 -0.38341807086E+01  0.90294907995E+01  0.00000000000E+00 0. -1.
</event>
<event>
 7    1  0.2680581E-011  0.5052886E+02  0.7816164E-02  0.1300439E+00
        -11   -1    0    0    0    0  0.00000000000E+00  0.00000000000E+00  0.45593999997E+02  0.45594000000E+02  0.51100000000E-03 0.  1.
         11   -1    0    0    0    0 -0.00000000000E+00 -0.00000000000E+00 -0.45593999997E+02  0.45594000000E+02  0.51100000000E-03 0. -1.
    9900012    2    1    2    0    0 -0.37544369171E+02 -0.13193927333E+02  0.83370189604E+01  0.50528864987E+02  0.30000015613E+02 0.  0.
         12    1    1    2    0    0  0.37544369171E+02  0.13193927333E+02 -0.83370189604E+01  0.40659135013E+02  0.00000000000E+00 0. -1.
         11    1    3    3    0    0  0.16353469318E+00 -0.71941925960E+00  0.24503956225E+01  0.25590519016E+01  0.51100000000E-03 0. -1.
        -11    1    3    3    0    0 -0.33809393997E+02 -0.14157555627E+02  0.13656467928E+02  0.39115350187E+02  0.51100000000E-03 0.  1.
         12    1    3    3    0    0 -0.38985098675E+01  0.16830475541E+01 -0.77698445900E+01  0.88544628978E+01  0.00000000000E+00 0. -1.
</event>
<event>
 7    1  0.2680581E-011  0.5052888E+02  0.7816164E-02  0.1300439E+00
        -11   -1    0    0    0    0  0.00000000000E+00  0.00000000000E+00  0.45593999997E+02  0.45594000000E+02  0.51100000000E-03 0.  1.
         11   -1    0    0    0    0 -0.00000000000E+00 -0.00000000000E+00 -0.45593999997E+02  0.45594000000E+02  0.51100000000E-03 0. -1.
    9900012    2    1    2    0    0  0.38270625910E+02 -0.10347910979E+02  0.90246103599E+01  0.50528884646E+02  0.30000075371E+02 0.  0.
         12    1    1    2    0    0 -0.38270625910E+02  0.10347910979E+02 -0.90246103599E+01  0.40659115354E+02  0.00000000000E+00 0. -1.
         11    1    3    3    0    0  0.11657261351E+02  0.10313891013E+01 -0.45910889304E+00  0.11711801182E+02  0.51100000000E-03 0. -1.
        -11    1    3    3    0    0  0.26566906385E+02 -0.17224440534E+02  0.91707694628E+01  0.32963386952E+02  0.51100000000E-03 0.  1.
         12    1    3    3    0    0  0.46458173831E-01  0.58451404535E+01  0.31294979013E+00  0.58536965120E+01  0.00000000000E+00 0. -1.
</event>
<event>
 7    1  0.2680581E-011  0.5052886E+02  0.7816164E-02  0.1300439E+00
        -11   -1    0    0    0    0  0.00000000000E+00  0.00000000000E+00  0.45593999997E+02  0.45594000000E+02  0.51100000000E-03 0. -1.
         11   -1    0    0    0    0 -0.00000000000E+00 -0.00000000000E+00 -0.45593999997E+02  0.45594000000E+02  0.51100000000E-03 0.  1.
    9900012    2    1    2    0    0  0.21798724434E+02  0.33747326008E+02 -0.62529634432E+01  0.50528856484E+02  0.29999989768E+02 0.  0.
         12    1    1    2    0    0 -0.21798724434E+02 -0.33747326008E+02  0.62529634432E+01  0.40659143516E+02  0.00000000000E+00 0. -1.
         11    1    3    3    0    0 -0.19984714594E+01  0.10593378664E+02 -0.52896832863E+01  0.12008093488E+02  0.51100000000E-03 0. -1.
        -11    1    3    3    0    0  0.71848478536E+01  0.14115610448E+02  0.78252012329E+01  0.17666529699E+02  0.51100000000E-03 0.  1.
        -12    1    3    3    0    0  0.16612348040E+02  0.90383368957E+01 -0.87884813898E+01  0.20854233296E+02  0.00000000000E+00 0.  1.
</event>
<event>
 7    1  0.2680581E-011  0.5052886E+02  0.7816164E-02  0.1300439E+00
        -11   -1    0    0    0    0  0.00000000000E+00  0.00000000000E+00  0.45593999997E+02  0.45594000000E+02  0.51100000000E-03 0.  1.
         11   -1    0    0    0    0 -0.00000000000E+00 -0.00000000000E+00 -0.45593999997E+02  0.45594000000E+02  0.51100000000E-03 0. -1.
    9900012    2    1    2    0    0  0.31187306174E+02 -0.75350690846E+01  0.24974792628E+02  0.50528860814E+02  0.30000002931E+02 0.  0.
         12    1    1    2    0    0 -0.31187306174E+02  0.75350690846E+01 -0.24974792628E+02  0.40659139186E+02  0.00000000000E+00 0. -1.
         11    1    3    3    0    0  0.10930817158E+02 -0.14635390927E+02  0.35815218611E+01  0.18614637531E+02  0.51100000000E-03 0. -1.
        -11    1    3    3    0    0 -0.10896650029E+01  0.69719827490E+00  0.19433614026E+01  0.23345468630E+01  0.51100000000E-03 0.  1.
        -12    1    3    3    0    0  0.21346154019E+02  0.64031235672E+01  0.19449909365E+02  0.29579676420E+02  0.00000000000E+00 0.  1.
</event>
<event>
 7    1  0.2680581E-011  0.5052886E+02  0.7816164E-02  0.1300439E+00
        -11   -1    0    0    0    0  0.00000000000E+00  0.00000000000E+00  0.45593999997E+02  0.45594000000E+02  0.51100000000E-03 0.  1.
         11   -1    0    0    0    0 -0.00000000000E+00 -0.00000000000E+00 -0.45593999997E+02  0.45594000000E+02  0.51100000000E-03 0. -1.
    9900012    2    1    2    0    0  0.27651283672E+02  0.27563015579E+02  0.11351328050E+02  0.50528856317E+02  0.29999989262E+02 0.  0.
         12    1    1    2    0    0 -0.27651283672E+02 -0.27563015579E+02 -0.11351328050E+02  0.40659143683E+02  0.00000000000E+00 0. -1.
         11    1    3    3    0    0  0.64739021519E+01 -0.20692626097E+01 -0.21356619249E+01  0.71242058462E+01  0.51100000000E-03 0. -1.
        -11    1    3    3    0    0  0.13710374096E+02  0.12915255000E+02 -0.26228781174E+01  0.19017298953E+02  0.51100000000E-03 0.  1.
        -12    1    3    3    0    0  0.74670074245E+01  0.16717023188E+02  0.16109868092E+02  0.24387351519E+02  0.00000000000E+00 0.  1.
</event>
<event>
 7    1  0.2680581E-011  0.5052886E+02  0.7816164E-02  0.1300439E+00
        -11   -1    0    0    0    0  0.00000000000E+00  0.00000000000E+00  0.45593999997E+02  0.45594000000E+02  0.51100000000E-03 0.  1.
         11   -1    0    0    0    0 -0.00000000000E+00 -0.00000000000E+00 -0.45593999997E+02  0.45594000000E+02  0.51100000000E-03 0. -1.
    9900012    2    1    2    0    0 -0.31258595685E+01 -0.33808162188E+02  0.22369691814E+02  0.50528856620E+02  0.29999990182E+02 0.  0.
         12    1    1    2    0    0  0.31258595685E+01  0.33808162188E+02 -0.22369691814E+02  0.40659143380E+02  0.00000000000E+00 0. -1.
         11    1    3    3    0    0 -0.36793970148E+00 -0.84044553736E+01  0.53903797505E+01  0.99913184248E+01  0.51100000000E-03 0. -1.
        -11    1    3    3    0    0 -0.31077627393E+01 -0.29948650113E+02  0.91346107614E+01  0.31464598311E+02  0.51100000000E-03 0.  1.
         12    1    3    3    0    0  0.34984287230E+00  0.45449432990E+01  0.78447013019E+01  0.90729398842E+01  0.00000000000E+00 0. -1.
</event>
<event>
 7    1  0.2680581E-011  0.5052885E+02  0.7816164E-02  0.1300439E+00
        -11   -1    0    0    0    0  0.00000000000E+00  0.00000000000E+00  0.45593999997E+02  0.45594000000E+02  0.51100000000E-03 0.  1.
         11   -1    0    0    0    0 -0.00000000000E+00 -0.00000000000E+00 -0.45593999997E+02  0.45594000000E+02  0.51100000000E-03 0. -1.
    9900012    2    1    2    0    0  0.12855578999E+02 -0.83975532052E+01  0.37648125707E+02  0.50528853668E+02  0.29999981209E+02 0.  0.
         12    1    1    2    0    0 -0.12855578999E+02  0.83975532052E+01 -0.37648125707E+02  0.40659146332E+02  0.00000000000E+00 0. -1.
         11    1    3    3    0    0  0.37838569502E+01 -0.11449875220E+02  0.21179086494E+02  0.24371518643E+02  0.51100000000E-03 0. -1.
        -11    1    3    3    0    0 -0.35776053928E+01  0.27259425347E+01  0.11870599552E+02  0.12694138688E+02  0.51100000000E-03 0.  1.
         12    1    3    3    0    0  0.12649327441E+02  0.32637948066E+00  0.45984396605E+01  0.13463196337E+02  0.00000000000E+00 0. -1.
</event>
<event>
 7    1  0.2680581E-011  0.5052886E+02  0.7816164E-02  0.1300439E+00
        -11   -1    0    0    0    0  0.00000000000E+00  0.00000000000E+00  0.45593999997E+02  0.45594000000E+02  0.51100000000E-03 0.  1.
         11   -1    0    0    0    0 -0.00000000000E+00 -0.00000000000E+00 -0.45593999997E+02  0.45594000000E+02  0.51100000000E-03 0. -1.
    9900012    2    1    2    0    0 -0.60624655250E+01  0.13959698422E+02  0.37703297589E+02  0.50528864282E+02  0.30000013472E+02 0.  0.
         12    1    1    2    0    0  0.60624655250E+01 -0.13959698422E+02 -0.37703297589E+02  0.40659135718E+02  0.00000000000E+00 0. -1.
         11    1    3    3    0    0 -0.49451793403E+01 -0.19756189659E+01  0.53283214696E+01  0.75331851796E+01  0.51100000000E-03 0. -1.
        -11    1    3    3    0    0 -0.10937088979E+02  0.13981356113E+02  0.16550079299E+02  0.24269391404E+02  0.51100000000E-03 0.  1.
         12    1    3    3    0    0  0.98198027939E+01  0.19539612747E+01  0.15824896820E+02  0.18726287698E+02  0.00000000000E+00 0. -1.
</event>
<event>
 7    1  0.2680581E-011  0.5052886E+02  0.7816164E-02  0.1300439E+00
        -11   -1    0    0    0    0  0.00000000000E+00  0.00000000000E+00  0.45593999997E+02  0.45594000000E+02  0.51100000000E-03 0. -1.
         11   -1    0    0    0    0 -0.00000000000E+00 -0.00000000000E+00 -0.45593999997E+02  0.45594000000E+02  0.51100000000E-03 0.  1.
    9900012    2    1    2    0    0 -0.50689588376E+01  0.82843844864E+01 -0.39482156489E+02  0.50528855260E+02  0.29999986047E+02 0.  0.
         12    1    1    2    0    0  0.50689588376E+01 -0.82843844864E+01  0.39482156489E+02  0.40659144740E+02  0.00000000000E+00 0. -1.
         11    1    3    3    0    0 -0.52766492435E+01  0.25206884670E+01 -0.19245364526E+02  0.20114197811E+02  0.51100000000E-03 0. -1.
        -11    1    3    3    0    0 -0.69553439264E+00 -0.83451211938E+01 -0.94874668652E+01  0.12654518703E+02  0.51100000000E-03 0.  1.
         12    1    3    3    0    0  0.90322479859E+00  0.14108817213E+02 -0.10749325097E+02  0.17760138745E+02  0.00000000000E+00 0. -1.
</event>
<event>
 7    1  0.2680581E-011  0.5052886E+02  0.7816164E-02  0.1300439E+00
        -11   -1    0    0    0    0  0.00000000000E+00  0.00000000000E+00  0.45593999997E+02  0.45594000000E+02  0.51100000000E-03 0. -1.
         11   -1    0    0    0    0 -0.00000000000E+00 -0.00000000000E+00 -0.45593999997E+02  0.45594000000E+02  0.51100000000E-03 0.  1.
    9900012    2    1    2    0    0  0.96420289737E+01  0.28183583991E+02 -0.27674580671E+02  0.50528861487E+02  0.30000004975E+02 0.  0.
         12    1    1    2    0    0 -0.96420289737E+01 -0.28183583991E+02  0.27674580671E+02  0.40659138513E+02  0.00000000000E+00 0. -1.
         11    1    3    3    0    0  0.11839619753E+02  0.57425426835E+01 -0.10676181967E+02  0.16945036266E+02  0.51100000000E-03 0. -1.
        -11    1    3    3    0    0 -0.39401189910E+01 -0.41371737538E+00 -0.80609536972E+01  0.89819081770E+01  0.51100000000E-03 0.  1.
         12    1    3    3    0    0  0.17425282112E+01  0.22854758683E+02 -0.89374450068E+01  0.24601917044E+02  0.00000000000E+00 0. -1.
</event>
<event>
 7    1  0.2680581E-011  0.5052886E+02  0.7816164E-02  0.1300439E+00
        -11   -1    0    0    0    0  0.00000000000E+00  0.00000000000E+00  0.45593999997E+02  0.45594000000E+02  0.51100000000E-03 0.  1.
         11   -1    0    0    0    0 -0.00000000000E+00 -0.00000000000E+00 -0.45593999997E+02  0.45594000000E+02  0.51100000000E-03 0. -1.
    9900012    2    1    2    0    0 -0.25730579888E+02 -0.28590461347E+02 -0.13179093475E+02  0.50528859253E+02  0.29999998186E+02 0.  0.
         12    1    1    2    0    0  0.25730579888E+02  0.28590461347E+02  0.13179093475E+02  0.40659140747E+02  0.00000000000E+00 0. -1.
         11    1    3    3    0    0 -0.82523424696E+01 -0.10825618754E+02  0.60969269677E+01  0.14915351030E+02  0.51100000000E-03 0. -1.
        -11    1    3    3    0    0 -0.15050215381E+02 -0.12677462984E+02 -0.50564725442E+01  0.20317356265E+02  0.51100000000E-03 0.  1.
        -12    1    3    3    0    0 -0.24280220374E+01 -0.50873796096E+01 -0.14219547898E+02  0.15296151958E+02  0.00000000000E+00 0.  1.
</event>
<event>
 7    1  0.2680581E-011  0.5052886E+02  0.7816164E-02  0.1300439E+00
        -11   -1    0    0    0    0  0.00000000000E+00  0.00000000000E+00  0.45593999997E+02  0.45594000000E+02  0.51100000000E-03 0.  1.
         11   -1    0    0    0    0 -0.00000000000E+00 -0.00000000000E+00 -0.45593999997E+02  0.45594000000E+02  0.51100000000E-03 0. -1.
    9900012    2    1    2    0    0 -0.35054707775E+02  0.53196375007E+01  0.19900609292E+02  0.50528864120E+02  0.30000012979E+02 0.  0.
         12    1    1    2    0    0  0.35054707775E+02 -0.53196375007E+01 -0.19900609292E+02  0.40659135880E+02  0.00000000000E+00 0. -1.
         11    1    3    3    0    0 -0.67738317663E+01 -0.29882658574E+01  0.31203357070E+01  0.80343652405E+01  0.51100000000E-03 0. -1.
        -11    1    3    3    0    0 -0.23718790217E+02  0.14702470508E+02  0.50227453636E+01  0.28354393304E+02  0.51100000000E-03 0.  1.
         12    1    3    3    0    0 -0.45620857919E+01 -0.63945671502E+01  0.11757528221E+02  0.14140105576E+02  0.00000000000E+00 0. -1.
</event>
<event>
 7    1  0.2680581E-011  0.5052887E+02  0.7816164E-02  0.1300439E+00
        -11   -1    0    0    0    0  0.00000000000E+00  0.00000000000E+00  0.45593999997E+02  0.45594000000E+02  0.51100000000E-03 0.  1.
         11   -1    0    0    0    0 -0.00000000000E+00 -0.00000000000E+00 -0.45593999997E+02  0.45594000000E+02  0.51100000000E-03 0. -1.
    9900012    2    1    2    0    0 -0.20517659932E+02 -0.30660011800E+02  0.17092507659E+02  0.50528874201E+02  0.30000043622E+02 0.  0.
         12    1    1    2    0    0  0.20517659932E+02  0.30660011800E+02 -0.17092507659E+02  0.40659125799E+02  0.00000000000E+00 0. -1.
         11    1    3    3    0    0 -0.98710428548E+01 -0.19983430251E+02  0.52391095643E+01  0.22895921928E+02  0.51100000000E-03 0.  1.
        -11    1    3    3    0    0 -0.12516262675E+02 -0.68208124582E+01 -0.79709165860E+00  0.14276402534E+02  0.51100000000E-03 0. -1.
         12    1    3    3    0    0  0.18696455977E+01 -0.38557690902E+01  0.12650489753E+02  0.13356549739E+02  0.00000000000E+00 0. -1.
</event>
<event>
 7    1  0.2680581E-011  0.5052886E+02  0.7816164E-02  0.1300439E+00
        -11   -1    0    0    0    0  0.00000000000E+00  0.00000000000E+00  0.45593999997E+02  0.45594000000E+02  0.51100000000E-03 0. -1.
         11   -1    0    0    0    0 -0.00000000000E+00 -0.00000000000E+00 -0.45593999997E+02  0.45594000000E+02  0.51100000000E-03 0.  1.
    9900012    2    1    2    0    0 -0.17524567778E+02  0.23210892035E+01 -0.36615128845E+02  0.50528860914E+02  0.30000003233E+02 0.  0.
         12    1    1    2    0    0  0.17524567778E+02 -0.23210892035E+01  0.36615128845E+02  0.40659139086E+02  0.00000000000E+00 0. -1.
         11    1    3    3    0    0  0.58505411292E+01  0.55712770774E+01 -0.29411280069E+01  0.85975690745E+01  0.51100000000E-03 0. -1.
        -11    1    3    3    0    0 -0.55903477837E+01  0.39734337998E+00 -0.31847279352E+01  0.64461121916E+01  0.51100000000E-03 0.  1.
        -12    1    3    3    0    0 -0.17784761123E+02 -0.36475312539E+01 -0.30489272903E+02  0.35485179648E+02  0.00000000000E+00 0.  1.
</event>
<event>
 7    1  0.2680581E-011  0.5052888E+02  0.7816164E-02  0.1300439E+00
        -11   -1    0    0    0    0  0.00000000000E+00  0.00000000000E+00  0.45593999997E+02  0.45594000000E+02  0.51100000000E-03 0. -1.
         11   -1    0    0    0    0 -0.00000000000E+00 -0.00000000000E+00 -0.45593999997E+02  0.45594000000E+02  0.51100000000E-03 0.  1.
    9900012    2    1    2    0    0  0.27462137514E+02 -0.29085246346E+02 -0.72831231450E+01  0.50528875137E+02  0.30000046467E+02 0.  0.
         12    1    1    2    0    0 -0.27462137514E+02  0.29085246346E+02  0.72831231450E+01  0.40659124863E+02  0.00000000000E+00 0. -1.
         11    1    3    3    0    0 -0.10777905960E+01 -0.36532893016E+01  0.56301801374E+00  0.38503434697E+01  0.51100000000E-03 0. -1.
        -11    1    3    3    0    0  0.10864504664E+02 -0.22409753482E+01 -0.12976340637E+02  0.17071755876E+02  0.51100000000E-03 0.  1.
         12    1    3    3    0    0  0.17675423447E+02 -0.23190981696E+02  0.51301994787E+01  0.29606775791E+02  0.00000000000E+00 0. -1.
</event>
<event>
 7    1  0.2680581E-011  0.5052887E+02  0.7816164E-02  0.1300439E+00
        -11   -1    0    0    0    0  0.00000000000E+00  0.00000000000E+00  0.45593999997E+02  0.45594000000E+02  0.51100000000E-03 0.  1.
         11   -1    0    0    0    0 -0.00000000000E+00 -0.00000000000E+00 -0.45593999997E+02  0.45594000000E+02  0.51100000000E-03 0. -1.
    9900012    2    1    2    0    0  0.11982256711E+02 -0.90096086920E+01  0.37794409668E+02  0.50528869084E+02  0.30000028068E+02 0.  0.
         12    1    1    2    0    0 -0.11982256711E+02  0.90096086920E+01 -0.37794409668E+02  0.40659130916E+02  0.00000000000E+00 0. -1.
         11    1    3    3    0    0  0.94811010875E+01  0.70575167130E+00  0.56521943539E+01  0.11060590605E+02  0.51100000000E-03 0. -1.
        -11    1    3    3    0    0  0.17194406568E+01 -0.99679381538E+01  0.33370380338E+01  0.10651389126E+02  0.51100000000E-03 0.  1.
        -12    1    3    3    0    0  0.78171496703E+00  0.25257779046E+00  0.28805177281E+02  0.28816889353E+02  0.00000000000E+00 0.  1.
</event>
<event>
 7    1  0.2680581E-011  0.5052889E+02  0.7816164E-02  0.1300439E+00
        -11   -1    0    0    0    0  0.00000000000E+00  0.00000000000E+00  0.45593999997E+02  0.45594000000E+02  0.51100000000E-03 0.  1.
         11   -1    0    0    0    0 -0.00000000000E+00 -0.00000000000E+00 -0.45593999997E+02  0.45594000000E+02  0.51100000000E-03 0. -1.
    9900012    2    1    2    0    0  0.55121580725E+01  0.38003120260E+02 -0.13361972841E+02  0.50528888422E+02  0.30000086846E+02 0.  0.
         12    1    1    2    0    0 -0.55121580725E+01 -0.38003120260E+02  0.13361972841E+02  0.40659111578E+02  0.00000000000E+00 0. -1.
         11    1    3    3    0    0 -0.66279904911E+01  0.89939075014E+01  0.52772237241E+01  0.12355958910E+02  0.51100000000E-03 0. -1.
        -11    1    3    3    0    0  0.92316360182E+01  0.20512908414E+02 -0.71769182522E+01  0.23611663877E+02  0.51100000000E-03 0.  1.
        -12    1    3    3    0    0  0.29085125454E+01  0.84963043447E+01 -0.11462278313E+02  0.14561265634E+02  0.00000000000E+00 0.  1.
</event>
<event>
 7    1  0.2680581E-011  0.5052887E+02  0.7816164E-02  0.1300439E+00
        -11   -1    0    0    0    0  0.00000000000E+00  0.00000000000E+00  0.45593999997E+02  0.45594000000E+02  0.51100000000E-03 0.  1.
         11   -1    0    0    0    0 -0.00000000000E+00 -0.00000000000E+00 -0.45593999997E+02  0.45594000000E+02  0.51100000000E-03 0. -1.
    9900012    2    1    2    0    0 -0.30934457139E+02 -0.18338185021E+02  0.18971961899E+02  0.50528868102E+02  0.30000025084E+02 0.  0.
         12    1    1    2    0    0  0.30934457139E+02  0.18338185021E+02 -0.18971961899E+02  0.40659131898E+02  0.00000000000E+00 0. -1.
         11    1    3    3    0    0  0.23396065460E+01  0.18582742448E+01  0.19006912628E+01  0.35411254563E+01  0.51100000000E-03 0. -1.
        -11    1    3    3    0    0 -0.29403472541E+02 -0.72812124564E+01  0.11577583971E+02  0.32428701842E+02  0.51100000000E-03 0.  1.
         12    1    3    3    0    0 -0.38705911440E+01 -0.12915246810E+02  0.54936866654E+01  0.14559040804E+02  0.00000000000E+00 0. -1.
</event>
<event>
 7    1  0.2680581E-011  0.5052886E+02  0.7816164E-02  0.1300439E+00
        -11   -1    0    0    0    0  0.00000000000E+00  0.00000000000E+00  0.45593999997E+02  0.45594000000E+02  0.51100000000E-03 0.  1.
         11   -1    0    0    0    0 -0.00000000000E+00 -0.00000000000E+00 -0.45593999997E+02  0.45594000000E+02  0.51100000000E-03 0. -1.
    9900012    2    1    2    0    0 -0.30783803668E+01 -0.35289776064E+02  0.19957980835E+02  0.50528859339E+02  0.29999998446E+02 0.  0.
         12    1    1    2    0    0  0.30783803668E+01  0.35289776064E+02 -0.19957980835E+02  0.40659140661E+02  0.00000000000E+00 0. -1.
         11    1    3    3    0    0  0.26188709280E+01  0.20543365422E+01 -0.16520939432E+00  0.33325782769E+01  0.51100000000E-03 0. -1.
        -11    1    3    3    0    0 -0.39913903442E+01 -0.98410987377E+01 -0.32039689408E+01  0.11092512722E+02  0.51100000000E-03 0.  1.
        -12    1    3    3    0    0 -0.17058609506E+01 -0.27503013868E+02  0.23327159170E+02  0.36103768340E+02  0.00000000000E+00 0.  1.
</event>
<event>
 7    1  0.2680581E-011  0.5052886E+02  0.7816164E-02  0.1300439E+00
        -11   -1    0    0    0    0  0.00000000000E+00  0.00000000000E+00  0.45593999997E+02  0.45594000000E+02  0.51100000000E-03 0. -1.
         11   -1    0    0    0    0 -0.00000000000E+00 -0.00000000000E+00 -0.45593999997E+02  0.45594000000E+02  0.51100000000E-03 0.  1.
    9900012    2    1    2    0    0  0.22851730304E+02 -0.52054444043E+01 -0.33224497712E+02  0.50528862311E+02  0.30000007481E+02 0.  0.
         12    1    1    2    0    0 -0.22851730304E+02  0.52054444043E+01  0.33224497712E+02  0.40659137689E+02  0.00000000000E+00 0. -1.
         11    1    3    3    0    0  0.70164045961E+01  0.32582916914E+01 -0.17259246312E+02  0.18913698256E+02  0.51100000000E-03 0. -1.
        -11    1    3    3    0    0  0.11421264417E+02 -0.90590361714E+01 -0.20567999330E+02  0.25210196626E+02  0.51100000000E-03 0.  1.
         12    1    3    3    0    0  0.44140612912E+01  0.59530007567E+00  0.46027479294E+01  0.64049674288E+01  0.00000000000E+00 0. -1.
</event>
<event>
 7    1  0.2680581E-011  0.5052885E+02  0.7816164E-02  0.1300439E+00
        -11   -1    0    0    0    0  0.00000000000E+00  0.00000000000E+00  0.45593999997E+02  0.45594000000E+02  0.51100000000E-03 0.  1.
         11   -1    0    0    0    0 -0.00000000000E+00 -0.00000000000E+00 -0.45593999997E+02  0.45594000000E+02  0.51100000000E-03 0. -1.
    9900012    2    1    2    0    0  0.40154364204E+02  0.46585660946E+01 -0.43693171353E+01  0.50528854228E+02  0.29999982911E+02 0.  0.
         12    1    1    2    0    0 -0.40154364204E+02 -0.46585660946E+01  0.43693171353E+01  0.40659145772E+02  0.00000000000E+00 0. -1.
         11    1    3    3    0    0  0.14168790154E+02 -0.31289076847E+01 -0.56345366076E+01  0.15565753460E+02  0.51100000000E-03 0. -1.
        -11    1    3    3    0    0  0.13140878070E+02 -0.61834565034E+01  0.54799647522E+01  0.15522494153E+02  0.51100000000E-03 0.  1.
        -12    1    3    3    0    0  0.12844695981E+02  0.13970930283E+02 -0.42147452800E+01  0.19440606616E+02  0.00000000000E+00 0.  1.
</event>
<event>
 7    1  0.2680581E-011  0.5052887E+02  0.7816164E-02  0.1300439E+00
        -11   -1    0    0    0    0  0.00000000000E+00  0.00000000000E+00  0.45593999997E+02  0.45594000000E+02  0.51100000000E-03 0.  1.
         11   -1    0    0    0    0 -0.00000000000E+00 -0.00000000000E+00 -0.45593999997E+02  0.45594000000E+02  0.51100000000E-03 0. -1.
    9900012    2    1    2    0    0 -0.22838778772E+02 -0.14669921292E+02  0.30271250001E+02  0.50528868392E+02  0.30000025964E+02 0.  0.
         12    1    1    2    0    0  0.22838778772E+02  0.14669921292E+02 -0.30271250001E+02  0.40659131608E+02  0.00000000000E+00 0. -1.
         11    1    3    3    0    0 -0.75017576433E+01 -0.32247182139E+01 -0.21388923873E+01  0.84409736526E+01  0.51100000000E-03 0. -1.
        -11    1    3    3    0    0  0.62522862591E+00 -0.89768467402E+01  0.50579169411E+01  0.10322655292E+02  0.51100000000E-03 0.  1.
        -12    1    3    3    0    0 -0.15962249755E+02 -0.24683563378E+01  0.27352225447E+02  0.31765239447E+02  0.00000000000E+00 0.  1.
</event>
<event>
 7    1  0.2680581E-011  0.5052886E+02  0.7816164E-02  0.1300439E+00
        -11   -1    0    0    0    0  0.00000000000E+00  0.00000000000E+00  0.45593999997E+02  0.45594000000E+02  0.51100000000E-03 0.  1.
         11   -1    0    0    0    0 -0.00000000000E+00 -0.00000000000E+00 -0.45593999997E+02  0.45594000000E+02  0.51100000000E-03 0. -1.
    9900012    2    1    2    0    0  0.18213154769E+02  0.15447234376E+02  0.32906380130E+02  0.50528856997E+02  0.29999991327E+02 0.  0.
         12    1    1    2    0    0 -0.18213154769E+02 -0.15447234376E+02 -0.32906380130E+02  0.40659143003E+02  0.00000000000E+00 0. -1.
         11    1    3    3    0    0  0.90040712417E+01 -0.21936669401E+01  0.62653711538E+01  0.11186614748E+02  0.51100000000E-03 0. -1.
        -11    1    3    3    0    0  0.15049140878E+01 -0.15248683636E+01  0.15931268599E+02  0.16074679137E+02  0.51100000000E-03 0.  1.
         12    1    3    3    0    0  0.77041694394E+01  0.19165769680E+02  0.10709740377E+02  0.23267563111E+02  0.00000000000E+00 0. -1.
</event>
<event>
 7    1  0.2680581E-011  0.5052886E+02  0.7816164E-02  0.1300439E+00
        -11   -1    0    0    0    0  0.00000000000E+00  0.00000000000E+00  0.45593999997E+02  0.45594000000E+02  0.51100000000E-03 0. -1.
         11   -1    0    0    0    0 -0.00000000000E+00 -0.00000000000E+00 -0.45593999997E+02  0.45594000000E+02  0.51100000000E-03 0.  1.
    9900012    2    1    2    0    0 -0.95723218883E+01 -0.37716537918E+02 -0.11789799080E+02  0.50528856610E+02  0.29999990151E+02 0.  0.
         12    1    1    2    0    0  0.95723218883E+01  0.37716537918E+02  0.11789799080E+02  0.40659143390E+02  0.00000000000E+00 0. -1.
         11    1    3    3    0    0  0.43708464798E+01 -0.14426312913E+02 -0.42468648747E+01  0.15660736404E+02  0.51100000000E-03 0. -1.
        -11    1    3    3    0    0 -0.88132153017E+01 -0.21501821611E+02 -0.13444338578E+02  0.26846812411E+02  0.51100000000E-03 0.  1.
         12    1    3    3    0    0 -0.51299530665E+01 -0.17884033946E+01  0.59014043729E+01  0.80213077947E+01  0.00000000000E+00 0. -1.
</event>
<event>
 7    1  0.2680581E-011  0.5052888E+02  0.7816164E-02  0.1300439E+00
        -11   -1    0    0    0    0  0.00000000000E+00  0.00000000000E+00  0.45593999997E+02  0.45594000000E+02  0.51100000000E-03 0. -1.
         11   -1    0    0    0    0 -0.00000000000E+00 -0.00000000000E+00 -0.45593999997E+02  0.45594000000E+02  0.51100000000E-03 0.  1.
    9900012    2    1    2    0    0  0.22072327909E+02  0.33922432426E+02 -0.39045094900E+01  0.50528877095E+02  0.30000052419E+02 0.  0.
         12    1    1    2    0    0 -0.22072327909E+02 -0.33922432426E+02  0.39045094900E+01  0.40659122905E+02  0.00000000000E+00 0. -1.
         11    1    3    3    0    0  0.26081806768E+01  0.99490705049E+01 -0.69346315656E+01  0.12404665476E+02  0.51100000000E-03 0. -1.
        -11    1    3    3    0    0  0.23181748749E+02  0.23703090992E+02  0.55623778799E+01  0.33618001808E+02  0.51100000000E-03 0.  1.
         12    1    3    3    0    0 -0.37176015167E+01  0.27027092967E+00 -0.25322558043E+01  0.45062098121E+01  0.00000000000E+00 0. -1.
</event>
<event>
 7    1  0.2680581E-011  0.5052885E+02  0.7816164E-02  0.1300439E+00
        -11   -1    0    0    0    0  0.00000000000E+00  0.00000000000E+00  0.45593999997E+02  0.45594000000E+02  0.51100000000E-03 0.  1.
         11   -1    0    0    0    0 -0.00000000000E+00 -0.00000000000E+00 -0.45593999997E+02  0.45594000000E+02  0.51100000000E-03 0. -1.
    9900012    2    1    2    0    0 -0.24723538863E+02 -0.30277465118E+02  0.11188749572E+02  0.50528851154E+02  0.29999973568E+02 0.  0.
         12    1    1    2    0    0  0.24723538863E+02  0.30277465118E+02 -0.11188749572E+02  0.40659148846E+02  0.00000000000E+00 0. -1.
         11    1    3    3    0    0 -0.52659127277E+01  0.96635339771E+00 -0.52800494423E+01  0.75194812400E+01  0.51100000000E-03 0. -1.
        -11    1    3    3    0    0 -0.11969772101E+02 -0.82314905764E+01  0.16198508393E+01  0.14617003737E+02  0.51100000000E-03 0.  1.
        -12    1    3    3    0    0 -0.74878540346E+01 -0.23012327939E+02  0.14848948175E+02  0.28392366177E+02  0.00000000000E+00 0.  1.
</event>
<event>
 7    1  0.2680581E-011  0.5052886E+02  0.7816164E-02  0.1300439E+00
        -11   -1    0    0    0    0  0.00000000000E+00  0.00000000000E+00  0.45593999997E+02  0.45594000000E+02  0.51100000000E-03 0. -1.
         11   -1    0    0    0    0 -0.00000000000E+00 -0.00000000000E+00 -0.45593999997E+02  0.45594000000E+02  0.51100000000E-03 0.  1.
    9900012    2    1    2    0    0  0.36770100341E+02  0.12631572250E+02 -0.11898250545E+02  0.50528864955E+02  0.30000015516E+02 0.  0.
         12    1    1    2    0    0 -0.36770100341E+02 -0.12631572250E+02  0.11898250545E+02  0.40659135045E+02  0.00000000000E+00 0. -1.
         11    1    3    3    0    0  0.58708704730E+01  0.97729210634E+01 -0.29117557068E+01  0.11766708451E+02  0.51100000000E-03 0. -1.
        -11    1    3    3    0    0  0.29745128159E+02  0.91943299174E+01 -0.61991455312E+01  0.31744885531E+02  0.51100000000E-03 0.  1.
         12    1    3    3    0    0  0.11541017094E+01 -0.63356787307E+01 -0.27873493074E+01  0.70172709721E+01  0.00000000000E+00 0. -1.
</event>
<event>
 7    1  0.2680581E-011  0.5052884E+02  0.7816164E-02  0.1300439E+00
        -11   -1    0    0    0    0  0.00000000000E+00  0.00000000000E+00  0.45593999997E+02  0.45594000000E+02  0.51100000000E-03 0.  1.
         11   -1    0    0    0    0 -0.00000000000E+00 -0.00000000000E+00 -0.45593999997E+02  0.45594000000E+02  0.51100000000E-03 0. -1.
    9900012    2    1    2    0    0 -0.36467028513E+02 -0.16478574425E+02 -0.71957963402E+01  0.50528842745E+02  0.29999948008E+02 0.  0.
         12    1    1    2    0    0  0.36467028513E+02  0.16478574425E+02  0.71957963402E+01  0.40659157255E+02  0.00000000000E+00 0. -1.
         11    1    3    3    0    0  0.17402045985E+01  0.94494821524E-01  0.11578921224E+01  0.20923565051E+01  0.51100000000E-03 0. -1.
        -11    1    3    3    0    0 -0.15033465526E+02 -0.12575993747E+02  0.64675912585E+01  0.20639535882E+02  0.51100000000E-03 0.  1.
         12    1    3    3    0    0 -0.23173767586E+02 -0.39970754996E+01 -0.14821279721E+02  0.27796950359E+02  0.00000000000E+00 0. -1.
</event>
<event>
 7    1  0.2680581E-011  0.5052886E+02  0.7816164E-02  0.1300439E+00
        -11   -1    0    0    0    0  0.00000000000E+00  0.00000000000E+00  0.45593999997E+02  0.45594000000E+02  0.51100000000E-03 0.  1.
         11   -1    0    0    0    0 -0.00000000000E+00 -0.00000000000E+00 -0.45593999997E+02  0.45594000000E+02  0.51100000000E-03 0. -1.
    9900012    2    1    2    0    0  0.29658407407E+02 -0.19134256736E+02  0.20184764064E+02  0.50528860670E+02  0.30000002492E+02 0.  0.
         12    1    1    2    0    0 -0.29658407407E+02  0.19134256736E+02 -0.20184764064E+02  0.40659139330E+02  0.00000000000E+00 0. -1.
         11    1    3    3    0    0  0.98201849632E+01 -0.92056042004E+01  0.62135362773E+01  0.14825222249E+02  0.51100000000E-03 0. -1.
        -11    1    3    3    0    0  0.19878073712E+02 -0.12058513550E+01  0.17287742999E+02  0.26371536744E+02  0.51100000000E-03 0.  1.
         12    1    3    3    0    0 -0.39851268101E-01 -0.87228011805E+01 -0.33165152115E+01  0.93321016768E+01  0.00000000000E+00 0. -1.
</event>
<event>
 7    1  0.2680581E-011  0.5052887E+02  0.7816164E-02  0.1300439E+00
        -11   -1    0    0    0    0  0.00000000000E+00  0.00000000000E+00  0.45593999997E+02  0.45594000000E+02  0.51100000000E-03 0.  1.
         11   -1    0    0    0    0 -0.00000000000E+00 -0.00000000000E+00 -0.45593999997E+02  0.45594000000E+02  0.51100000000E-03 0. -1.
    9900012    2    1    2    0    0 -0.11381063956E+02 -0.34316018902E+02  0.18602347454E+02  0.50528866944E+02  0.30000021563E+02 0.  0.
         12    1    1    2    0    0  0.11381063956E+02  0.34316018902E+02 -0.18602347454E+02  0.40659133056E+02  0.00000000000E+00 0. -1.
         11    1    3    3    0    0 -0.76634719549E+01 -0.67886863917E+01 -0.32185493842E+01  0.10731920878E+02  0.51100000000E-03 0. -1.
        -11    1    3    3    0    0  0.17991948341E+00  0.12760363582E+01  0.70996729642E+01  0.72156771177E+01  0.51100000000E-03 0.  1.
        -12    1    3    3    0    0 -0.38975114846E+01 -0.28803368869E+02  0.14721223874E+02  0.32581268949E+02  0.00000000000E+00 0.  1.
</event>
<event>
 7    1  0.2680581E-011  0.5052886E+02  0.7816164E-02  0.1300439E+00
        -11   -1    0    0    0    0  0.00000000000E+00  0.00000000000E+00  0.45593999997E+02  0.45594000000E+02  0.51100000000E-03 0.  1.
         11   -1    0    0    0    0 -0.00000000000E+00 -0.00000000000E+00 -0.45593999997E+02  0.45594000000E+02  0.51100000000E-03 0. -1.
    9900012    2    1    2    0    0  0.24559862715E+02 -0.19980232147E+01  0.32341714380E+02  0.50528862744E+02  0.30000008797E+02 0.  0.
         12    1    1    2    0    0 -0.24559862715E+02  0.19980232147E+01 -0.32341714380E+02  0.40659137256E+02  0.00000000000E+00 0. -1.
         11    1    3    3    0    0  0.15092417016E+02 -0.34934338374E+01  0.41181823823E+01  0.16029490252E+02  0.51100000000E-03 0. -1.
        -11    1    3    3    0    0  0.14223229829E+02 -0.79936303425E+00  0.17659758433E+02  0.22689343670E+02  0.51100000000E-03 0.  1.
        -12    1    3    3    0    0 -0.47557841301E+01  0.22947736570E+01  0.10563773565E+02  0.11810028822E+02  0.00000000000E+00 0.  1.
</event>
<event>
 7    1  0.2680581E-011  0.5052886E+02  0.7816164E-02  0.1300439E+00
        -11   -1    0    0    0    0  0.00000000000E+00  0.00000000000E+00  0.45593999997E+02  0.45594000000E+02  0.51100000000E-03 0.  1.
         11   -1    0    0    0    0 -0.00000000000E+00 -0.00000000000E+00 -0.45593999997E+02  0.45594000000E+02  0.51100000000E-03 0. -1.
    9900012    2    1    2    0    0  0.23103427627E+01  0.19118887934E+02  0.35809160386E+02  0.50528861703E+02  0.30000005632E+02 0.  0.
         12    1    1    2    0    0 -0.23103427627E+01 -0.19118887934E+02 -0.35809160386E+02  0.40659138297E+02  0.00000000000E+00 0. -1.
         11    1    3    3    0    0  0.18284338789E+01  0.11207629319E+02  0.17862548892E+02  0.21166595819E+02  0.51100000000E-03 0. -1.
        -11    1    3    3    0    0  0.89015489476E+01  0.74875567928E-01  0.15074958762E+02  0.17507071770E+02  0.51100000000E-03 0.  1.
         12    1    3    3    0    0 -0.84196400638E+01  0.78363830473E+01  0.28716527321E+01  0.11855194114E+02  0.00000000000E+00 0. -1.
</event>
<event>
 7    1  0.2680581E-011  0.5052886E+02  0.7816164E-02  0.1300439E+00
        -11   -1    0    0    0    0  0.00000000000E+00  0.00000000000E+00  0.45593999997E+02  0.45594000000E+02  0.51100000000E-03 0.  1.
         11   -1    0    0    0    0 -0.00000000000E+00 -0.00000000000E+00 -0.45593999997E+02  0.45594000000E+02  0.51100000000E-03 0. -1.
    9900012    2    1    2    0    0 -0.20264931266E+02  0.95946669455E+01  0.33918144544E+02  0.50528860777E+02  0.30000002818E+02 0.  0.
         12    1    1    2    0    0  0.20264931266E+02 -0.95946669455E+01 -0.33918144544E+02  0.40659139223E+02  0.00000000000E+00 0. -1.
         11    1    3    3    0    0 -0.13241088162E+01 -0.48378324250E+01  0.55343701933E+01  0.74690789544E+01  0.51100000000E-03 0. -1.
        -11    1    3    3    0    0 -0.18955044815E+02  0.97815265052E+01  0.31071281614E+02  0.37688148351E+02  0.51100000000E-03 0.  1.
         12    1    3    3    0    0  0.14222365173E-01  0.46509728653E+01 -0.26875072629E+01  0.53716334720E+01  0.00000000000E+00 0. -1.
</event>
<event>
 7    1  0.2680581E-011  0.5052881E+02  0.7816164E-02  0.1300439E+00
        -11   -1    0    0    0    0  0.00000000000E+00  0.00000000000E+00  0.45593999997E+02  0.45594000000E+02  0.51100000000E-03 0. -1.
         11   -1    0    0    0    0 -0.00000000000E+00 -0.00000000000E+00 -0.45593999997E+02  0.45594000000E+02  0.51100000000E-03 0.  1.
    9900012    2    1    2    0    0  0.30921225942E+02 -0.14609079785E+02 -0.21991415518E+02  0.50528809373E+02  0.29999846570E+02 0.  0.
         12    1    1    2    0    0 -0.30921225942E+02  0.14609079785E+02  0.21991415518E+02  0.40659190627E+02  0.00000000000E+00 0. -1.
         11    1    3    3    0    0  0.86300337418E+01 -0.93311551410E+01 -0.52151917165E+01  0.13738492041E+02  0.51100000000E-03 0. -1.
        -11    1    3    3    0    0  0.21660421366E+02 -0.56300434170E+01 -0.25265179074E+01  0.22522311951E+02  0.51100000000E-03 0.  1.
         12    1    3    3    0    0  0.63077083427E+00  0.35211877307E+00 -0.14249705895E+02  0.14268005381E+02  0.00000000000E+00 0. -1.
</event>
<event>
 7    1  0.2680581E-011  0.5052886E+02  0.7816164E-02  0.1300439E+00
        -11   -1    0    0    0    0  0.00000000000E+00  0.00000000000E+00  0.45593999997E+02  0.45594000000E+02  0.51100000000E-03 0.  1.
         11   -1    0    0    0    0 -0.00000000000E+00 -0.00000000000E+00 -0.45593999997E+02  0.45594000000E+02  0.51100000000E-03 0. -1.
    9900012    2    1    2    0    0  0.34963583086E+02 -0.19517884212E+02  0.70545076521E+01  0.50528855585E+02  0.29999987037E+02 0.  0.
         12    1    1    2    0    0 -0.34963583086E+02  0.19517884212E+02 -0.70545076521E+01  0.40659144415E+02  0.00000000000E+00 0. -1.
         11    1    3    3    0    0  0.74230693978E+01 -0.72109834775E+01  0.98723850130E+01  0.14302595153E+02  0.51100000000E-03 0. -1.
        -11    1    3    3    0    0  0.21024390633E+02  0.31243052417E+00  0.22500611865E+01  0.21146758378E+02  0.51100000000E-03 0.  1.
         12    1    3    3    0    0  0.65161230556E+01 -0.12619331258E+02 -0.50679385474E+01  0.15079502054E+02  0.00000000000E+00 0. -1.
</event>
<event>
 7    1  0.2680581E-011  0.5052887E+02  0.7816164E-02  0.1300439E+00
        -11   -1    0    0    0    0  0.00000000000E+00  0.00000000000E+00  0.45593999997E+02  0.45594000000E+02  0.51100000000E-03 0. -1.
         11   -1    0    0    0    0 -0.00000000000E+00 -0.00000000000E+00 -0.45593999997E+02  0.45594000000E+02  0.51100000000E-03 0.  1.
    9900012    2    1    2    0    0  0.28324166287E+02 -0.20310244800E+02  0.20938019110E+02  0.50528867152E+02  0.30000022196E+02 0.  0.
         12    1    1    2    0    0 -0.28324166287E+02  0.20310244800E+02 -0.20938019110E+02  0.40659132848E+02  0.00000000000E+00 0. -1.
         11    1    3    3    0    0  0.48378499636E+01  0.40083922514E+01 -0.11760760973E+01  0.63918038110E+01  0.51100000000E-03 0. -1.
        -11    1    3    3    0    0  0.10667272253E+02 -0.42616389262E+01  0.15756251825E+02  0.19499018834E+02  0.51100000000E-03 0.  1.
        -12    1    3    3    0    0  0.12819044071E+02 -0.20056998125E+02  0.63578433819E+01  0.24638044507E+02  0.00000000000E+00 0.  1.
</event>
<event>
 7    1  0.2680581E-011  0.5052884E+02  0.7816164E-02  0.1300439E+00
        -11   -1    0    0    0    0  0.00000000000E+00  0.00000000000E+00  0.45593999997E+02  0.45594000000E+02  0.51100000000E-03 0.  1.
         11   -1    0    0    0    0 -0.00000000000E+00 -0.00000000000E+00 -0.45593999997E+02  0.45594000000E+02  0.51100000000E-03 0. -1.
    9900012    2    1    2    0    0  0.26033928750E+02 -0.16230895505E+02  0.26682569409E+02  0.50528844508E+02  0.29999953367E+02 0.  0.
         12    1    1    2    0    0 -0.26033928750E+02  0.16230895505E+02 -0.26682569409E+02  0.40659155492E+02  0.00000000000E+00 0. -1.
         11    1    3    3    0    0  0.37783260315E+01 -0.21229596755E+01  0.15763125388E+02  0.16348052717E+02  0.51100000000E-03 0.  1.
        -11    1    3    3    0    0  0.20905247692E+02 -0.14175275629E+02  0.15344559688E+02  0.29553736355E+02  0.51100000000E-03 0. -1.
        -12    1    3    3    0    0  0.13503550264E+01  0.67339799844E-01 -0.44251156669E+01  0.46270554364E+01  0.00000000000E+00 0.  1.
</event>
<event>
 7    1  0.2680581E-011  0.5052894E+02  0.7816164E-02  0.1300439E+00
        -11   -1    0    0    0    0  0.00000000000E+00  0.00000000000E+00  0.45593999997E+02  0.45594000000E+02  0.51100000000E-03 0.  1.
         11   -1    0    0    0    0 -0.00000000000E+00 -0.00000000000E+00 -0.45593999997E+02  0.45594000000E+02  0.51100000000E-03 0. -1.
    9900012    2    1    2    0    0 -0.12318742903E+01 -0.31923322119E+02  0.25150407840E+02  0.50528941675E+02  0.30000248714E+02 0.  0.
         12    1    1    2    0    0  0.12318742903E+01  0.31923322119E+02 -0.25150407840E+02  0.40659058325E+02  0.00000000000E+00 0. -1.
         11    1    3    3    0    0  0.35135507113E+01 -0.92581878548E+01  0.27235402421E+01  0.10270187567E+02  0.51100000000E-03 0. -1.
        -11    1    3    3    0    0  0.44217833379E+01 -0.10024008923E+02  0.22069627085E+02  0.24639426996E+02  0.51100000000E-03 0.  1.
        -12    1    3    3    0    0 -0.91672083395E+01 -0.12641125341E+02  0.35724051278E+00  0.15619327112E+02  0.00000000000E+00 0.  1.
</event>
<event>
 7    1  0.2680581E-011  0.5052883E+02  0.7816164E-02  0.1300439E+00
        -11   -1    0    0    0    0  0.00000000000E+00  0.00000000000E+00  0.45593999997E+02  0.45594000000E+02  0.51100000000E-03 0.  1.
         11   -1    0    0    0    0 -0.00000000000E+00 -0.00000000000E+00 -0.45593999997E+02  0.45594000000E+02  0.51100000000E-03 0. -1.
    9900012    2    1    2    0    0 -0.21909369458E+02  0.11982882362E+02  0.32086726922E+02  0.50528831486E+02  0.29999913784E+02 0.  0.
         12    1    1    2    0    0  0.21909369458E+02 -0.11982882362E+02 -0.32086726922E+02  0.40659168514E+02  0.00000000000E+00 0. -1.
         11    1    3    3    0    0 -0.13378614075E+02  0.60466035731E+01  0.28226245867E+01  0.14950449463E+02  0.51100000000E-03 0. -1.
        -11    1    3    3    0    0 -0.24178233450E+01 -0.44047398317E+01  0.13708207490E+01  0.52083349066E+01  0.51100000000E-03 0.  1.
        -12    1    3    3    0    0 -0.61129320384E+01  0.10341018620E+02  0.27893281586E+02  0.30370047116E+02  0.00000000000E+00 0.  1.
</event>
<event>
 7    1  0.2680581E-011  0.5052886E+02  0.7816164E-02  0.1300439E+00
        -11   -1    0    0    0    0  0.00000000000E+00  0.00000000000E+00  0.45593999997E+02  0.45594000000E+02  0.51100000000E-03 0.  1.
         11   -1    0    0    0    0 -0.00000000000E+00 -0.00000000000E+00 -0.45593999997E+02  0.45594000000E+02  0.51100000000E-03 0. -1.
    9900012    2    1    2    0    0  0.16557640602E+02  0.19952996495E+02  0.31319133596E+02  0.50528860061E+02  0.30000000640E+02 0.  0.
         12    1    1    2    0    0 -0.16557640602E+02 -0.19952996495E+02 -0.31319133596E+02  0.40659139939E+02  0.00000000000E+00 0. -1.
         11    1    3    3    0    0  0.79208987682E+01  0.47344850566E+01  0.16133891773E+02  0.18586512584E+02  0.51100000000E-03 0. -1.
        -11    1    3    3    0    0 -0.25935830439E+01  0.78122273275E+01  0.16486212267E+02  0.18426957535E+02  0.51100000000E-03 0.  1.
         12    1    3    3    0    0  0.11230324877E+02  0.74062841114E+01 -0.13009704435E+01  0.13515389942E+02  0.00000000000E+00 0. -1.
</event>
<event>
 7    1  0.2680581E-011  0.5052881E+02  0.7816164E-02  0.1300439E+00
        -11   -1    0    0    0    0  0.00000000000E+00  0.00000000000E+00  0.45593999997E+02  0.45594000000E+02  0.51100000000E-03 0.  1.
         11   -1    0    0    0    0 -0.00000000000E+00 -0.00000000000E+00 -0.45593999997E+02  0.45594000000E+02  0.51100000000E-03 0. -1.
    9900012    2    1    2    0    0 -0.30105488890E+02  0.13634827474E+02  0.23683771459E+02  0.50528806550E+02  0.29999837988E+02 0.  0.
         12    1    1    2    0    0  0.30105488890E+02 -0.13634827474E+02 -0.23683771459E+02  0.40659193450E+02  0.00000000000E+00 0. -1.
         11    1    3    3    0    0 -0.73187434326E+01 -0.38560710033E+01 -0.57582399534E-02  0.82724435588E+01  0.51100000000E-03 0. -1.
        -11    1    3    3    0    0 -0.47859004277E+01  0.57424377693E+01 -0.29409130434E+01  0.80330196208E+01  0.51100000000E-03 0.  1.
        -12    1    3    3    0    0 -0.18000845029E+02  0.11748460708E+02  0.26630442742E+02  0.34223343370E+02  0.00000000000E+00 0.  1.
</event>
<event>
 7    1  0.2680581E-011  0.5052885E+02  0.7816164E-02  0.1300439E+00
        -11   -1    0    0    0    0  0.00000000000E+00  0.00000000000E+00  0.45593999997E+02  0.45594000000E+02  0.51100000000E-03 0.  1.
         11   -1    0    0    0    0 -0.00000000000E+00 -0.00000000000E+00 -0.45593999997E+02  0.45594000000E+02  0.51100000000E-03 0. -1.
    9900012    2    1    2    0    0 -0.25668454563E+02 -0.29082022864E+02  0.12187389589E+02  0.50528854921E+02  0.29999985018E+02 0.  0.
         12    1    1    2    0    0  0.25668454563E+02  0.29082022864E+02 -0.12187389589E+02  0.40659145079E+02  0.00000000000E+00 0. -1.
         11    1    3    3    0    0  0.19905319972E+01 -0.95204106915E+01  0.65492050989E+00  0.97483002879E+01  0.51100000000E-03 0. -1.
        -11    1    3    3    0    0 -0.25191390597E+01 -0.10767271256E+02  0.85549522248E+01  0.13980965622E+02  0.51100000000E-03 0.  1.
         12    1    3    3    0    0 -0.25139847501E+02 -0.87943409164E+01  0.29775168547E+01  0.26799589011E+02  0.00000000000E+00 0. -1.
</event>
<event>
 7    1  0.2680581E-011  0.5052886E+02  0.7816164E-02  0.1300439E+00
        -11   -1    0    0    0    0  0.00000000000E+00  0.00000000000E+00  0.45593999997E+02  0.45594000000E+02  0.51100000000E-03 0.  1.
         11   -1    0    0    0    0 -0.00000000000E+00 -0.00000000000E+00 -0.45593999997E+02  0.45594000000E+02  0.51100000000E-03 0. -1.
    9900012    2    1    2    0    0 -0.10761432775E+02 -0.61070363341E+01  0.38730622014E+02  0.50528863146E+02  0.30000010018E+02 0.  0.
         12    1    1    2    0    0  0.10761432775E+02  0.61070363341E+01 -0.38730622014E+02  0.40659136854E+02  0.00000000000E+00 0. -1.
         11    1    3    3    0    0 -0.54137776093E+00  0.57728360098E+01  0.91144064347E+01  0.10802366889E+02  0.51100000000E-03 0. -1.
        -11    1    3    3    0    0  0.32598351046E+01 -0.12524499314E+02  0.13397873901E+02  0.18627738276E+02  0.51100000000E-03 0.  1.
         12    1    3    3    0    0 -0.13479890119E+02  0.64462696971E+00  0.16218341678E+02  0.21098757981E+02  0.00000000000E+00 0. -1.
</event>
<event>
 7    1  0.2680581E-011  0.5052886E+02  0.7816164E-02  0.1300439E+00
        -11   -1    0    0    0    0  0.00000000000E+00  0.00000000000E+00  0.45593999997E+02  0.45594000000E+02  0.51100000000E-03 0. -1.
         11   -1    0    0    0    0 -0.00000000000E+00 -0.00000000000E+00 -0.45593999997E+02  0.45594000000E+02  0.51100000000E-03 0.  1.
    9900012    2    1    2    0    0  0.22775454854E+01  0.39435039990E+02 -0.96361896440E+01  0.50528859043E+02  0.29999997548E+02 0.  0.
         12    1    1    2    0    0 -0.22775454854E+01 -0.39435039990E+02  0.96361896440E+01  0.40659140957E+02  0.00000000000E+00 0. -1.
         11    1    3    3    0    0  0.85725838679E+00  0.51319442495E+00  0.25013213096E+01  0.26934864051E+01  0.51100000000E-03 0. -1.
        -11    1    3    3    0    0 -0.11584447692E+02  0.14956119578E+02 -0.35484166910E+01  0.19247758374E+02  0.51100000000E-03 0.  1.
         12    1    3    3    0    0  0.13004734790E+02  0.23965725987E+02 -0.85890942626E+01  0.28587614264E+02  0.00000000000E+00 0. -1.
</event>
<event>
 7    1  0.2680581E-011  0.5052886E+02  0.7816164E-02  0.1300439E+00
        -11   -1    0    0    0    0  0.00000000000E+00  0.00000000000E+00  0.45593999997E+02  0.45594000000E+02  0.51100000000E-03 0. -1.
         11   -1    0    0    0    0 -0.00000000000E+00 -0.00000000000E+00 -0.45593999997E+02  0.45594000000E+02  0.51100000000E-03 0.  1.
    9900012    2    1    2    0    0  0.33260485430E+02 -0.15842341488E+02 -0.17202493994E+02  0.50528862349E+02  0.30000007597E+02 0.  0.
         12    1    1    2    0    0 -0.33260485430E+02  0.15842341488E+02  0.17202493994E+02  0.40659137651E+02  0.00000000000E+00 0. -1.
         11    1    3    3    0    0  0.29979183910E+01  0.44627357001E+01  0.32492848089E+01  0.62818290838E+01  0.51100000000E-03 0. -1.
        -11    1    3    3    0    0 -0.13347020703E+01  0.45354463370E+00 -0.47537315696E+00  0.14876532696E+01  0.51100000000E-03 0.  1.
         12    1    3    3    0    0  0.31597269110E+02 -0.20758621822E+02 -0.19976405646E+02  0.42759379996E+02  0.00000000000E+00 0. -1.
</event>
<event>
 7    1  0.2680581E-011  0.5052886E+02  0.7816164E-02  0.1300439E+00
        -11   -1    0    0    0    0  0.00000000000E+00  0.00000000000E+00  0.45593999997E+02  0.45594000000E+02  0.51100000000E-03 0.  1.
         11   -1    0    0    0    0 -0.00000000000E+00 -0.00000000000E+00 -0.45593999997E+02  0.45594000000E+02  0.51100000000E-03 0. -1.
    9900012    2    1    2    0    0  0.25828498030E+01  0.62251012244E+01  0.40096665023E+02  0.50528861490E+02  0.30000004985E+02 0.  0.
         12    1    1    2    0    0 -0.25828498030E+01 -0.62251012244E+01 -0.40096665023E+02  0.40659138510E+02  0.00000000000E+00 0. -1.
         11    1    3    3    0    0  0.46063559436E+01 -0.94144886230E-01  0.11570888150E+02  0.12454430183E+02  0.51100000000E-03 0. -1.
        -11    1    3    3    0    0  0.41178044158E+01 -0.58172651284E+01  0.77465701351E+00  0.71691687475E+01  0.51100000000E-03 0.  1.
         12    1    3    3    0    0 -0.61413105564E+01  0.12136511239E+02  0.27751119860E+02  0.30905262560E+02  0.00000000000E+00 0. -1.
</event>
<event>
 7    1  0.2680581E-011  0.5052886E+02  0.7816164E-02  0.1300439E+00
        -11   -1    0    0    0    0  0.00000000000E+00  0.00000000000E+00  0.45593999997E+02  0.45594000000E+02  0.51100000000E-03 0. -1.
         11   -1    0    0    0    0 -0.00000000000E+00 -0.00000000000E+00 -0.45593999997E+02  0.45594000000E+02  0.51100000000E-03 0.  1.
    9900012    2    1    2    0    0 -0.11754495335E+02 -0.37915258057E+02  0.87994894266E+01  0.50528856277E+02  0.29999989141E+02 0.  0.
         12    1    1    2    0    0  0.11754495335E+02  0.37915258057E+02 -0.87994894266E+01  0.40659143723E+02  0.00000000000E+00 0. -1.
         11    1    3    3    0    0 -0.57862529175E+01 -0.11376459012E+02 -0.42312161051E+01  0.13446476582E+02  0.51100000000E-03 0. -1.
        -11    1    3    3    0    0 -0.10670789855E+02 -0.58873035586E+01 -0.52478000195E-01  0.12187241424E+02  0.51100000000E-03 0.  1.
         12    1    3    3    0    0  0.47025474379E+01 -0.20651495486E+02  0.13083183532E+02  0.24895138271E+02  0.00000000000E+00 0. -1.
</event>
<event>
 7    1  0.2680581E-011  0.5052888E+02  0.7816164E-02  0.1300439E+00
        -11   -1    0    0    0    0  0.00000000000E+00  0.00000000000E+00  0.45593999997E+02  0.45594000000E+02  0.51100000000E-03 0.  1.
         11   -1    0    0    0    0 -0.00000000000E+00 -0.00000000000E+00 -0.45593999997E+02  0.45594000000E+02  0.51100000000E-03 0. -1.
    9900012    2    1    2    0    0 -0.31613997267E+02  0.23838489377E+02  0.92436671435E+01  0.50528883172E+02  0.30000070889E+02 0.  0.
         12    1    1    2    0    0  0.31613997267E+02 -0.23838489377E+02 -0.92436671435E+01  0.40659116828E+02  0.00000000000E+00 0. -1.
         11    1    3    3    0    0 -0.86249542150E+01 -0.10269017966E+01 -0.25625034283E+01  0.90559807085E+01  0.51100000000E-03 0. -1.
        -11    1    3    3    0    0 -0.16285743694E+02  0.13327085852E+02 -0.33177598384E+01  0.21303619307E+02  0.51100000000E-03 0.  1.
         12    1    3    3    0    0 -0.67032993578E+01  0.11538305322E+02  0.15123930410E+02  0.20169283156E+02  0.00000000000E+00 0. -1.
</event>
<event>
 7    1  0.2680581E-011  0.5052886E+02  0.7816164E-02  0.1300439E+00
        -11   -1    0    0    0    0  0.00000000000E+00  0.00000000000E+00  0.45593999997E+02  0.45594000000E+02  0.51100000000E-03 0.  1.
         11   -1    0    0    0    0 -0.00000000000E+00 -0.00000000000E+00 -0.45593999997E+02  0.45594000000E+02  0.51100000000E-03 0. -1.
    9900012    2    1    2    0    0 -0.22386749563E+02  0.13260642588E+02  0.31243476848E+02  0.50528855353E+02  0.29999986330E+02 0.  0.
         12    1    1    2    0    0  0.22386749563E+02 -0.13260642588E+02 -0.31243476848E+02  0.40659144647E+02  0.00000000000E+00 0. -1.
         11    1    3    3    0    0  0.15067657146E+01  0.25066729478E+01  0.36862524755E+01  0.47055509518E+01  0.51100000000E-03 0. -1.
        -11    1    3    3    0    0 -0.56290865857E+01 -0.80792129296E+01  0.42290493147E+01  0.10716583211E+02  0.51100000000E-03 0.  1.
        -12    1    3    3    0    0 -0.18264428692E+02  0.18833182570E+02  0.23328175058E+02  0.35106721190E+02  0.00000000000E+00 0.  1.
</event>
<event>
 7    1  0.3006912E-011  0.5052884E+02  0.7816164E-02  0.1300439E+00
        -11   -1    0    0    0    0  0.00000000000E+00  0.00000000000E+00  0.45593999997E+02  0.45594000000E+02  0.51100000000E-03 0. -1.
         11   -1    0    0    0    0 -0.00000000000E+00 -0.00000000000E+00 -0.45593999997E+02  0.45594000000E+02  0.51100000000E-03 0.  1.
    9900012    2    1    2    0    0 -0.38926999992E+02 -0.59681022200E+01 -0.10111253778E+02  0.50528843277E+02  0.29999949625E+02 0.  0.
         12    1    1    2    0    0  0.38926999992E+02  0.59681022200E+01  0.10111253778E+02  0.40659156723E+02  0.00000000000E+00 0. -1.
         11    1    3    3    0    0 -0.65319795642E+01 -0.65046748534E+01  0.50695721625E+01  0.10520366636E+02  0.51100000000E-03 0. -1.
        -11    1    3    3    0    0 -0.22771579818E+02 -0.72580710901E+01 -0.61429310074E+01  0.24677115815E+02  0.51100000000E-03 0.  1.
         12    1    3    3    0    0 -0.96234406099E+01  0.77946437235E+01 -0.90378949336E+01  0.15331360826E+02  0.00000000000E+00 0. -1.
</event>
<event>
 7    1  0.2680581E-011  0.5052887E+02  0.7816164E-02  0.1300439E+00
        -11   -1    0    0    0    0  0.00000000000E+00  0.00000000000E+00  0.45593999997E+02  0.45594000000E+02  0.51100000000E-03 0. -1.
         11   -1    0    0    0    0 -0.00000000000E+00 -0.00000000000E+00 -0.45593999997E+02  0.45594000000E+02  0.51100000000E-03 0.  1.
    9900012    2    1    2    0    0  0.90466697585E+01 -0.37147383320E+02  0.13834528034E+02  0.50528874491E+02  0.30000044502E+02 0.  0.
         12    1    1    2    0    0 -0.90466697585E+01  0.37147383320E+02 -0.13834528034E+02  0.40659125509E+02  0.00000000000E+00 0. -1.
         11    1    3    3    0    0 -0.39554145267E+01 -0.37279498218E+01  0.68651376791E+01  0.87563136974E+01  0.51100000000E-03 0. -1.
        -11    1    3    3    0    0  0.56119288946E+01 -0.16252925601E+02 -0.68706229210E+01  0.18516392632E+02  0.51100000000E-03 0.  1.
         12    1    3    3    0    0  0.73901553906E+01 -0.17166507897E+02  0.13840013276E+02  0.23256168162E+02  0.00000000000E+00 0. -1.
</event>
<event>
 7    1  0.2680581E-011  0.5052885E+02  0.7816164E-02  0.1300439E+00
        -11   -1    0    0    0    0  0.00000000000E+00  0.00000000000E+00  0.45593999997E+02  0.45594000000E+02  0.51100000000E-03 0.  1.
         11   -1    0    0    0    0 -0.00000000000E+00 -0.00000000000E+00 -0.45593999997E+02  0.45594000000E+02  0.51100000000E-03 0. -1.
    9900012    2    1    2    0    0 -0.31203529102E+02 -0.25933882252E+02  0.26343563974E+01  0.50528852066E+02  0.29999976339E+02 0.  0.
         12    1    1    2    0    0  0.31203529102E+02  0.25933882252E+02 -0.26343563974E+01  0.40659147934E+02  0.00000000000E+00 0. -1.
         11    1    3    3    0    0 -0.23576107102E+02 -0.41002822155E+01  0.15460893741E+01  0.23979898519E+02  0.51100000000E-03 0. -1.
        -11    1    3    3    0    0 -0.49761672758E+01 -0.51144460398E+01 -0.48293147467E+01  0.86163844062E+01  0.51100000000E-03 0.  1.
        -12    1    3    3    0    0 -0.26512547241E+01 -0.16719153997E+02  0.59175817701E+01  0.17932569141E+02  0.00000000000E+00 0.  1.
</event>
<event>
 7    1  0.2680581E-011  0.5052885E+02  0.7816164E-02  0.1300439E+00
        -11   -1    0    0    0    0  0.00000000000E+00  0.00000000000E+00  0.45593999997E+02  0.45594000000E+02  0.51100000000E-03 0. -1.
         11   -1    0    0    0    0 -0.00000000000E+00 -0.00000000000E+00 -0.45593999997E+02  0.45594000000E+02  0.51100000000E-03 0.  1.
    9900012    2    1    2    0    0  0.18991917708E+02 -0.35428627426E+02  0.61061891224E+01  0.50528854348E+02  0.29999983277E+02 0.  0.
         12    1    1    2    0    0 -0.18991917708E+02  0.35428627426E+02 -0.61061891224E+01  0.40659145652E+02  0.00000000000E+00 0. -1.
         11    1    3    3    0    0 -0.11100936255E+01 -0.75127329013E+01  0.91638250299E+01  0.11901644968E+02  0.51100000000E-03 0. -1.
        -11    1    3    3    0    0  0.13683776237E+02 -0.15366273304E+02  0.65215513736E+01  0.21584687163E+02  0.51100000000E-03 0.  1.
         12    1    3    3    0    0  0.64182350968E+01 -0.12549621221E+02 -0.95791872811E+01  0.17042522217E+02  0.00000000000E+00 0. -1.
</event>
<event>
 7    1  0.2680581E-011  0.5052886E+02  0.7816164E-02  0.1300439E+00
        -11   -1    0    0    0    0  0.00000000000E+00  0.00000000000E+00  0.45593999997E+02  0.45594000000E+02  0.51100000000E-03 0.  1.
         11   -1    0    0    0    0 -0.00000000000E+00 -0.00000000000E+00 -0.45593999997E+02  0.45594000000E+02  0.51100000000E-03 0. -1.
    9900012    2    1    2    0    0 -0.32115244259E+02  0.18394599636E+01  0.24867507564E+02  0.50528862537E+02  0.30000008169E+02 0.  0.
         12    1    1    2    0    0  0.32115244259E+02 -0.18394599636E+01 -0.24867507564E+02  0.40659137463E+02  0.00000000000E+00 0. -1.
         11    1    3    3    0    0 -0.93367779642E+01  0.46286983428E+00 -0.61638762287E+01  0.11197456928E+02  0.51100000000E-03 0. -1.
        -11    1    3    3    0    0 -0.13407620364E+02 -0.28242539339E+01  0.20170491443E+02  0.24384204302E+02  0.51100000000E-03 0.  1.
        -12    1    3    3    0    0 -0.93708459310E+01  0.42008440632E+01  0.10860892349E+02  0.14947201308E+02  0.00000000000E+00 0.  1.
</event>
<event>
 7    1  0.2680581E-011  0.5052886E+02  0.7816164E-02  0.1300439E+00
        -11   -1    0    0    0    0  0.00000000000E+00  0.00000000000E+00  0.45593999997E+02  0.45594000000E+02  0.51100000000E-03 0. -1.
         11   -1    0    0    0    0 -0.00000000000E+00 -0.00000000000E+00 -0.45593999997E+02  0.45594000000E+02  0.51100000000E-03 0.  1.
    9900012    2    1    2    0    0 -0.12906817209E+02 -0.34022700459E+02 -0.18139329844E+02  0.50528863706E+02  0.30000011721E+02 0.  0.
         12    1    1    2    0    0  0.12906817209E+02  0.34022700459E+02  0.18139329844E+02  0.40659136294E+02  0.00000000000E+00 0. -1.
         11    1    3    3    0    0 -0.68298010479E+01 -0.11586112644E+02  0.14882905270E+00  0.13450142709E+02  0.51100000000E-03 0. -1.
        -11    1    3    3    0    0  0.68736446697E+01 -0.13011694493E+02 -0.31692948535E+01  0.15053093195E+02  0.51100000000E-03 0.  1.
         12    1    3    3    0    0 -0.12950660831E+02 -0.94248933224E+01 -0.15118864043E+02  0.22025627802E+02  0.00000000000E+00 0. -1.
</event>
<event>
 7    1  0.2680581E-011  0.5052886E+02  0.7816164E-02  0.1300439E+00
        -11   -1    0    0    0    0  0.00000000000E+00  0.00000000000E+00  0.45593999997E+02  0.45594000000E+02  0.51100000000E-03 0. -1.
         11   -1    0    0    0    0 -0.00000000000E+00 -0.00000000000E+00 -0.45593999997E+02  0.45594000000E+02  0.51100000000E-03 0.  1.
    9900012    2    1    2    0    0 -0.20352519651E+02  0.25381636648E+02 -0.24386744811E+02  0.50528857638E+02  0.29999993278E+02 0.  0.
         12    1    1    2    0    0  0.20352519651E+02 -0.25381636648E+02  0.24386744811E+02  0.40659142362E+02  0.00000000000E+00 0. -1.
         11    1    3    3    0    0 -0.15079746786E+02  0.13090156559E+02 -0.21444956554E+02  0.29302510536E+02  0.51100000000E-03 0. -1.
        -11    1    3    3    0    0  0.13710284500E+01 -0.48993835249E+00 -0.62741824215E+01  0.64408946521E+01  0.51100000000E-03 0.  1.
         12    1    3    3    0    0 -0.66438013157E+01  0.12781418441E+02  0.33323941642E+01  0.14785452450E+02  0.00000000000E+00 0. -1.
</event>
<event>
 7    1  0.2680581E-011  0.5052884E+02  0.7816164E-02  0.1300439E+00
        -11   -1    0    0    0    0  0.00000000000E+00  0.00000000000E+00  0.45593999997E+02  0.45594000000E+02  0.51100000000E-03 0.  1.
         11   -1    0    0    0    0 -0.00000000000E+00 -0.00000000000E+00 -0.45593999997E+02  0.45594000000E+02  0.51100000000E-03 0. -1.
    9900012    2    1    2    0    0 -0.23482060505E+02  0.13908169323E+02  0.30138399583E+02  0.50528837824E+02  0.29999933049E+02 0.  0.
         12    1    1    2    0    0  0.23482060505E+02 -0.13908169323E+02 -0.30138399583E+02  0.40659162176E+02  0.00000000000E+00 0. -1.
         11    1    3    3    0    0 -0.12552411923E+02  0.13625913069E+02  0.23404237779E+02  0.29849403651E+02  0.51100000000E-03 0.  1.
        -11    1    3    3    0    0 -0.61547074559E+01 -0.48488381146E+01  0.10198534847E+02  0.12860861877E+02  0.51100000000E-03 0. -1.
         12    1    3    3    0    0 -0.47749411261E+01  0.51310943678E+01 -0.34643730425E+01  0.78185722960E+01  0.00000000000E+00 0. -1.
</event>
<event>
 7    1  0.2680581E-011  0.5052885E+02  0.7816164E-02  0.1300439E+00
        -11   -1    0    0    0    0  0.00000000000E+00  0.00000000000E+00  0.45593999997E+02  0.45594000000E+02  0.51100000000E-03 0.  1.
         11   -1    0    0    0    0 -0.00000000000E+00 -0.00000000000E+00 -0.45593999997E+02  0.45594000000E+02  0.51100000000E-03 0. -1.
    9900012    2    1    2    0    0 -0.25111167947E+02  0.56317869659E+01  0.31478223810E+02  0.50528851530E+02  0.29999974709E+02 0.  0.
         12    1    1    2    0    0  0.25111167947E+02 -0.56317869659E+01 -0.31478223810E+02  0.40659148470E+02  0.00000000000E+00 0. -1.
         11    1    3    3    0    0  0.37316247955E+01  0.13729821995E+01  0.27090546793E+01  0.48113492132E+01  0.51100000000E-03 0. -1.
        -11    1    3    3    0    0 -0.64798782970E+01  0.57030018691E+01  0.19763070215E+02  0.21565991692E+02  0.51100000000E-03 0.  1.
        -12    1    3    3    0    0 -0.22362914446E+02 -0.14441971027E+01  0.90060989159E+01  0.24151510625E+02  0.00000000000E+00 0.  1.
</event>
<event>
 7    1  0.2680581E-011  0.5052886E+02  0.7816164E-02  0.1300439E+00
        -11   -1    0    0    0    0  0.00000000000E+00  0.00000000000E+00  0.45593999997E+02  0.45594000000E+02  0.51100000000E-03 0.  1.
         11   -1    0    0    0    0 -0.00000000000E+00 -0.00000000000E+00 -0.45593999997E+02  0.45594000000E+02  0.51100000000E-03 0. -1.
    9900012    2    1    2    0    0  0.68201553414E+01 -0.23230437301E+02  0.32664933138E+02  0.50528860892E+02  0.30000003167E+02 0.  0.
         12    1    1    2    0    0 -0.68201553414E+01  0.23230437301E+02 -0.32664933138E+02  0.40659139108E+02  0.00000000000E+00 0. -1.
         11    1    3    3    0    0  0.60820472528E+01 -0.12854054780E+02  0.11061500606E+02  0.18015960118E+02  0.51100000000E-03 0. -1.
        -11    1    3    3    0    0 -0.19957649530E+01  0.62450551361E+01  0.10360800237E+02  0.12260912413E+02  0.51100000000E-03 0.  1.
         12    1    3    3    0    0  0.27338730416E+01 -0.16621437657E+02  0.11242632296E+02  0.20251988360E+02  0.00000000000E+00 0. -1.
</event>
<event>
 7    1  0.2680581E-011  0.5052886E+02  0.7816164E-02  0.1300439E+00
        -11   -1    0    0    0    0  0.00000000000E+00  0.00000000000E+00  0.45593999997E+02  0.45594000000E+02  0.51100000000E-03 0.  1.
         11   -1    0    0    0    0 -0.00000000000E+00 -0.00000000000E+00 -0.45593999997E+02  0.45594000000E+02  0.51100000000E-03 0. -1.
    9900012    2    1    2    0    0  0.14277091981E+02  0.32898948633E+02  0.19156959331E+02  0.50528864896E+02  0.30000015339E+02 0.  0.
         12    1    1    2    0    0 -0.14277091981E+02 -0.32898948633E+02 -0.19156959331E+02  0.40659135104E+02  0.00000000000E+00 0. -1.
         11    1    3    3    0    0  0.24079043709E+01  0.60597112959E+01 -0.18901058457E+01  0.67890061731E+01  0.51100000000E-03 0. -1.
        -11    1    3    3    0    0 -0.65730098197E+01  0.15133394375E+02  0.89632452813E+01  0.18776683670E+02  0.51100000000E-03 0.  1.
         12    1    3    3    0    0  0.18442197430E+02  0.11705842961E+02  0.12083819895E+02  0.24963175053E+02  0.00000000000E+00 0. -1.
</event>
<event>
 7    1  0.2680581E-011  0.5052887E+02  0.7816164E-02  0.1300439E+00
        -11   -1    0    0    0    0  0.00000000000E+00  0.00000000000E+00  0.45593999997E+02  0.45594000000E+02  0.51100000000E-03 0. -1.
         11   -1    0    0    0    0 -0.00000000000E+00 -0.00000000000E+00 -0.45593999997E+02  0.45594000000E+02  0.51100000000E-03 0.  1.
    9900012    2    1    2    0    0 -0.39308420126E+02  0.30777131904E+01  0.99267746221E+01  0.50528867376E+02  0.30000022878E+02 0.  0.
         12    1    1    2    0    0  0.39308420126E+02 -0.30777131904E+01 -0.99267746221E+01  0.40659132624E+02  0.00000000000E+00 0. -1.
         11    1    3    3    0    0 -0.10209735713E+02  0.83955995012E+01 -0.41318250904E+01  0.13849071202E+02  0.51100000000E-03 0. -1.
        -11    1    3    3    0    0 -0.15092585801E+02  0.45583881693E+01  0.11116757181E+02  0.19291120739E+02  0.51100000000E-03 0.  1.
         12    1    3    3    0    0 -0.14006098612E+02 -0.98762744801E+01  0.29418425311E+01  0.17388675436E+02  0.00000000000E+00 0. -1.
</event>
<event>
 7    1  0.2680581E-011  0.5052886E+02  0.7816164E-02  0.1300439E+00
        -11   -1    0    0    0    0  0.00000000000E+00  0.00000000000E+00  0.45593999997E+02  0.45594000000E+02  0.51100000000E-03 0.  1.
         11   -1    0    0    0    0 -0.00000000000E+00 -0.00000000000E+00 -0.45593999997E+02  0.45594000000E+02  0.51100000000E-03 0. -1.
    9900012    2    1    2    0    0  0.38809527401E+02 -0.68283998646E+01 -0.10017927496E+02  0.50528864088E+02  0.30000012882E+02 0.  0.
         12    1    1    2    0    0 -0.38809527401E+02  0.68283998646E+01  0.10017927496E+02  0.40659135912E+02  0.00000000000E+00 0. -1.
         11    1    3    3    0    0  0.85426974869E+01 -0.56265066728E+01  0.69022314726E+01  0.12340018527E+02  0.51100000000E-03 0. -1.
        -11    1    3    3    0    0 -0.10240026994E+01 -0.43252863774E+00  0.15027995916E+01  0.18692430084E+01  0.51100000000E-03 0.  1.
         12    1    3    3    0    0  0.31290832614E+02 -0.76936455415E+00 -0.18422958560E+02  0.36319602552E+02  0.00000000000E+00 0. -1.
</event>
<event>
 7    1  0.2680581E-011  0.5052880E+02  0.7816164E-02  0.1300439E+00
        -11   -1    0    0    0    0  0.00000000000E+00  0.00000000000E+00  0.45593999997E+02  0.45594000000E+02  0.51100000000E-03 0. -1.
         11   -1    0    0    0    0 -0.00000000000E+00 -0.00000000000E+00 -0.45593999997E+02  0.45594000000E+02  0.51100000000E-03 0.  1.
    9900012    2    1    2    0    0  0.40002750794E+02  0.19663262921E+00 -0.72740505915E+01  0.50528799965E+02  0.29999817975E+02 0.  0.
         12    1    1    2    0    0 -0.40002750794E+02 -0.19663262921E+00  0.72740505915E+01  0.40659200035E+02  0.00000000000E+00 0. -1.
         11    1    3    3    0    0  0.23397115357E+01 -0.44764596197E+01 -0.49678001486E+01  0.70846297980E+01  0.51100000000E-03 0.  1.
        -11    1    3    3    0    0  0.35702237271E+02  0.13594102667E+00  0.34362077984E+01  0.35867474826E+02  0.51100000000E-03 0. -1.
         12    1    3    3    0    0  0.19608019872E+01  0.45371512223E+01 -0.57424582413E+01  0.75766953416E+01  0.00000000000E+00 0. -1.
</event>
<event>
 7    1  0.2680581E-011  0.5052886E+02  0.7816164E-02  0.1300439E+00
        -11   -1    0    0    0    0  0.00000000000E+00  0.00000000000E+00  0.45593999997E+02  0.45594000000E+02  0.51100000000E-03 0.  1.
         11   -1    0    0    0    0 -0.00000000000E+00 -0.00000000000E+00 -0.45593999997E+02  0.45594000000E+02  0.51100000000E-03 0. -1.
    9900012    2    1    2    0    0 -0.39162327211E+02  0.61798201414E+01  0.90159503945E+01  0.50528863129E+02  0.30000009966E+02 0.  0.
         12    1    1    2    0    0  0.39162327211E+02 -0.61798201414E+01 -0.90159503945E+01  0.40659136871E+02  0.00000000000E+00 0. -1.
         11    1    3    3    0    0  0.98136345394E+00 -0.63195399714E+01  0.91625898649E+00  0.64605874710E+01  0.51100000000E-03 0. -1.
        -11    1    3    3    0    0 -0.17956950486E+02  0.66001966303E+00  0.54698266789E+01  0.18783149386E+02  0.51100000000E-03 0.  1.
        -12    1    3    3    0    0 -0.22186740180E+02  0.11839340450E+02  0.26298647291E+01  0.25285126272E+02  0.00000000000E+00 0.  1.
</event>
<event>
 7    1  0.2680581E-011  0.5052886E+02  0.7816164E-02  0.1300439E+00
        -11   -1    0    0    0    0  0.00000000000E+00  0.00000000000E+00  0.45593999997E+02  0.45594000000E+02  0.51100000000E-03 0. -1.
         11   -1    0    0    0    0 -0.00000000000E+00 -0.00000000000E+00 -0.45593999997E+02  0.45594000000E+02  0.51100000000E-03 0.  1.
    9900012    2    1    2    0    0  0.10824792156E+02  0.36779672721E+02 -0.13536824039E+02  0.50528855201E+02  0.29999985870E+02 0.  0.
         12    1    1    2    0    0 -0.10824792156E+02 -0.36779672721E+02  0.13536824039E+02  0.40659144799E+02  0.00000000000E+00 0. -1.
         11    1    3    3    0    0  0.13774327581E+02  0.23008999108E+02 -0.95696319518E+01  0.28473215418E+02  0.51100000000E-03 0. -1.
        -11    1    3    3    0    0  0.49961100354E+01  0.10494901077E+02 -0.62031964616E+01  0.13175117104E+02  0.51100000000E-03 0.  1.
         12    1    3    3    0    0 -0.79456454608E+01  0.32757725356E+01  0.22360043743E+01  0.88805226792E+01  0.00000000000E+00 0. -1.
</event>
<event>
 7    1  0.2680581E-011  0.5052886E+02  0.7816164E-02  0.1300439E+00
        -11   -1    0    0    0    0  0.00000000000E+00  0.00000000000E+00  0.45593999997E+02  0.45594000000E+02  0.51100000000E-03 0. -1.
         11   -1    0    0    0    0 -0.00000000000E+00 -0.00000000000E+00 -0.45593999997E+02  0.45594000000E+02  0.51100000000E-03 0.  1.
    9900012    2    1    2    0    0 -0.36514032637E+02 -0.22754002130E+01  0.17740178365E+02  0.50528856453E+02  0.29999989675E+02 0.  0.
         12    1    1    2    0    0  0.36514032637E+02  0.22754002130E+01 -0.17740178365E+02  0.40659143547E+02  0.00000000000E+00 0. -1.
         11    1    3    3    0    0 -0.11710906279E+02 -0.39964883535E+01  0.13468114502E+02  0.18289542190E+02  0.51100000000E-03 0. -1.
        -11    1    3    3    0    0 -0.24343147595E+02 -0.41469279828E+01  0.71209848019E+01  0.25700083100E+02  0.51100000000E-03 0.  1.
        -12    1    3    3    0    0 -0.45997876260E+00  0.58680161233E+01 -0.28489209385E+01  0.65392311627E+01  0.00000000000E+00 0.  1.
</event>
<event>
 7    1  0.2680581E-011  0.5052886E+02  0.7816164E-02  0.1300439E+00
        -11   -1    0    0    0    0  0.00000000000E+00  0.00000000000E+00  0.45593999997E+02  0.45594000000E+02  0.51100000000E-03 0. -1.
         11   -1    0    0    0    0 -0.00000000000E+00 -0.00000000000E+00 -0.45593999997E+02  0.45594000000E+02  0.51100000000E-03 0.  1.
    9900012    2    1    2    0    0 -0.13486916021E+02  0.21374908947E+01 -0.38297521964E+02  0.50528856383E+02  0.29999989461E+02 0.  0.
         12    1    1    2    0    0  0.13486916021E+02 -0.21374908947E+01  0.38297521964E+02  0.40659143617E+02  0.00000000000E+00 0. -1.
         11    1    3    3    0    0 -0.20671554293E+00  0.47349786493E+01 -0.61575375699E+00  0.47793207755E+01  0.51100000000E-03 0. -1.
        -11    1    3    3    0    0 -0.16484034669E+02  0.80045481463E+00 -0.37617996798E+02  0.41078921727E+02  0.51100000000E-03 0.  1.
         12    1    3    3    0    0  0.32038341914E+01 -0.33979425693E+01 -0.63771409795E-01  0.46706138807E+01  0.00000000000E+00 0. -1.
</event>
<event>
 7    1  0.2680581E-011  0.5052887E+02  0.7816164E-02  0.1300439E+00
        -11   -1    0    0    0    0  0.00000000000E+00  0.00000000000E+00  0.45593999997E+02  0.45594000000E+02  0.51100000000E-03 0.  1.
         11   -1    0    0    0    0 -0.00000000000E+00 -0.00000000000E+00 -0.45593999997E+02  0.45594000000E+02  0.51100000000E-03 0. -1.
    9900012    2    1    2    0    0  0.23630167755E+02 -0.16337380392E+02  0.28772736267E+02  0.50528865989E+02  0.30000018661E+02 0.  0.
         12    1    1    2    0    0 -0.23630167755E+02  0.16337380392E+02 -0.28772736267E+02  0.40659134011E+02  0.00000000000E+00 0. -1.
         11    1    3    3    0    0  0.57575251687E+00 -0.83132527645E+01  0.62960789575E+01  0.10444245927E+02  0.51100000000E-03 0. -1.
        -11    1    3    3    0    0  0.19439122362E+02 -0.15460861256E+02  0.18063754628E+02  0.30711837140E+02  0.51100000000E-03 0.  1.
        -12    1    3    3    0    0  0.36152928757E+01  0.74367336282E+01  0.44129026820E+01  0.93727829226E+01  0.00000000000E+00 0.  1.
</event>
<event>
 7    1  0.2680581E-011  0.5052887E+02  0.7816164E-02  0.1300439E+00
        -11   -1    0    0    0    0  0.00000000000E+00  0.00000000000E+00  0.45593999997E+02  0.45594000000E+02  0.51100000000E-03 0. -1.
         11   -1    0    0    0    0 -0.00000000000E+00 -0.00000000000E+00 -0.45593999997E+02  0.45594000000E+02  0.51100000000E-03 0.  1.
    9900012    2    1    2    0    0 -0.79102567850E+01 -0.61180172501E+01 -0.39410183438E+02  0.50528869955E+02  0.30000030714E+02 0.  0.
         12    1    1    2    0    0  0.79102567850E+01  0.61180172501E+01  0.39410183438E+02  0.40659130045E+02  0.00000000000E+00 0. -1.
         11    1    3    3    0    0  0.10036687297E+01  0.28288419161E+01 -0.26410750446E+02  0.26580771939E+02  0.51100000000E-03 0. -1.
        -11    1    3    3    0    0 -0.63843476576E+01 -0.68692174520E+01 -0.16609999818E+02  0.19074541610E+02  0.51100000000E-03 0.  1.
        -12    1    3    3    0    0 -0.25295778571E+01 -0.20776417142E+01  0.36105668264E+01  0.48735564053E+01  0.00000000000E+00 0.  1.
</event>
<event>
 7    1  0.2680581E-011  0.5052886E+02  0.7816164E-02  0.1300439E+00
        -11   -1    0    0    0    0  0.00000000000E+00  0.00000000000E+00  0.45593999997E+02  0.45594000000E+02  0.51100000000E-03 0.  1.
         11   -1    0    0    0    0 -0.00000000000E+00 -0.00000000000E+00 -0.45593999997E+02  0.45594000000E+02  0.51100000000E-03 0. -1.
    9900012    2    1    2    0    0 -0.28434286923E+02  0.25288243228E+01  0.28952757815E+02  0.50528858219E+02  0.29999995043E+02 0.  0.
         12    1    1    2    0    0  0.28434286923E+02 -0.25288243228E+01 -0.28952757815E+02  0.40659141781E+02  0.00000000000E+00 0. -1.
         11    1    3    3    0    0  0.37756699075E+01  0.54706033549E+00  0.65920783297E+01  0.76164594942E+01  0.51100000000E-03 0. -1.
        -11    1    3    3    0    0 -0.12118649817E+02  0.24094600092E+01  0.18810132499E+02  0.22505293951E+02  0.51100000000E-03 0.  1.
        -12    1    3    3    0    0 -0.20091307013E+02 -0.42769602191E+00  0.35505469866E+01  0.20407104774E+02  0.00000000000E+00 0.  1.
</event>
<event>
 7    1  0.2680581E-011  0.5052885E+02  0.7816164E-02  0.1300439E+00
        -11   -1    0    0    0    0  0.00000000000E+00  0.00000000000E+00  0.45593999997E+02  0.45594000000E+02  0.51100000000E-03 0. -1.
         11   -1    0    0    0    0 -0.00000000000E+00 -0.00000000000E+00 -0.45593999997E+02  0.45594000000E+02  0.51100000000E-03 0.  1.
    9900012    2    1    2    0    0 -0.11322853031E+02  0.20498222014E+02 -0.33238267246E+02  0.50528849541E+02  0.29999968665E+02 0.  0.
         12    1    1    2    0    0  0.11322853031E+02 -0.20498222014E+02  0.33238267246E+02  0.40659150459E+02  0.00000000000E+00 0. -1.
         11    1    3    3    0    0  0.48432285800E+01  0.22091874664E+01  0.17132682936E+01  0.55921964242E+01  0.51100000000E-03 0. -1.
        -11    1    3    3    0    0 -0.28736200808E+01 -0.23369156337E+01 -0.47383020009E+01  0.60141810050E+01  0.51100000000E-03 0.  1.
         12    1    3    3    0    0 -0.13292461530E+02  0.20625950182E+02 -0.30213233539E+02  0.38922472112E+02  0.00000000000E+00 0. -1.
</event>
<event>
 7    1  0.3533534E-011  0.5052886E+02  0.7816164E-02  0.1300439E+00
        -11   -1    0    0    0    0  0.00000000000E+00  0.00000000000E+00  0.45593999997E+02  0.45594000000E+02  0.51100000000E-03 0. -1.
         11   -1    0    0    0    0 -0.00000000000E+00 -0.00000000000E+00 -0.45593999997E+02  0.45594000000E+02  0.51100000000E-03 0.  1.
    9900012    2    1    2    0    0  0.22663567920E+02 -0.12083501737E+02 -0.31520105446E+02  0.50528863604E+02  0.30000011411E+02 0.  0.
         12    1    1    2    0    0 -0.22663567920E+02  0.12083501737E+02  0.31520105446E+02  0.40659136396E+02  0.00000000000E+00 0. -1.
         11    1    3    3    0    0  0.87140914291E+00 -0.50039618256E+01  0.39386381156E+01  0.64274301485E+01  0.51100000000E-03 0. -1.
        -11    1    3    3    0    0  0.15963444834E+02 -0.18846428286E+01 -0.14178012365E+02  0.21433606426E+02  0.51100000000E-03 0.  1.
        -12    1    3    3    0    0  0.58287139437E+01 -0.51948970829E+01 -0.21280731197E+02  0.22667827029E+02  0.00000000000E+00 0.  1.
</event>
<event>
 7    1  0.2680581E-011  0.5052885E+02  0.7816164E-02  0.1300439E+00
        -11   -1    0    0    0    0  0.00000000000E+00  0.00000000000E+00  0.45593999997E+02  0.45594000000E+02  0.51100000000E-03 0.  1.
         11   -1    0    0    0    0 -0.00000000000E+00 -0.00000000000E+00 -0.45593999997E+02  0.45594000000E+02  0.51100000000E-03 0. -1.
    9900012    2    1    2    0    0 -0.26280725810E+02  0.13392297175E+02  0.27984566012E+02  0.50528854564E+02  0.29999983933E+02 0.  0.
         12    1    1    2    0    0  0.26280725810E+02 -0.13392297175E+02 -0.27984566012E+02  0.40659145436E+02  0.00000000000E+00 0. -1.
         11    1    3    3    0    0 -0.76363303733E+01  0.13254995256E+01  0.77966735361E+01  0.10993571260E+02  0.51100000000E-03 0. -1.
        -11    1    3    3    0    0 -0.52523539089E+00  0.54321670496E+01  0.19476332465E+02  0.20226513234E+02  0.51100000000E-03 0.  1.
         12    1    3    3    0    0 -0.18119160045E+02  0.66346306000E+01  0.71156001052E+00  0.19308770070E+02  0.00000000000E+00 0. -1.
</event>
<event>
 7    1  0.2680581E-011  0.5052888E+02  0.7816164E-02  0.1300439E+00
        -11   -1    0    0    0    0  0.00000000000E+00  0.00000000000E+00  0.45593999997E+02  0.45594000000E+02  0.51100000000E-03 0.  1.
         11   -1    0    0    0    0 -0.00000000000E+00 -0.00000000000E+00 -0.45593999997E+02  0.45594000000E+02  0.51100000000E-03 0. -1.
    9900012    2    1    2    0    0 -0.38654140385E+02  0.52880577638E+00 -0.12599270300E+02  0.50528882738E+02  0.30000069570E+02 0.  0.
         12    1    1    2    0    0  0.38654140385E+02 -0.52880577638E+00  0.12599270300E+02  0.40659117262E+02  0.00000000000E+00 0. -1.
         11    1    3    3    0    0 -0.14200161955E+02 -0.38940042452E+01  0.52593978743E+01  0.15635508782E+02  0.51100000000E-03 0. -1.
        -11    1    3    3    0    0 -0.12181306993E+02  0.51948905207E+01 -0.39260769707E-01  0.13242834638E+02  0.51100000000E-03 0.  1.
         12    1    3    3    0    0 -0.12272671437E+02 -0.77208049910E+00 -0.17819407405E+02  0.21650539318E+02  0.00000000000E+00 0. -1.
</event>
<event>
 7    1  0.2680581E-011  0.5052886E+02  0.7816164E-02  0.1300439E+00
        -11   -1    0    0    0    0  0.00000000000E+00  0.00000000000E+00  0.45593999997E+02  0.45594000000E+02  0.51100000000E-03 0. -1.
         11   -1    0    0    0    0 -0.00000000000E+00 -0.00000000000E+00 -0.45593999997E+02  0.45594000000E+02  0.51100000000E-03 0.  1.
    9900012    2    1    2    0    0  0.37281339345E+02  0.15334301918E+02 -0.53034308231E+01  0.50528862562E+02  0.30000008244E+02 0.  0.
         12    1    1    2    0    0 -0.37281339345E+02 -0.15334301918E+02  0.53034308231E+01  0.40659137438E+02  0.00000000000E+00 0. -1.
         11    1    3    3    0    0  0.76174881518E+01 -0.55587488015E+01  0.31539106921E+01  0.99434886683E+01  0.51100000000E-03 0.  1.
        -11    1    3    3    0    0  0.17973054044E+01  0.90166515181E+01 -0.23315470541E+00  0.91969925897E+01  0.51100000000E-03 0. -1.
        -12    1    3    3    0    0  0.27866545789E+02  0.11876399201E+02 -0.82241868098E+01  0.31388381304E+02  0.00000000000E+00 0.  1.
</event>
<event>
 7    1  0.2680581E-011  0.5052881E+02  0.7816164E-02  0.1300439E+00
        -11   -1    0    0    0    0  0.00000000000E+00  0.00000000000E+00  0.45593999997E+02  0.45594000000E+02  0.51100000000E-03 0.  1.
         11   -1    0    0    0    0 -0.00000000000E+00 -0.00000000000E+00 -0.45593999997E+02  0.45594000000E+02  0.51100000000E-03 0. -1.
    9900012    2    1    2    0    0  0.39476672588E+01  0.38735928207E+02 -0.11709546029E+02  0.50528810645E+02  0.29999850435E+02 0.  0.
         12    1    1    2    0    0 -0.39476672588E+01 -0.38735928207E+02  0.11709546029E+02  0.40659189355E+02  0.00000000000E+00 0. -1.
         11    1    3    3    0    0 -0.70002798914E+01  0.15631395948E+02  0.20894308570E+01  0.17254280032E+02  0.51100000000E-03 0. -1.
        -11    1    3    3    0    0  0.56074756916E+01  0.40488525857E+01  0.27835555266E+01  0.74555464270E+01  0.51100000000E-03 0.  1.
        -12    1    3    3    0    0  0.53404714586E+01  0.19055679673E+02 -0.16582532412E+02  0.25818984186E+02  0.00000000000E+00 0.  1.
</event>
<event>
 7    1  0.2680581E-011  0.5052886E+02  0.7816164E-02  0.1300439E+00
        -11   -1    0    0    0    0  0.00000000000E+00  0.00000000000E+00  0.45593999997E+02  0.45594000000E+02  0.51100000000E-03 0. -1.
         11   -1    0    0    0    0 -0.00000000000E+00 -0.00000000000E+00 -0.45593999997E+02  0.45594000000E+02  0.51100000000E-03 0.  1.
    9900012    2    1    2    0    0  0.39667146544E+02  0.69761601260E+01  0.55692064663E+01  0.50528863442E+02  0.30000010917E+02 0.  0.
         12    1    1    2    0    0 -0.39667146544E+02 -0.69761601260E+01 -0.55692064663E+01  0.40659136558E+02  0.00000000000E+00 0. -1.
         11    1    3    3    0    0  0.27504436754E+01  0.96883111991E+01  0.23153373374E+01  0.10333881243E+02  0.51100000000E-03 0. -1.
        -11    1    3    3    0    0  0.14317223929E+01 -0.48093563867E+00 -0.36730478663E+01  0.39714492302E+01  0.51100000000E-03 0.  1.
        -12    1    3    3    0    0  0.35484980475E+02 -0.22312154344E+01  0.69269169952E+01  0.36223532968E+02  0.00000000000E+00 0.  1.
</event>
<event>
 7    1  0.2680581E-011  0.5052886E+02  0.7816164E-02  0.1300439E+00
        -11   -1    0    0    0    0  0.00000000000E+00  0.00000000000E+00  0.45593999997E+02  0.45594000000E+02  0.51100000000E-03 0.  1.
         11   -1    0    0    0    0 -0.00000000000E+00 -0.00000000000E+00 -0.45593999997E+02  0.45594000000E+02  0.51100000000E-03 0. -1.
    9900012    2    1    2    0    0  0.16155049093E+02 -0.24840000908E+02  0.27841600598E+02  0.50528856131E+02  0.29999988696E+02 0.  0.
         12    1    1    2    0    0 -0.16155049093E+02  0.24840000908E+02 -0.27841600598E+02  0.40659143869E+02  0.00000000000E+00 0. -1.
         11    1    3    3    0    0  0.14935825929E+02 -0.89105859696E+01  0.15658785796E+01  0.17462228222E+02  0.51100000000E-03 0. -1.
        -11    1    3    3    0    0  0.16399815510E+01 -0.13674522102E+02  0.11017916252E+02  0.17637362983E+02  0.51100000000E-03 0.  1.
        -12    1    3    3    0    0 -0.42075838726E+00 -0.22548928366E+01  0.15257805767E+02  0.15429264925E+02  0.00000000000E+00 0.  1.
</event>
<event>
 7    1  0.2680581E-011  0.5052887E+02  0.7816164E-02  0.1300439E+00
        -11   -1    0    0    0    0  0.00000000000E+00  0.00000000000E+00  0.45593999997E+02  0.45594000000E+02  0.51100000000E-03 0.  1.
         11   -1    0    0    0    0 -0.00000000000E+00 -0.00000000000E+00 -0.45593999997E+02  0.45594000000E+02  0.51100000000E-03 0. -1.
    9900012    2    1    2    0    0  0.27602282468E+02  0.12352666461E+02  0.27178855331E+02  0.50528873802E+02  0.30000042407E+02 0.  0.
         12    1    1    2    0    0 -0.27602282468E+02 -0.12352666461E+02 -0.27178855331E+02  0.40659126198E+02  0.00000000000E+00 0. -1.
         11    1    3    3    0    0  0.66111754589E+01  0.19280377052E+01  0.11192055145E+02  0.13141045201E+02  0.51100000000E-03 0.  1.
        -11    1    3    3    0    0  0.14394993601E+02  0.18439259820E+02  0.10407973676E+02  0.25603672780E+02  0.51100000000E-03 0. -1.
        -12    1    3    3    0    0  0.65961134078E+01 -0.80146310648E+01  0.55788265098E+01  0.11784155821E+02  0.00000000000E+00 0.  1.
</event>
<event>
 7    1  0.2680581E-011  0.5052887E+02  0.7816164E-02  0.1300439E+00
        -11   -1    0    0    0    0  0.00000000000E+00  0.00000000000E+00  0.45593999997E+02  0.45594000000E+02  0.51100000000E-03 0.  1.
         11   -1    0    0    0    0 -0.00000000000E+00 -0.00000000000E+00 -0.45593999997E+02  0.45594000000E+02  0.51100000000E-03 0. -1.
    9900012    2    1    2    0    0 -0.21019459358E+02  0.86926943874E+01  0.33701400955E+02  0.50528867770E+02  0.30000024073E+02 0.  0.
         12    1    1    2    0    0  0.21019459358E+02 -0.86926943874E+01 -0.33701400955E+02  0.40659132230E+02  0.00000000000E+00 0. -1.
         11    1    3    3    0    0 -0.30067234790E+01 -0.70897507047E+00 -0.51546053687E+00  0.31318894547E+01  0.51100000000E-03 0. -1.
        -11    1    3    3    0    0 -0.94830238597E+01  0.12874971987E+01  0.34314386379E+02  0.35623903539E+02  0.51100000000E-03 0.  1.
         12    1    3    3    0    0 -0.85297120190E+01  0.81141722592E+01 -0.97524887123E-01  0.11773074776E+02  0.00000000000E+00 0. -1.
</event>
<event>
 7    1  0.2680581E-011  0.5052886E+02  0.7816164E-02  0.1300439E+00
        -11   -1    0    0    0    0  0.00000000000E+00  0.00000000000E+00  0.45593999997E+02  0.45594000000E+02  0.51100000000E-03 0.  1.
         11   -1    0    0    0    0 -0.00000000000E+00 -0.00000000000E+00 -0.45593999997E+02  0.45594000000E+02  0.51100000000E-03 0. -1.
    9900012    2    1    2    0    0 -0.34566284542E+02  0.54247454596E+01  0.20710132648E+02  0.50528862225E+02  0.30000007218E+02 0.  0.
         12    1    1    2    0    0  0.34566284542E+02 -0.54247454596E+01 -0.20710132648E+02  0.40659137775E+02  0.00000000000E+00 0. -1.
         11    1    3    3    0    0 -0.21389707897E+02  0.11730716652E+02  0.51833078469E+01  0.24939847585E+02  0.51100000000E-03 0. -1.
        -11    1    3    3    0    0 -0.13367378437E+02  0.52640917205E+00  0.88922408421E+01  0.16063494650E+02  0.51100000000E-03 0.  1.
         12    1    3    3    0    0  0.19080179272E+00 -0.68323803640E+01  0.66345839596E+01  0.95255199899E+01  0.00000000000E+00 0. -1.
</event>
<event>
 7    1  0.2680581E-011  0.5052885E+02  0.7816164E-02  0.1300439E+00
        -11   -1    0    0    0    0  0.00000000000E+00  0.00000000000E+00  0.45593999997E+02  0.45594000000E+02  0.51100000000E-03 0.  1.
         11   -1    0    0    0    0 -0.00000000000E+00 -0.00000000000E+00 -0.45593999997E+02  0.45594000000E+02  0.51100000000E-03 0. -1.
    9900012    2    1    2    0    0 -0.10650226805E+02  0.58266715527E+01  0.38804494231E+02  0.50528853368E+02  0.29999980296E+02 0.  0.
         12    1    1    2    0    0  0.10650226805E+02 -0.58266715527E+01 -0.38804494231E+02  0.40659146632E+02  0.00000000000E+00 0. -1.
         11    1    3    3    0    0 -0.26558111614E+01  0.86141646235E+01  0.50498523804E+01  0.10332384740E+02  0.51100000000E-03 0. -1.
        -11    1    3    3    0    0  0.17332159331E+01  0.44674933867E+01  0.24421926082E+02  0.24887607527E+02  0.51100000000E-03 0.  1.
         12    1    3    3    0    0 -0.97276315763E+01 -0.72549864575E+01  0.93327157687E+01  0.15308861101E+02  0.00000000000E+00 0. -1.
</event>
<event>
 7    1  0.2680581E-011  0.5052887E+02  0.7816164E-02  0.1300439E+00
        -11   -1    0    0    0    0  0.00000000000E+00  0.00000000000E+00  0.45593999997E+02  0.45594000000E+02  0.51100000000E-03 0.  1.
         11   -1    0    0    0    0 -0.00000000000E+00 -0.00000000000E+00 -0.45593999997E+02  0.45594000000E+02  0.51100000000E-03 0. -1.
    9900012    2    1    2    0    0 -0.31630962725E+02  0.49734422856E+01  0.25058178329E+02  0.50528865328E+02  0.30000016652E+02 0.  0.
         12    1    1    2    0    0  0.31630962725E+02 -0.49734422856E+01 -0.25058178329E+02  0.40659134672E+02  0.00000000000E+00 0. -1.
         11    1    3    3    0    0 -0.34322766440E+00  0.67041492259E+01  0.10909463432E+02  0.12809364337E+02  0.51100000000E-03 0. -1.
        -11    1    3    3    0    0 -0.19481281462E+02 -0.23428997941E+01  0.16533986853E+02  0.25658960002E+02  0.51100000000E-03 0.  1.
         12    1    3    3    0    0 -0.11806453598E+02  0.61219285384E+00 -0.23852719561E+01  0.12060540990E+02  0.00000000000E+00 0. -1.
</event>
<event>
 7    1  0.2680581E-011  0.5052887E+02  0.7816164E-02  0.1300439E+00
        -11   -1    0    0    0    0  0.00000000000E+00  0.00000000000E+00  0.45593999997E+02  0.45594000000E+02  0.51100000000E-03 0.  1.
         11   -1    0    0    0    0 -0.00000000000E+00 -0.00000000000E+00 -0.45593999997E+02  0.45594000000E+02  0.51100000000E-03 0. -1.
    9900012    2    1    2    0    0  0.17173868337E+02 -0.36653518402E+02  0.38396682066E+01  0.50528865518E+02  0.30000017229E+02 0.  0.
         12    1    1    2    0    0 -0.17173868337E+02  0.36653518402E+02 -0.38396682066E+01  0.40659134482E+02  0.00000000000E+00 0. -1.
         11    1    3    3    0    0 -0.20185989230E+01 -0.67872621163E+01  0.72250423524E+01  0.10116467066E+02  0.51100000000E-03 0. -1.
        -11    1    3    3    0    0  0.46680907772E+01 -0.22470776127E+02  0.24939222093E+01  0.23085634051E+02  0.51100000000E-03 0.  1.
         12    1    3    3    0    0  0.14524376483E+02 -0.73954801578E+01 -0.58792963551E+01  0.17326764401E+02  0.00000000000E+00 0. -1.
</event>
<event>
 7    1  0.2680581E-011  0.5052885E+02  0.7816164E-02  0.1300439E+00
        -11   -1    0    0    0    0  0.00000000000E+00  0.00000000000E+00  0.45593999997E+02  0.45594000000E+02  0.51100000000E-03 0.  1.
         11   -1    0    0    0    0 -0.00000000000E+00 -0.00000000000E+00 -0.45593999997E+02  0.45594000000E+02  0.51100000000E-03 0. -1.
    9900012    2    1    2    0    0 -0.31983439735E+02 -0.12664182140E+02  0.21675898215E+02  0.50528849862E+02  0.29999969639E+02 0.  0.
         12    1    1    2    0    0  0.31983439735E+02  0.12664182140E+02 -0.21675898215E+02  0.40659150138E+02  0.00000000000E+00 0. -1.
         11    1    3    3    0    0  0.16275004671E+01 -0.45983995458E+01  0.68188454542E+00  0.49253429269E+01  0.51100000000E-03 0. -1.
        -11    1    3    3    0    0 -0.11887604058E+02  0.17052480348E+01 -0.23668022701E+01  0.12240292249E+02  0.51100000000E-03 0.  1.
        -12    1    3    3    0    0 -0.21723336144E+02 -0.97710306292E+01  0.23360815940E+02  0.33363214686E+02  0.00000000000E+00 0.  1.
</event>
<event>
 7    1  0.2680581E-011  0.5052885E+02  0.7816164E-02  0.1300439E+00
        -11   -1    0    0    0    0  0.00000000000E+00  0.00000000000E+00  0.45593999997E+02  0.45594000000E+02  0.51100000000E-03 0. -1.
         11   -1    0    0    0    0 -0.00000000000E+00 -0.00000000000E+00 -0.45593999997E+02  0.45594000000E+02  0.51100000000E-03 0.  1.
    9900012    2    1    2    0    0  0.21334430731E+02  0.30666850096E+02 -0.16048449077E+02  0.50528851617E+02  0.29999974974E+02 0.  0.
         12    1    1    2    0    0 -0.21334430731E+02 -0.30666850096E+02  0.16048449077E+02  0.40659148383E+02  0.00000000000E+00 0. -1.
         11    1    3    3    0    0  0.26600469147E+01  0.15815253488E+01 -0.12279046970E+02  0.12663019654E+02  0.51100000000E-03 0. -1.
        -11    1    3    3    0    0  0.37875373766E+01 -0.83933788442E+00 -0.20757488980E+01  0.43998478624E+01  0.51100000000E-03 0.  1.
        -12    1    3    3    0    0  0.14886846440E+02  0.29924662632E+02 -0.16936532093E+01  0.33465984100E+02  0.00000000000E+00 0.  1.
</event>
<event>
 7    1  0.2680581E-011  0.5052886E+02  0.7816164E-02  0.1300439E+00
        -11   -1    0    0    0    0  0.00000000000E+00  0.00000000000E+00  0.45593999997E+02  0.45594000000E+02  0.51100000000E-03 0. -1.
         11   -1    0    0    0    0 -0.00000000000E+00 -0.00000000000E+00 -0.45593999997E+02  0.45594000000E+02  0.51100000000E-03 0.  1.
    9900012    2    1    2    0    0 -0.32168176782E+02  0.18019735248E+02 -0.17136596550E+02  0.50528863299E+02  0.30000010485E+02 0.  0.
         12    1    1    2    0    0  0.32168176782E+02 -0.18019735248E+02  0.17136596550E+02  0.40659136701E+02  0.00000000000E+00 0. -1.
         11    1    3    3    0    0 -0.14196279873E+02  0.26439799746E+01  0.34600722548E+01  0.14849144508E+02  0.51100000000E-03 0.  1.
        -11    1    3    3    0    0  0.20594631827E+01  0.49479328777E+01 -0.38565026401E+00  0.53732815625E+01  0.51100000000E-03 0. -1.
        -12    1    3    3    0    0 -0.20031360092E+02  0.10427822396E+02 -0.20211018541E+02  0.30306437229E+02  0.00000000000E+00 0.  1.
</event>
<event>
 7    1  0.2680581E-011  0.5052884E+02  0.7816164E-02  0.1300439E+00
        -11   -1    0    0    0    0  0.00000000000E+00  0.00000000000E+00  0.45593999997E+02  0.45594000000E+02  0.51100000000E-03 0.  1.
         11   -1    0    0    0    0 -0.00000000000E+00 -0.00000000000E+00 -0.45593999997E+02  0.45594000000E+02  0.51100000000E-03 0. -1.
    9900012    2    1    2    0    0 -0.29418995840E+02  0.21935255100E+02  0.17508136418E+02  0.50528836539E+02  0.29999929143E+02 0.  0.
         12    1    1    2    0    0  0.29418995840E+02 -0.21935255100E+02 -0.17508136418E+02  0.40659163461E+02  0.00000000000E+00 0. -1.
         11    1    3    3    0    0  0.20257461691E+00  0.66246158765E+01  0.24164783809E+01  0.70544978569E+01  0.51100000000E-03 0. -1.
        -11    1    3    3    0    0 -0.19701344174E+02  0.18715638279E+02  0.28025197147E+01  0.27317983005E+02  0.51100000000E-03 0.  1.
        -12    1    3    3    0    0 -0.99202262831E+01 -0.34049990548E+01  0.12289138322E+02  0.16156355677E+02  0.00000000000E+00 0.  1.
</event>
<event>
 7    1  0.2680581E-011  0.5052882E+02  0.7816164E-02  0.1300439E+00
        -11   -1    0    0    0    0  0.00000000000E+00  0.00000000000E+00  0.45593999997E+02  0.45594000000E+02  0.51100000000E-03 0.  1.
         11   -1    0    0    0    0 -0.00000000000E+00 -0.00000000000E+00 -0.45593999997E+02  0.45594000000E+02  0.51100000000E-03 0. -1.
    9900012    2    1    2    0    0 -0.37840761806E+02  0.33724836572E+01  0.14486953990E+02  0.50528822241E+02  0.29999885685E+02 0.  0.
         12    1    1    2    0    0  0.37840761806E+02 -0.33724836572E+01 -0.14486953990E+02  0.40659177759E+02  0.00000000000E+00 0. -1.
         11    1    3    3    0    0 -0.71377411264E+01  0.97365967136E+01  0.56672853121E+01  0.13336670762E+02  0.51100000000E-03 0. -1.
        -11    1    3    3    0    0 -0.31914090236E+02 -0.57720791791E+01  0.45927086344E+01  0.32755442700E+02  0.51100000000E-03 0.  1.
         12    1    3    3    0    0  0.12110695559E+01 -0.59203387737E+00  0.42269600433E+01  0.44367087789E+01  0.00000000000E+00 0. -1.
</event>
<event>
 7    1  0.2680581E-011  0.5052886E+02  0.7816164E-02  0.1300439E+00
        -11   -1    0    0    0    0  0.00000000000E+00  0.00000000000E+00  0.45593999997E+02  0.45594000000E+02  0.51100000000E-03 0.  1.
         11   -1    0    0    0    0 -0.00000000000E+00 -0.00000000000E+00 -0.45593999997E+02  0.45594000000E+02  0.51100000000E-03 0. -1.
    9900012    2    1    2    0    0  0.23786669905E+02  0.15879798585E+02  0.28899690018E+02  0.50528858944E+02  0.29999997245E+02 0.  0.
         12    1    1    2    0    0 -0.23786669905E+02 -0.15879798585E+02 -0.28899690018E+02  0.40659141056E+02  0.00000000000E+00 0. -1.
         11    1    3    3    0    0 -0.14875677564E+01  0.15003776069E+01  0.10346994726E+02  0.10560506186E+02  0.51100000000E-03 0. -1.
        -11    1    3    3    0    0  0.21584942929E+02  0.37700855889E+01  0.18590928026E+02  0.28735794956E+02  0.51100000000E-03 0.  1.
         12    1    3    3    0    0  0.36892947321E+01  0.10609335389E+02 -0.38232733689E-01  0.11232557801E+02  0.00000000000E+00 0. -1.
</event>
<event>
 7    1  0.2680581E-011  0.5052889E+02  0.7816164E-02  0.1300439E+00
        -11   -1    0    0    0    0  0.00000000000E+00  0.00000000000E+00  0.45593999997E+02  0.45594000000E+02  0.51100000000E-03 0. -1.
         11   -1    0    0    0    0 -0.00000000000E+00 -0.00000000000E+00 -0.45593999997E+02  0.45594000000E+02  0.51100000000E-03 0.  1.
    9900012    2    1    2    0    0 -0.34642885378E+02 -0.14652586369E+02 -0.15438105289E+02  0.50528894138E+02  0.30000104221E+02 0.  0.
         12    1    1    2    0    0  0.34642885378E+02  0.14652586369E+02  0.15438105289E+02  0.40659105862E+02  0.00000000000E+00 0. -1.
         11    1    3    3    0    0  0.22773325818E+01 -0.48105642654E+01 -0.39885195081E-01  0.53225335442E+01  0.51100000000E-03 0. -1.
        -11    1    3    3    0    0 -0.25111475574E+02  0.15715946786E+01 -0.46716170848E+01  0.25590625663E+02  0.51100000000E-03 0.  1.
         12    1    3    3    0    0 -0.11808742386E+02 -0.11413616782E+02 -0.10726603009E+02  0.19615734931E+02  0.00000000000E+00 0. -1.
</event>
<event>
 7    1  0.2680581E-011  0.5052891E+02  0.7816164E-02  0.1300439E+00
        -11   -1    0    0    0    0  0.00000000000E+00  0.00000000000E+00  0.45593999997E+02  0.45594000000E+02  0.51100000000E-03 0. -1.
         11   -1    0    0    0    0 -0.00000000000E+00 -0.00000000000E+00 -0.45593999997E+02  0.45594000000E+02  0.51100000000E-03 0.  1.
    9900012    2    1    2    0    0 -0.26062003960E+02 -0.14654360584E+02 -0.27553287517E+02  0.50528905230E+02  0.30000137937E+02 0.  0.
         12    1    1    2    0    0  0.26062003960E+02  0.14654360584E+02  0.27553287517E+02  0.40659094770E+02  0.00000000000E+00 0. -1.
         11    1    3    3    0    0  0.98054715768E+00  0.45154317492E+01 -0.44653732740E+01  0.64257416185E+01  0.51100000000E-03 0. -1.
        -11    1    3    3    0    0 -0.25777171681E+02 -0.99632369755E+01 -0.20641382146E+02  0.34493409922E+02  0.51100000000E-03 0.  1.
         12    1    3    3    0    0 -0.12653794359E+01 -0.92065553574E+01 -0.24465320974E+01  0.96097536893E+01  0.00000000000E+00 0. -1.
</event>
<event>
 7    1  0.2680581E-011  0.5052885E+02  0.7816164E-02  0.1300439E+00
        -11   -1    0    0    0    0  0.00000000000E+00  0.00000000000E+00  0.45593999997E+02  0.45594000000E+02  0.51100000000E-03 0.  1.
         11   -1    0    0    0    0 -0.00000000000E+00 -0.00000000000E+00 -0.45593999997E+02  0.45594000000E+02  0.51100000000E-03 0. -1.
    9900012    2    1    2    0    0 -0.13718531095E+02 -0.34556074202E+02  0.16457402931E+02  0.50528850097E+02  0.29999970353E+02 0.  0.
         12    1    1    2    0    0  0.13718531095E+02  0.34556074202E+02 -0.16457402931E+02  0.40659149903E+02  0.00000000000E+00 0. -1.
         11    1    3    3    0    0  0.12158098370E+01 -0.17253324411E+02  0.70071166384E+01  0.18661593732E+02  0.51100000000E-03 0. -1.
        -11    1    3    3    0    0 -0.69973356664E+01 -0.11769166912E+02  0.15322743341E+02  0.20549025767E+02  0.51100000000E-03 0.  1.
         12    1    3    3    0    0 -0.79370052657E+01 -0.55335828789E+01 -0.58724570480E+01  0.11318230597E+02  0.00000000000E+00 0. -1.
</event>
<event>
 7    1  0.2680581E-011  0.5052886E+02  0.7816164E-02  0.1300439E+00
        -11   -1    0    0    0    0  0.00000000000E+00  0.00000000000E+00  0.45593999997E+02  0.45594000000E+02  0.51100000000E-03 0.  1.
         11   -1    0    0    0    0 -0.00000000000E+00 -0.00000000000E+00 -0.45593999997E+02  0.45594000000E+02  0.51100000000E-03 0. -1.
    9900012    2    1    2    0    0  0.13054769836E+02  0.28336035765E+02  0.26073127018E+02  0.50528857229E+02  0.29999992033E+02 0.  0.
         12    1    1    2    0    0 -0.13054769836E+02 -0.28336035765E+02 -0.26073127018E+02  0.40659142771E+02  0.00000000000E+00 0. -1.
         11    1    3    3    0    0  0.14858614400E+02  0.31944667731E+01  0.11888276410E+02  0.19295443921E+02  0.51100000000E-03 0. -1.
        -11    1    3    3    0    0  0.23509136538E+00  0.44805339485E+01 -0.19966024923E+01  0.49108934205E+01  0.51100000000E-03 0.  1.
        -12    1    3    3    0    0 -0.20389359291E+01  0.20661035043E+02  0.16181453100E+02  0.26322519887E+02  0.00000000000E+00 0.  1.
</event>
<event>
 7    1  0.2680581E-011  0.5052886E+02  0.7816164E-02  0.1300439E+00
        -11   -1    0    0    0    0  0.00000000000E+00  0.00000000000E+00  0.45593999997E+02  0.45594000000E+02  0.51100000000E-03 0. -1.
         11   -1    0    0    0    0 -0.00000000000E+00 -0.00000000000E+00 -0.45593999997E+02  0.45594000000E+02  0.51100000000E-03 0.  1.
    9900012    2    1    2    0    0 -0.19362554657E+02  0.35752047652E+02  0.21925547644E+00  0.50528861948E+02  0.30000006376E+02 0.  0.
         12    1    1    2    0    0  0.19362554657E+02 -0.35752047652E+02 -0.21925547644E+00  0.40659138052E+02  0.00000000000E+00 0. -1.
         11    1    3    3    0    0  0.22683040844E+01  0.34796699852E+01  0.17667890070E+01  0.45138509370E+01  0.51100000000E-03 0. -1.
        -11    1    3    3    0    0 -0.13933407863E+02  0.28115625775E+02  0.86793177184E+01  0.32557008826E+02  0.51100000000E-03 0.  1.
         12    1    3    3    0    0 -0.76974508784E+01  0.41567518923E+01 -0.10226851249E+02  0.13458002184E+02  0.00000000000E+00 0. -1.
</event>
<event>
 7    1  0.2680581E-011  0.5052888E+02  0.7816164E-02  0.1300439E+00
        -11   -1    0    0    0    0  0.00000000000E+00  0.00000000000E+00  0.45593999997E+02  0.45594000000E+02  0.51100000000E-03 0.  1.
         11   -1    0    0    0    0 -0.00000000000E+00 -0.00000000000E+00 -0.45593999997E+02  0.45594000000E+02  0.51100000000E-03 0. -1.
    9900012    2    1    2    0    0 -0.28832335105E+02 -0.80169254184E+01  0.27524347903E+02  0.50528875953E+02  0.30000048948E+02 0.  0.
         12    1    1    2    0    0  0.28832335105E+02  0.80169254184E+01 -0.27524347903E+02  0.40659124047E+02  0.00000000000E+00 0. -1.
         11    1    3    3    0    0 -0.23567986862E+01  0.40783080627E+01 -0.26772711033E+01  0.54180141679E+01  0.51100000000E-03 0. -1.
        -11    1    3    3    0    0 -0.11675816995E+01  0.14497523353E+01  0.95988750363E+01  0.97777007053E+01  0.51100000000E-03 0.  1.
        -12    1    3    3    0    0 -0.25307954719E+02 -0.13544985816E+02  0.20602743970E+02  0.35333161080E+02  0.00000000000E+00 0.  1.
</event>
<event>
 7    1  0.2680581E-011  0.5052886E+02  0.7816164E-02  0.1300439E+00
        -11   -1    0    0    0    0  0.00000000000E+00  0.00000000000E+00  0.45593999997E+02  0.45594000000E+02  0.51100000000E-03 0.  1.
         11   -1    0    0    0    0 -0.00000000000E+00 -0.00000000000E+00 -0.45593999997E+02  0.45594000000E+02  0.51100000000E-03 0. -1.
    9900012    2    1    2    0    0  0.38909125216E+02  0.11188021863E+02  0.37514675827E+01  0.50528863668E+02  0.30000011605E+02 0.  0.
         12    1    1    2    0    0 -0.38909125216E+02 -0.11188021863E+02 -0.37514675827E+01  0.40659136332E+02  0.00000000000E+00 0. -1.
         11    1    3    3    0    0  0.17173132611E+02  0.99793831628E+01 -0.57650258639E+01  0.20681878431E+02  0.51100000000E-03 0. -1.
        -11    1    3    3    0    0  0.33299606180E+01  0.72666142909E+01 -0.54757423339E+00  0.80120009219E+01  0.51100000000E-03 0.  1.
         12    1    3    3    0    0  0.18406031987E+02 -0.60579755911E+01  0.10064067680E+02  0.21834984315E+02  0.00000000000E+00 0. -1.
</event>
<event>
 7    1  0.2680581E-011  0.5052884E+02  0.7816164E-02  0.1300439E+00
        -11   -1    0    0    0    0  0.00000000000E+00  0.00000000000E+00  0.45593999997E+02  0.45594000000E+02  0.51100000000E-03 0. -1.
         11   -1    0    0    0    0 -0.00000000000E+00 -0.00000000000E+00 -0.45593999997E+02  0.45594000000E+02  0.51100000000E-03 0.  1.
    9900012    2    1    2    0    0  0.12205672220E+02  0.28816237301E+02 -0.25957915787E+02  0.50528839180E+02  0.29999937173E+02 0.  0.
         12    1    1    2    0    0 -0.12205672220E+02 -0.28816237301E+02  0.25957915787E+02  0.40659160820E+02  0.00000000000E+00 0. -1.
         11    1    3    3    0    0  0.74393803990E+01  0.43313382976E+01 -0.10142087825E+02  0.13302887577E+02  0.51100000000E-03 0. -1.
        -11    1    3    3    0    0 -0.37638860215E+01  0.36631038571E+01 -0.13644049955E+02  0.14620029661E+02  0.51100000000E-03 0.  1.
         12    1    3    3    0    0  0.85301778424E+01  0.20821795146E+02 -0.21717780068E+01  0.22605921942E+02  0.00000000000E+00 0. -1.
</event>
<event>
 7    1  0.2680581E-011  0.5052886E+02  0.7816164E-02  0.1300439E+00
        -11   -1    0    0    0    0  0.00000000000E+00  0.00000000000E+00  0.45593999997E+02  0.45594000000E+02  0.51100000000E-03 0. -1.
         11   -1    0    0    0    0 -0.00000000000E+00 -0.00000000000E+00 -0.45593999997E+02  0.45594000000E+02  0.51100000000E-03 0.  1.
    9900012    2    1    2    0    0  0.23795825827E+02  0.29792713396E+02  0.14118008388E+02  0.50528864998E+02  0.30000015647E+02 0.  0.
         12    1    1    2    0    0 -0.23795825827E+02 -0.29792713396E+02 -0.14118008388E+02  0.40659135002E+02  0.00000000000E+00 0. -1.
         11    1    3    3    0    0  0.15163421214E+02  0.19868408218E+02  0.15053379873E+01  0.25038950272E+02  0.51100000000E-03 0. -1.
        -11    1    3    3    0    0  0.13327897443E+02  0.28669794487E+01  0.70145586957E+01  0.15331550977E+02  0.51100000000E-03 0.  1.
         12    1    3    3    0    0 -0.46954928301E+01  0.70573257299E+01  0.55981117053E+01  0.10158363748E+02  0.00000000000E+00 0. -1.
</event>
<event>
 7    1  0.2680581E-011  0.5052886E+02  0.7816164E-02  0.1300439E+00
        -11   -1    0    0    0    0  0.00000000000E+00  0.00000000000E+00  0.45593999997E+02  0.45594000000E+02  0.51100000000E-03 0. -1.
         11   -1    0    0    0    0 -0.00000000000E+00 -0.00000000000E+00 -0.45593999997E+02  0.45594000000E+02  0.51100000000E-03 0.  1.
    9900012    2    1    2    0    0  0.10561651853E+02 -0.60363912943E+01 -0.38796637789E+02  0.50528860640E+02  0.30000002402E+02 0.  0.
         12    1    1    2    0    0 -0.10561651853E+02  0.60363912943E+01  0.38796637789E+02  0.40659139360E+02  0.00000000000E+00 0. -1.
         11    1    3    3    0    0  0.23123169223E+01  0.33299033618E+01 -0.19914482691E+02  0.20322935001E+02  0.51100000000E-03 0. -1.
        -11    1    3    3    0    0  0.11624834158E+02  0.77031812360E+00 -0.14641912123E+02  0.18711380230E+02  0.51100000000E-03 0.  1.
         12    1    3    3    0    0 -0.33754992270E+01 -0.10136612780E+02 -0.42402429745E+01  0.11494545409E+02  0.00000000000E+00 0. -1.
</event>
<event>
 7    1  0.2680581E-011  0.5052886E+02  0.7816164E-02  0.1300439E+00
        -11   -1    0    0    0    0  0.00000000000E+00  0.00000000000E+00  0.45593999997E+02  0.45594000000E+02  0.51100000000E-03 0.  1.
         11   -1    0    0    0    0 -0.00000000000E+00 -0.00000000000E+00 -0.45593999997E+02  0.45594000000E+02  0.51100000000E-03 0. -1.
    9900012    2    1    2    0    0 -0.21081720275E+02  0.11122601312E+02  0.32939555017E+02  0.50528862350E+02  0.30000007599E+02 0.  0.
         12    1    1    2    0    0  0.21081720275E+02 -0.11122601312E+02 -0.32939555017E+02  0.40659137650E+02  0.00000000000E+00 0. -1.
         11    1    3    3    0    0  0.27098166467E+01 -0.31750479080E+01  0.12809725631E+01  0.43663401660E+01  0.51100000000E-03 0. -1.
        -11    1    3    3    0    0 -0.77573009125E+01 -0.22558625573E+01  0.17075556582E+02  0.18890189681E+02  0.51100000000E-03 0.  1.
         12    1    3    3    0    0 -0.16034236009E+02  0.16553511777E+02  0.14583025872E+02  0.27272332503E+02  0.00000000000E+00 0. -1.
</event>
<event>
 7    1  0.2680581E-011  0.5052886E+02  0.7816164E-02  0.1300439E+00
        -11   -1    0    0    0    0  0.00000000000E+00  0.00000000000E+00  0.45593999997E+02  0.45594000000E+02  0.51100000000E-03 0.  1.
         11   -1    0    0    0    0 -0.00000000000E+00 -0.00000000000E+00 -0.45593999997E+02  0.45594000000E+02  0.51100000000E-03 0. -1.
    9900012    2    1    2    0    0 -0.21953371465E+02  0.19477402311E+01  0.34167547078E+02  0.50528862232E+02  0.30000007241E+02 0.  0.
         12    1    1    2    0    0  0.21953371465E+02 -0.19477402311E+01 -0.34167547078E+02  0.40659137768E+02  0.00000000000E+00 0. -1.
         11    1    3    3    0    0  0.21143707442E-03 -0.48667453895E+01 -0.19413983032E+01  0.52396792234E+01  0.51100000000E-03 0. -1.
        -11    1    3    3    0    0 -0.10767762553E+02 -0.18346231131E+00  0.57979277529E+01  0.12230876310E+02  0.51100000000E-03 0.  1.
         12    1    3    3    0    0 -0.11185820349E+02  0.69979479319E+01  0.30311017628E+02  0.33058306699E+02  0.00000000000E+00 0. -1.
</event>
<event>
 7    1  0.2680581E-011  0.5052886E+02  0.7816164E-02  0.1300439E+00
        -11   -1    0    0    0    0  0.00000000000E+00  0.00000000000E+00  0.45593999997E+02  0.45594000000E+02  0.51100000000E-03 0.  1.
         11   -1    0    0    0    0 -0.00000000000E+00 -0.00000000000E+00 -0.45593999997E+02  0.45594000000E+02  0.51100000000E-03 0. -1.
    9900012    2    1    2    0    0 -0.38930353134E+02  0.11448840336E+02  0.25528459329E+01  0.50528863726E+02  0.30000011781E+02 0.  0.
         12    1    1    2    0    0  0.38930353134E+02 -0.11448840336E+02 -0.25528459329E+01  0.40659136274E+02  0.00000000000E+00 0. -1.
         11    1    3    3    0    0 -0.56591769115E+01 -0.31856831556E+01  0.27325760643E+01  0.70456960403E+01  0.51100000000E-03 0. -1.
        -11    1    3    3    0    0 -0.90045288932E+01  0.88863326209E+01  0.10416146396E+02  0.16387329070E+02  0.51100000000E-03 0.  1.
         12    1    3    3    0    0 -0.24266647330E+02  0.57481908706E+01 -0.10595876527E+02  0.27095838616E+02  0.00000000000E+00 0. -1.
</event>
<event>
 7    1  0.2680581E-011  0.5052886E+02  0.7816164E-02  0.1300439E+00
        -11   -1    0    0    0    0  0.00000000000E+00  0.00000000000E+00  0.45593999997E+02  0.45594000000E+02  0.51100000000E-03 0.  1.
         11   -1    0    0    0    0 -0.00000000000E+00 -0.00000000000E+00 -0.45593999997E+02  0.45594000000E+02  0.51100000000E-03 0. -1.
    9900012    2    1    2    0    0 -0.50871171122E+01 -0.23788832234E+02  0.32578798931E+02  0.50528862781E+02  0.30000008909E+02 0.  0.
         12    1    1    2    0    0  0.50871171122E+01  0.23788832234E+02 -0.32578798931E+02  0.40659137219E+02  0.00000000000E+00 0. -1.
         11    1    3    3    0    0 -0.70519221711E+01 -0.31968168183E+01  0.10905225004E+01  0.78191101579E+01  0.51100000000E-03 0. -1.
        -11    1    3    3    0    0  0.91768802420E+01 -0.49593311077E+01  0.62550174237E+01  0.12162867230E+02  0.51100000000E-03 0.  1.
         12    1    3    3    0    0 -0.72120751832E+01 -0.15632684308E+02  0.25233259007E+02  0.30546885394E+02  0.00000000000E+00 0. -1.
</event>
<event>
 7    1  0.2680581E-011  0.5052884E+02  0.7816164E-02  0.1300439E+00
        -11   -1    0    0    0    0  0.00000000000E+00  0.00000000000E+00  0.45593999997E+02  0.45594000000E+02  0.51100000000E-03 0.  1.
         11   -1    0    0    0    0 -0.00000000000E+00 -0.00000000000E+00 -0.45593999997E+02  0.45594000000E+02  0.51100000000E-03 0. -1.
    9900012    2    1    2    0    0  0.35763638146E+01 -0.13871335539E+02  0.38052106510E+02  0.50528841897E+02  0.29999945429E+02 0.  0.
         12    1    1    2    0    0 -0.35763638146E+01  0.13871335539E+02 -0.38052106510E+02  0.40659158103E+02  0.00000000000E+00 0. -1.
         11    1    3    3    0    0 -0.81803321933E+01 -0.73399590954E+01  0.52287924493E+01  0.12170994415E+02  0.51100000000E-03 0. -1.
        -11    1    3    3    0    0  0.30636274981E+01 -0.10015732670E+02  0.16747794423E+02  0.19753210692E+02  0.51100000000E-03 0.  1.
        -12    1    3    3    0    0  0.86930685099E+01  0.34843562258E+01  0.16075519638E+02  0.18604636789E+02  0.00000000000E+00 0.  1.
</event>
<event>
 7    1  0.2680581E-011  0.5052886E+02  0.7816164E-02  0.1300439E+00
        -11   -1    0    0    0    0  0.00000000000E+00  0.00000000000E+00  0.45593999997E+02  0.45594000000E+02  0.51100000000E-03 0.  1.
         11   -1    0    0    0    0 -0.00000000000E+00 -0.00000000000E+00 -0.45593999997E+02  0.45594000000E+02  0.51100000000E-03 0. -1.
    9900012    2    1    2    0    0  0.30681400178E+01  0.40192221519E+01  0.40343496511E+02  0.50528863996E+02  0.30000012601E+02 0.  0.
         12    1    1    2    0    0 -0.30681400178E+01 -0.40192221519E+01 -0.40343496511E+02  0.40659136004E+02  0.00000000000E+00 0. -1.
         11    1    3    3    0    0  0.18478602397E+01  0.12878540776E+02  0.20892892007E+02  0.24612686498E+02  0.51100000000E-03 0. -1.
        -11    1    3    3    0    0  0.70037180839E+01 -0.69509379308E+00  0.67908344944E+01  0.97801153250E+01  0.51100000000E-03 0.  1.
         12    1    3    3    0    0 -0.57834383058E+01 -0.81642248311E+01  0.12659770010E+02  0.16136062172E+02  0.00000000000E+00 0. -1.
</event>
<event>
 7    1  0.2680581E-011  0.5052885E+02  0.7816164E-02  0.1300439E+00
        -11   -1    0    0    0    0  0.00000000000E+00  0.00000000000E+00  0.45593999997E+02  0.45594000000E+02  0.51100000000E-03 0.  1.
         11   -1    0    0    0    0 -0.00000000000E+00 -0.00000000000E+00 -0.45593999997E+02  0.45594000000E+02  0.51100000000E-03 0. -1.
    9900012    2    1    2    0    0  0.63828262897E+01  0.19953943049E+02  0.34846316460E+02  0.50528854836E+02  0.29999984760E+02 0.  0.
         12    1    1    2    0    0 -0.63828262897E+01 -0.19953943049E+02 -0.34846316460E+02  0.40659145164E+02  0.00000000000E+00 0. -1.
         11    1    3    3    0    0 -0.20773430780E+01  0.19137373690E+02  0.27646313305E+02  0.33687877131E+02  0.51100000000E-03 0.  1.
        -11    1    3    3    0    0 -0.30684122815E+01  0.10408756721E+01 -0.12715420083E-01  0.32401756182E+01  0.51100000000E-03 0. -1.
        -12    1    3    3    0    0  0.11528581649E+02 -0.22430631254E+00  0.72127185745E+01  0.13600802087E+02  0.00000000000E+00 0.  1.
</event>
<event>
 7    1  0.2680581E-011  0.5052886E+02  0.7816164E-02  0.1300439E+00
        -11   -1    0    0    0    0  0.00000000000E+00  0.00000000000E+00  0.45593999997E+02  0.45594000000E+02  0.51100000000E-03 0.  1.
         11   -1    0    0    0    0 -0.00000000000E+00 -0.00000000000E+00 -0.45593999997E+02  0.45594000000E+02  0.51100000000E-03 0. -1.
    9900012    2    1    2    0    0  0.23260647417E+02 -0.30623185723E+02  0.13203350267E+02  0.50528859818E+02  0.29999999901E+02 0.  0.
         12    1    1    2    0    0 -0.23260647417E+02  0.30623185723E+02 -0.13203350267E+02  0.40659140182E+02  0.00000000000E+00 0. -1.
         11    1    3    3    0    0  0.37257887247E+01  0.11500383141E+01 -0.38954370324E+01  0.55116712239E+01  0.51100000000E-03 0. -1.
        -11    1    3    3    0    0  0.83877511795E+01 -0.17392971683E+02 -0.10237059422E+01  0.19336954463E+02  0.51100000000E-03 0.  1.
         12    1    3    3    0    0  0.11147107513E+02 -0.14380252355E+02  0.18122493242E+02  0.25680234130E+02  0.00000000000E+00 0. -1.
</event>
<event>
 7    1  0.2680581E-011  0.5052881E+02  0.7816164E-02  0.1300439E+00
        -11   -1    0    0    0    0  0.00000000000E+00  0.00000000000E+00  0.45593999997E+02  0.45594000000E+02  0.51100000000E-03 0.  1.
         11   -1    0    0    0    0 -0.00000000000E+00 -0.00000000000E+00 -0.45593999997E+02  0.45594000000E+02  0.51100000000E-03 0. -1.
    9900012    2    1    2    0    0 -0.30375164920E+02 -0.24668673023E+02  0.11044261977E+02  0.50528809216E+02  0.29999846093E+02 0.  0.
         12    1    1    2    0    0  0.30375164920E+02  0.24668673023E+02 -0.11044261977E+02  0.40659190784E+02  0.00000000000E+00 0. -1.
         11    1    3    3    0    0 -0.87525577615E+01 -0.32667750058E+01  0.12150203633E+02  0.15326660918E+02  0.51100000000E-03 0. -1.
        -11    1    3    3    0    0  0.28992702736E+01 -0.31130214831E+01  0.14751226721E+01  0.45025168553E+01  0.51100000000E-03 0.  1.
        -12    1    3    3    0    0 -0.24521877432E+02 -0.18288876534E+02 -0.25810643288E+01  0.30699631443E+02  0.00000000000E+00 0.  1.
</event>
<event>
 7    1  0.3545822E-011  0.5052886E+02  0.7816164E-02  0.1300439E+00
        -11   -1    0    0    0    0  0.00000000000E+00  0.00000000000E+00  0.45593999997E+02  0.45594000000E+02  0.51100000000E-03 0.  1.
         11   -1    0    0    0    0 -0.00000000000E+00 -0.00000000000E+00 -0.45593999997E+02  0.45594000000E+02  0.51100000000E-03 0. -1.
    9900012    2    1    2    0    0  0.92735396559E+01 -0.27822990403E+02  0.28161114257E+02  0.50528859712E+02  0.29999999581E+02 0.  0.
         12    1    1    2    0    0 -0.92735396559E+01  0.27822990403E+02 -0.28161114257E+02  0.40659140288E+02  0.00000000000E+00 0. -1.
         11    1    3    3    0    0 -0.70520188552E+01 -0.12300462157E+02  0.79303887132E+01  0.16245719578E+02  0.51100000000E-03 0. -1.
        -11    1    3    3    0    0  0.13953189015E+01 -0.91793175920E+01  0.14221468097E+02  0.16984020177E+02  0.51100000000E-03 0.  1.
         12    1    3    3    0    0  0.14930239610E+02 -0.63432106550E+01  0.60092574471E+01  0.17299119957E+02  0.00000000000E+00 0. -1.
</event>
<event>
 7    1  0.2680581E-011  0.5052886E+02  0.7816164E-02  0.1300439E+00
        -11   -1    0    0    0    0  0.00000000000E+00  0.00000000000E+00  0.45593999997E+02  0.45594000000E+02  0.51100000000E-03 0.  1.
         11   -1    0    0    0    0 -0.00000000000E+00 -0.00000000000E+00 -0.45593999997E+02  0.45594000000E+02  0.51100000000E-03 0. -1.
    9900012    2    1    2    0    0  0.40266107884E+02  0.24239889219E+01 -0.50921840735E+01  0.50528861974E+02  0.30000006455E+02 0.  0.
         12    1    1    2    0    0 -0.40266107884E+02 -0.24239889219E+01  0.50921840735E+01  0.40659138026E+02  0.00000000000E+00 0. -1.
         11    1    3    3    0    0  0.18434261391E+02 -0.72424221169E+01  0.71623466357E+01  0.21061193716E+02  0.51100000000E-03 0. -1.
        -11    1    3    3    0    0 -0.15964773849E+00 -0.93929371225E+00  0.12458734321E+01  0.15684262649E+01  0.51100000000E-03 0.  1.
         12    1    3    3    0    0  0.21991494231E+02  0.10605704751E+02 -0.13500404141E+02  0.27899241993E+02  0.00000000000E+00 0. -1.
</event>
<event>
 7    1  0.2680581E-011  0.5052886E+02  0.7816164E-02  0.1300439E+00
        -11   -1    0    0    0    0  0.00000000000E+00  0.00000000000E+00  0.45593999997E+02  0.45594000000E+02  0.51100000000E-03 0.  1.
         11   -1    0    0    0    0 -0.00000000000E+00 -0.00000000000E+00 -0.45593999997E+02  0.45594000000E+02  0.51100000000E-03 0. -1.
    9900012    2    1    2    0    0 -0.36260904288E+02 -0.42519486958E+01  0.17895072407E+02  0.50528857560E+02  0.29999993041E+02 0.  0.
         12    1    1    2    0    0  0.36260904288E+02  0.42519486958E+01 -0.17895072407E+02  0.40659142440E+02  0.00000000000E+00 0. -1.
         11    1    3    3    0    0 -0.20109708762E+02  0.41743607263E+01  0.25155931392E+01  0.20691879641E+02  0.51100000000E-03 0. -1.
        -11    1    3    3    0    0  0.70714851760E+00  0.40559393921E+01  0.48636272542E+01  0.63722502860E+01  0.51100000000E-03 0.  1.
        -12    1    3    3    0    0 -0.16858344043E+02 -0.12482248814E+02  0.10515852014E+02  0.23464727633E+02  0.00000000000E+00 0.  1.
</event>
<event>
 7    1  0.2680581E-011  0.5052882E+02  0.7816164E-02  0.1300439E+00
        -11   -1    0    0    0    0  0.00000000000E+00  0.00000000000E+00  0.45593999997E+02  0.45594000000E+02  0.51100000000E-03 0. -1.
         11   -1    0    0    0    0 -0.00000000000E+00 -0.00000000000E+00 -0.45593999997E+02  0.45594000000E+02  0.51100000000E-03 0.  1.
    9900012    2    1    2    0    0 -0.95555035479E+01 -0.37568687029E+02 -0.12266007091E+02  0.50528821171E+02  0.29999882430E+02 0.  0.
         12    1    1    2    0    0  0.95555035479E+01  0.37568687029E+02  0.12266007091E+02  0.40659178829E+02  0.00000000000E+00 0. -1.
         11    1    3    3    0    0 -0.28367586621E+01 -0.13831945484E+02  0.48728551481E+01  0.14937022231E+02  0.51100000000E-03 0. -1.
        -11    1    3    3    0    0 -0.51025964057E+01 -0.23548404846E+01 -0.12425122037E+02  0.13636913935E+02  0.51100000000E-03 0.  1.
         12    1    3    3    0    0 -0.16161484800E+01 -0.21381901060E+02 -0.47137402019E+01  0.21954885004E+02  0.00000000000E+00 0. -1.
</event>
<event>
 7    1  0.2680581E-011  0.5052889E+02  0.7816164E-02  0.1300439E+00
        -11   -1    0    0    0    0  0.00000000000E+00  0.00000000000E+00  0.45593999997E+02  0.45594000000E+02  0.51100000000E-03 0. -1.
         11   -1    0    0    0    0 -0.00000000000E+00 -0.00000000000E+00 -0.45593999997E+02  0.45594000000E+02  0.51100000000E-03 0.  1.
    9900012    2    1    2    0    0  0.34664141170E+02 -0.18675231266E+02  0.10138832926E+02  0.50528894267E+02  0.30000104613E+02 0.  0.
         12    1    1    2    0    0 -0.34664141170E+02  0.18675231266E+02 -0.10138832926E+02  0.40659105733E+02  0.00000000000E+00 0. -1.
         11    1    3    3    0    0  0.21348391321E+02 -0.53463288648E+01  0.14729963864E+02  0.26482237066E+02  0.51100000000E-03 0. -1.
        -11    1    3    3    0    0 -0.92409113180E+00  0.12465099933E+01  0.20894846765E+01  0.26026290665E+01  0.51100000000E-03 0.  1.
        -12    1    3    3    0    0  0.14239840981E+02 -0.14575412394E+02 -0.66806156147E+01  0.21444028134E+02  0.00000000000E+00 0.  1.
</event>
<event>
 7    1  0.2680581E-011  0.5052886E+02  0.7816164E-02  0.1300439E+00
        -11   -1    0    0    0    0  0.00000000000E+00  0.00000000000E+00  0.45593999997E+02  0.45594000000E+02  0.51100000000E-03 0. -1.
         11   -1    0    0    0    0 -0.00000000000E+00 -0.00000000000E+00 -0.45593999997E+02  0.45594000000E+02  0.51100000000E-03 0.  1.
    9900012    2    1    2    0    0 -0.11292756005E+01  0.24546073473E+02 -0.32394146610E+02  0.50528859319E+02  0.29999998387E+02 0.  0.
         12    1    1    2    0    0  0.11292756005E+01 -0.24546073473E+02  0.32394146610E+02  0.40659140681E+02  0.00000000000E+00 0. -1.
         11    1    3    3    0    0  0.26863253552E+01 -0.21956002099E+01 -0.60208196023E+01  0.69489044561E+01  0.51100000000E-03 0. -1.
        -11    1    3    3    0    0 -0.74736553652E+01  0.59442703833E+00 -0.22777338266E+01  0.78356199288E+01  0.51100000000E-03 0.  1.
         12    1    3    3    0    0  0.36580544095E+01  0.26147246645E+02 -0.24095593181E+02  0.35744334934E+02  0.00000000000E+00 0. -1.
</event>
<event>
 7    1  0.2680581E-011  0.5052886E+02  0.7816164E-02  0.1300439E+00
        -11   -1    0    0    0    0  0.00000000000E+00  0.00000000000E+00  0.45593999997E+02  0.45594000000E+02  0.51100000000E-03 0.  1.
         11   -1    0    0    0    0 -0.00000000000E+00 -0.00000000000E+00 -0.45593999997E+02  0.45594000000E+02  0.51100000000E-03 0. -1.
    9900012    2    1    2    0    0  0.16010780577E+02 -0.34623230846E+02  0.14073099674E+02  0.50528863962E+02  0.30000012499E+02 0.  0.
         12    1    1    2    0    0 -0.16010780577E+02  0.34623230846E+02 -0.14073099674E+02  0.40659136038E+02  0.00000000000E+00 0. -1.
         11    1    3    3    0    0  0.11989893450E+02 -0.25735929433E+02  0.13397814781E+01  0.28423416814E+02  0.51100000000E-03 0. -1.
        -11    1    3    3    0    0  0.94263813857E+01 -0.84141213447E+01  0.86024604051E+01  0.15285824456E+02  0.51100000000E-03 0.  1.
        -12    1    3    3    0    0 -0.54054942590E+01 -0.47318006864E+00  0.41308577909E+01  0.68196226912E+01  0.00000000000E+00 0.  1.
</event>
<event>
 7    1  0.2680581E-011  0.5052886E+02  0.7816164E-02  0.1300439E+00
        -11   -1    0    0    0    0  0.00000000000E+00  0.00000000000E+00  0.45593999997E+02  0.45594000000E+02  0.51100000000E-03 0.  1.
         11   -1    0    0    0    0 -0.00000000000E+00 -0.00000000000E+00 -0.45593999997E+02  0.45594000000E+02  0.51100000000E-03 0. -1.
    9900012    2    1    2    0    0 -0.32886113842E+01 -0.44144737714E+01  0.40284773230E+02  0.50528862064E+02  0.30000006730E+02 0.  0.
         12    1    1    2    0    0  0.32886113842E+01  0.44144737714E+01 -0.40284773230E+02  0.40659137936E+02  0.00000000000E+00 0. -1.
         11    1    3    3    0    0 -0.85108076730E+00  0.66961819889E+00 -0.18995160652E+01  0.21865243076E+01  0.51100000000E-03 0. -1.
        -11    1    3    3    0    0  0.45850625293E+01 -0.95423121773E+01  0.83013604107E+01  0.13453293464E+02  0.51100000000E-03 0.  1.
        -12    1    3    3    0    0 -0.70225931461E+01  0.44582202070E+01  0.33882928884E+02  0.34889044293E+02  0.00000000000E+00 0.  1.
</event>
<event>
 7    1  0.2680581E-011  0.5052886E+02  0.7816164E-02  0.1300439E+00
        -11   -1    0    0    0    0  0.00000000000E+00  0.00000000000E+00  0.45593999997E+02  0.45594000000E+02  0.51100000000E-03 0. -1.
         11   -1    0    0    0    0 -0.00000000000E+00 -0.00000000000E+00 -0.45593999997E+02  0.45594000000E+02  0.51100000000E-03 0.  1.
    9900012    2    1    2    0    0  0.11536136194E+02 -0.18345352453E+02  0.34402492165E+02  0.50528857583E+02  0.29999993108E+02 0.  0.
         12    1    1    2    0    0 -0.11536136194E+02  0.18345352453E+02 -0.34402492165E+02  0.40659142417E+02  0.00000000000E+00 0. -1.
         11    1    3    3    0    0  0.17197748112E+01 -0.16203604346E+02  0.26767275183E+02  0.31336902211E+02  0.51100000000E-03 0. -1.
        -11    1    3    3    0    0  0.22335234411E+01 -0.77404210904E+01  0.23810824576E+01  0.84007320842E+01  0.51100000000E-03 0.  1.
         12    1    3    3    0    0  0.75828379417E+01  0.55986729837E+01  0.52541345250E+01  0.10791223287E+02  0.00000000000E+00 0. -1.
</event>
<event>
 7    1  0.2680581E-011  0.5052884E+02  0.7816164E-02  0.1300439E+00
        -11   -1    0    0    0    0  0.00000000000E+00  0.00000000000E+00  0.45593999997E+02  0.45594000000E+02  0.51100000000E-03 0.  1.
         11   -1    0    0    0    0 -0.00000000000E+00 -0.00000000000E+00 -0.45593999997E+02  0.45594000000E+02  0.51100000000E-03 0. -1.
    9900012    2    1    2    0    0  0.41404236570E+01  0.20996112592E+01  0.40393259749E+02  0.50528844713E+02  0.29999953991E+02 0.  0.
         12    1    1    2    0    0 -0.41404236570E+01 -0.20996112592E+01 -0.40393259749E+02  0.40659155287E+02  0.00000000000E+00 0. -1.
         11    1    3    3    0    0  0.74825730755E+01 -0.42178300112E+01  0.16521657915E+02  0.18621067917E+02  0.51100000000E-03 0.  1.
        -11    1    3    3    0    0  0.16426916235E+01 -0.56365696169E+01  0.15034421211E+01  0.60605025608E+01  0.51100000000E-03 0. -1.
         12    1    3    3    0    0 -0.49848410420E+01  0.11954010887E+02  0.22368159712E+02  0.25847274236E+02  0.00000000000E+00 0. -1.
</event>
<event>
 7    1  0.2680581E-011  0.5052886E+02  0.7816164E-02  0.1300439E+00
        -11   -1    0    0    0    0  0.00000000000E+00  0.00000000000E+00  0.45593999997E+02  0.45594000000E+02  0.51100000000E-03 0. -1.
         11   -1    0    0    0    0 -0.00000000000E+00 -0.00000000000E+00 -0.45593999997E+02  0.45594000000E+02  0.51100000000E-03 0.  1.
    9900012    2    1    2    0    0 -0.26975539473E+02  0.13568173931E+02 -0.27228491237E+02  0.50528858239E+02  0.29999995104E+02 0.  0.
         12    1    1    2    0    0  0.26975539473E+02 -0.13568173931E+02  0.27228491237E+02  0.40659141761E+02  0.00000000000E+00 0. -1.
         11    1    3    3    0    0 -0.11905961092E+02  0.68516561782E+01 -0.78056193548E+01  0.15799518843E+02  0.51100000000E-03 0.  1.
        -11    1    3    3    0    0 -0.78388260987E+01  0.82812252384E+01 -0.23616522598E+02  0.26225293629E+02  0.51100000000E-03 0. -1.
         12    1    3    3    0    0 -0.72307522820E+01 -0.15647074853E+01  0.41936507155E+01  0.85040457667E+01  0.00000000000E+00 0. -1.
</event>
<event>
 7    1  0.2680581E-011  0.5052888E+02  0.7816164E-02  0.1300439E+00
        -11   -1    0    0    0    0  0.00000000000E+00  0.00000000000E+00  0.45593999997E+02  0.45594000000E+02  0.51100000000E-03 0.  1.
         11   -1    0    0    0    0 -0.00000000000E+00 -0.00000000000E+00 -0.45593999997E+02  0.45594000000E+02  0.51100000000E-03 0. -1.
    9900012    2    1    2    0    0  0.22568380678E+02 -0.24299054447E+02  0.23524212256E+02  0.50528875369E+02  0.30000047172E+02 0.  0.
         12    1    1    2    0    0 -0.22568380678E+02  0.24299054447E+02 -0.23524212256E+02  0.40659124631E+02  0.00000000000E+00 0. -1.
         11    1    3    3    0    0 -0.31731866661E+01 -0.12757515977E+01  0.16006913829E-01  0.34200748880E+01  0.51100000000E-03 0. -1.
        -11    1    3    3    0    0  0.55374501283E+01 -0.19542470216E+02  0.11167079189E+02  0.23179196577E+02  0.51100000000E-03 0.  1.
        -12    1    3    3    0    0  0.20204117216E+02 -0.34808326334E+01  0.12341126153E+02  0.23929603905E+02  0.00000000000E+00 0.  1.
</event>
<event>
 7    1  0.2680581E-011  0.5052886E+02  0.7816164E-02  0.1300439E+00
        -11   -1    0    0    0    0  0.00000000000E+00  0.00000000000E+00  0.45593999997E+02  0.45594000000E+02  0.51100000000E-03 0.  1.
         11   -1    0    0    0    0 -0.00000000000E+00 -0.00000000000E+00 -0.45593999997E+02  0.45594000000E+02  0.51100000000E-03 0. -1.
    9900012    2    1    2    0    0 -0.21282812519E+02 -0.10505428023E+02  0.33012783591E+02  0.50528855800E+02  0.29999987689E+02 0.  0.
         12    1    1    2    0    0  0.21282812519E+02  0.10505428023E+02 -0.33012783591E+02  0.40659144200E+02  0.00000000000E+00 0. -1.
         11    1    3    3    0    0 -0.12061981728E+02 -0.11950602158E+02  0.25442179165E+02  0.30587788021E+02  0.51100000000E-03 0. -1.
        -11    1    3    3    0    0 -0.10170062319E+02  0.74647771709E+00  0.11773687413E+02  0.15575850285E+02  0.51100000000E-03 0.  1.
         12    1    3    3    0    0  0.94923152735E+00  0.69869641804E+00 -0.42030829860E+01  0.43652174934E+01  0.00000000000E+00 0. -1.
</event>
<event>
 7    1  0.2680581E-011  0.5052887E+02  0.7816164E-02  0.1300439E+00
        -11   -1    0    0    0    0  0.00000000000E+00  0.00000000000E+00  0.45593999997E+02  0.45594000000E+02  0.51100000000E-03 0. -1.
         11   -1    0    0    0    0 -0.00000000000E+00 -0.00000000000E+00 -0.45593999997E+02  0.45594000000E+02  0.51100000000E-03 0.  1.
    9900012    2    1    2    0    0 -0.16356841532E+02  0.33705518003E+02 -0.15797350259E+02  0.50528874531E+02  0.30000044623E+02 0.  0.
         12    1    1    2    0    0  0.16356841532E+02 -0.33705518003E+02  0.15797350259E+02  0.40659125469E+02  0.00000000000E+00 0. -1.
         11    1    3    3    0    0  0.34955019902E+01  0.16886581736E+02 -0.98163636728E+01  0.19842786420E+02  0.51100000000E-03 0. -1.
        -11    1    3    3    0    0 -0.10698865288E+02  0.14375947558E+02 -0.98543799662E+01  0.20450975317E+02  0.51100000000E-03 0.  1.
         12    1    3    3    0    0 -0.91534782342E+01  0.24429887088E+01  0.38733933805E+01  0.10235112793E+02  0.00000000000E+00 0. -1.
</event>
<event>
 7    1  0.2680581E-011  0.5052886E+02  0.7816164E-02  0.1300439E+00
        -11   -1    0    0    0    0  0.00000000000E+00  0.00000000000E+00  0.45593999997E+02  0.45594000000E+02  0.51100000000E-03 0.  1.
         11   -1    0    0    0    0 -0.00000000000E+00 -0.00000000000E+00 -0.45593999997E+02  0.45594000000E+02  0.51100000000E-03 0. -1.
    9900012    2    1    2    0    0  0.34402841931E+02 -0.74084348901E+01  0.20364794828E+02  0.50528864386E+02  0.30000013788E+02 0.  0.
         12    1    1    2    0    0 -0.34402841931E+02  0.74084348901E+01 -0.20364794828E+02  0.40659135614E+02  0.00000000000E+00 0. -1.
         11    1    3    3    0    0  0.12077094668E+02 -0.90342002365E+01 -0.52408915441E+00  0.15091310719E+02  0.51100000000E-03 0. -1.
        -11    1    3    3    0    0  0.12874475852E+02 -0.79752586121E+01  0.10598338481E+02  0.18484633002E+02  0.51100000000E-03 0.  1.
        -12    1    3    3    0    0  0.94512714116E+01  0.96010239585E+01  0.10290545502E+02  0.16952920665E+02  0.00000000000E+00 0.  1.
</event>
<event>
 7    1  0.2680581E-011  0.5052887E+02  0.7816164E-02  0.1300439E+00
        -11   -1    0    0    0    0  0.00000000000E+00  0.00000000000E+00  0.45593999997E+02  0.45594000000E+02  0.51100000000E-03 0.  1.
         11   -1    0    0    0    0 -0.00000000000E+00 -0.00000000000E+00 -0.45593999997E+02  0.45594000000E+02  0.51100000000E-03 0. -1.
    9900012    2    1    2    0    0 -0.15150694967E+02  0.33093430935E+02  0.18123091195E+02  0.50528866174E+02  0.30000019221E+02 0.  0.
         12    1    1    2    0    0  0.15150694967E+02 -0.33093430935E+02 -0.18123091195E+02  0.40659133826E+02  0.00000000000E+00 0. -1.
         11    1    3    3    0    0  0.61421425965E+01  0.68731870719E+01 -0.16132661147E+01  0.93578439835E+01  0.51100000000E-03 0. -1.
        -11    1    3    3    0    0 -0.57182134725E+01  0.11670773097E+02  0.14293362141E+01  0.13074705055E+02  0.51100000000E-03 0.  1.
         12    1    3    3    0    0 -0.15574624091E+02  0.14549470766E+02  0.18307021096E+02  0.28096317135E+02  0.00000000000E+00 0. -1.
</event>
<event>
 7    1  0.2680581E-011  0.5052886E+02  0.7816164E-02  0.1300439E+00
        -11   -1    0    0    0    0  0.00000000000E+00  0.00000000000E+00  0.45593999997E+02  0.45594000000E+02  0.51100000000E-03 0.  1.
         11   -1    0    0    0    0 -0.00000000000E+00 -0.00000000000E+00 -0.45593999997E+02  0.45594000000E+02  0.51100000000E-03 0. -1.
    9900012    2    1    2    0    0 -0.32569116279E+02 -0.21502123215E+02 -0.11405122259E+02  0.50528862630E+02  0.30000008450E+02 0.  0.
         12    1    1    2    0    0  0.32569116279E+02  0.21502123215E+02  0.11405122259E+02  0.40659137370E+02  0.00000000000E+00 0. -1.
         11    1    3    3    0    0 -0.94203210774E+01 -0.77518219798E+01  0.37858738932E+01  0.12773646097E+02  0.51100000000E-03 0. -1.
        -11    1    3    3    0    0 -0.26737410596E+02 -0.94656391507E+01 -0.15171630105E+02  0.32166221572E+02  0.51100000000E-03 0.  1.
         12    1    3    3    0    0  0.35886153946E+01 -0.42846620847E+01 -0.19366046510E-01  0.55889949610E+01  0.00000000000E+00 0. -1.
</event>
<event>
 7    1  0.2680581E-011  0.5052889E+02  0.7816164E-02  0.1300439E+00
        -11   -1    0    0    0    0  0.00000000000E+00  0.00000000000E+00  0.45593999997E+02  0.45594000000E+02  0.51100000000E-03 0.  1.
         11   -1    0    0    0    0 -0.00000000000E+00 -0.00000000000E+00 -0.45593999997E+02  0.45594000000E+02  0.51100000000E-03 0. -1.
    9900012    2    1    2    0    0  0.19191684043E+02 -0.18540901352E+02  0.30676979803E+02  0.50528894634E+02  0.30000105729E+02 0.  0.
         12    1    1    2    0    0 -0.19191684043E+02  0.18540901352E+02 -0.30676979803E+02  0.40659105366E+02  0.00000000000E+00 0. -1.
         11    1    3    3    0    0  0.74519053404E+01 -0.30029045607E+01  0.16587830930E+02  0.18431073333E+02  0.51100000000E-03 0. -1.
        -11    1    3    3    0    0  0.93003939226E+01 -0.20665590772E+02  0.87159605137E+01  0.24280278767E+02  0.51100000000E-03 0.  1.
         12    1    3    3    0    0  0.24393847798E+01  0.51275939798E+01  0.53731883591E+01  0.78175425338E+01  0.00000000000E+00 0. -1.
</event>
<event>
 7    1  0.2680581E-011  0.5052886E+02  0.7816164E-02  0.1300439E+00
        -11   -1    0    0    0    0  0.00000000000E+00  0.00000000000E+00  0.45593999997E+02  0.45594000000E+02  0.51100000000E-03 0.  1.
         11   -1    0    0    0    0 -0.00000000000E+00 -0.00000000000E+00 -0.45593999997E+02  0.45594000000E+02  0.51100000000E-03 0. -1.
    9900012    2    1    2    0    0 -0.11592104831E+02 -0.30433357829E+02  0.24343360709E+02  0.50528863588E+02  0.30000011363E+02 0.  0.
         12    1    1    2    0    0  0.11592104831E+02  0.30433357829E+02 -0.24343360709E+02  0.40659136412E+02  0.00000000000E+00 0. -1.
         11    1    3    3    0    0 -0.24278706286E+01 -0.11556578558E+02 -0.19262850886E+01  0.11964933692E+02  0.51100000000E-03 0. -1.
        -11    1    3    3    0    0 -0.44099083824E-01 -0.43044985038E+01 -0.25523373692E+01  0.50045058103E+01  0.51100000000E-03 0.  1.
        -12    1    3    3    0    0 -0.91201351190E+01 -0.14572280767E+02  0.28821983166E+02  0.33559424086E+02  0.00000000000E+00 0.  1.
</event>
<event>
 7    1  0.2680581E-011  0.5052886E+02  0.7816164E-02  0.1300439E+00
        -11   -1    0    0    0    0  0.00000000000E+00  0.00000000000E+00  0.45593999997E+02  0.45594000000E+02  0.51100000000E-03 0.  1.
         11   -1    0    0    0    0 -0.00000000000E+00 -0.00000000000E+00 -0.45593999997E+02  0.45594000000E+02  0.51100000000E-03 0. -1.
    9900012    2    1    2    0    0 -0.14922668537E+02 -0.37783043168E+02 -0.17090765781E+01  0.50528864125E+02  0.30000012995E+02 0.  0.
         12    1    1    2    0    0  0.14922668537E+02  0.37783043168E+02  0.17090765781E+01  0.40659135875E+02  0.00000000000E+00 0. -1.
         11    1    3    3    0    0 -0.26692445019E+01 -0.19171066524E+00 -0.37633113700E+01  0.46178059638E+01  0.51100000000E-03 0. -1.
        -11    1    3    3    0    0 -0.17796805993E+02 -0.25482684109E+02 -0.38954577792E+01  0.31325198874E+02  0.51100000000E-03 0.  1.
         12    1    3    3    0    0  0.55433819576E+01 -0.12108648394E+02  0.59496925711E+01  0.14585859287E+02  0.00000000000E+00 0. -1.
</event>
<event>
 7    1  0.2680581E-011  0.5052887E+02  0.7816164E-02  0.1300439E+00
        -11   -1    0    0    0    0  0.00000000000E+00  0.00000000000E+00  0.45593999997E+02  0.45594000000E+02  0.51100000000E-03 0.  1.
         11   -1    0    0    0    0 -0.00000000000E+00 -0.00000000000E+00 -0.45593999997E+02  0.45594000000E+02  0.51100000000E-03 0. -1.
    9900012    2    1    2    0    0 -0.16432407539E+02  0.53887690499E+01  0.36798128135E+02  0.50528867156E+02  0.30000022206E+02 0.  0.
         12    1    1    2    0    0  0.16432407539E+02 -0.53887690499E+01 -0.36798128135E+02  0.40659132844E+02  0.00000000000E+00 0. -1.
         11    1    3    3    0    0 -0.45450871154E+01  0.37313042159E+01  0.12167599241E+01  0.60050772694E+01  0.51100000000E-03 0. -1.
        -11    1    3    3    0    0 -0.14661898764E+02 -0.71102682395E+01  0.15743467027E+02  0.22657977494E+02  0.51100000000E-03 0.  1.
         12    1    3    3    0    0  0.27745783401E+01  0.87677330735E+01  0.19837901184E+02  0.21865812393E+02  0.00000000000E+00 0. -1.
</event>
<event>
 7    1  0.2680581E-011  0.5052886E+02  0.7816164E-02  0.1300439E+00
        -11   -1    0    0    0    0  0.00000000000E+00  0.00000000000E+00  0.45593999997E+02  0.45594000000E+02  0.51100000000E-03 0.  1.
         11   -1    0    0    0    0 -0.00000000000E+00 -0.00000000000E+00 -0.45593999997E+02  0.45594000000E+02  0.51100000000E-03 0. -1.
    9900012    2    1    2    0    0  0.97205630457E+00  0.35413076082E+02  0.19953312734E+02  0.50528861543E+02  0.30000005145E+02 0.  0.
         12    1    1    2    0    0 -0.97205630457E+00 -0.35413076082E+02 -0.19953312734E+02  0.40659138457E+02  0.00000000000E+00 0. -1.
         11    1    3    3    0    0  0.82995964756E+01  0.92313286377E+01  0.50186067673E+01  0.13389814944E+02  0.51100000000E-03 0. -1.
        -11    1    3    3    0    0  0.14052462923E+01  0.25043374310E+02  0.12366065873E+02  0.27965423284E+02  0.51100000000E-03 0.  1.
         12    1    3    3    0    0 -0.87327864634E+01  0.11383731338E+01  0.25686400935E+01  0.91736233156E+01  0.00000000000E+00 0. -1.
</event>
<event>
 7    1  0.2680581E-011  0.5052887E+02  0.7816164E-02  0.1300439E+00
        -11   -1    0    0    0    0  0.00000000000E+00  0.00000000000E+00  0.45593999997E+02  0.45594000000E+02  0.51100000000E-03 0.  1.
         11   -1    0    0    0    0 -0.00000000000E+00 -0.00000000000E+00 -0.45593999997E+02  0.45594000000E+02  0.51100000000E-03 0. -1.
    9900012    2    1    2    0    0 -0.11021480193E+02 -0.27202886812E+02  0.28137078002E+02  0.50528865294E+02  0.30000016548E+02 0.  0.
         12    1    1    2    0    0  0.11021480193E+02  0.27202886812E+02 -0.28137078002E+02  0.40659134706E+02  0.00000000000E+00 0. -1.
         11    1    3    3    0    0 -0.10091253042E+02 -0.14735513620E+02  0.45047597636E+01  0.18419055632E+02  0.51100000000E-03 0. -1.
        -11    1    3    3    0    0 -0.76750830286E+01 -0.10452398498E+02  0.20822576416E+02  0.24530373473E+02  0.51100000000E-03 0.  1.
         12    1    3    3    0    0  0.67448558779E+01 -0.20149746940E+01  0.28097418225E+01  0.75794361888E+01  0.00000000000E+00 0. -1.
</event>
<event>
 7    1  0.2680581E-011  0.5052887E+02  0.7816164E-02  0.1300439E+00
        -11   -1    0    0    0    0  0.00000000000E+00  0.00000000000E+00  0.45593999997E+02  0.45594000000E+02  0.51100000000E-03 0.  1.
         11   -1    0    0    0    0 -0.00000000000E+00 -0.00000000000E+00 -0.45593999997E+02  0.45594000000E+02  0.51100000000E-03 0. -1.
    9900012    2    1    2    0    0  0.89025297980E+01 -0.39081632539E+02 -0.68217461110E+01  0.50528865003E+02  0.30000015663E+02 0.  0.
         12    1    1    2    0    0 -0.89025297980E+01  0.39081632539E+02  0.68217461110E+01  0.40659134997E+02  0.00000000000E+00 0. -1.
         11    1    3    3    0    0  0.12461761766E+02 -0.13478153089E+02 -0.57065364440E+01  0.19222920575E+02  0.51100000000E-03 0.  1.
        -11    1    3    3    0    0 -0.35134507397E+01  0.73249876993E+00 -0.33051566150E+01  0.48790317747E+01  0.51100000000E-03 0. -1.
        -12    1    3    3    0    0 -0.45781228635E-01 -0.26335978220E+02  0.21899469480E+01  0.26426912653E+02  0.00000000000E+00 0.  1.
</event>
<event>
 7    1  0.2680581E-011  0.5052887E+02  0.7816164E-02  0.1300439E+00
        -11   -1    0    0    0    0  0.00000000000E+00  0.00000000000E+00  0.45593999997E+02  0.45594000000E+02  0.51100000000E-03 0. -1.
         11   -1    0    0    0    0 -0.00000000000E+00 -0.00000000000E+00 -0.45593999997E+02  0.45594000000E+02  0.51100000000E-03 0.  1.
    9900012    2    1    2    0    0  0.40391944189E+02  0.45621926541E+01  0.91782169324E+00  0.50528866293E+02  0.30000019583E+02 0.  0.
         12    1    1    2    0    0 -0.40391944189E+02 -0.45621926541E+01 -0.91782169324E+00  0.40659133707E+02  0.00000000000E+00 0. -1.
         11    1    3    3    0    0  0.18216047446E+02  0.70702794312E+01  0.13135455461E+01  0.19584142513E+02  0.51100000000E-03 0. -1.
        -11    1    3    3    0    0  0.41435275517E+01  0.48857119937E+01  0.75467550760E+01  0.98991168645E+01  0.51100000000E-03 0.  1.
        -12    1    3    3    0    0  0.18032369191E+02 -0.73937987709E+01 -0.79424789289E+01  0.21045606916E+02  0.00000000000E+00 0.  1.
</event>
<event>
 7    1  0.2680581E-011  0.5052886E+02  0.7816164E-02  0.1300439E+00
        -11   -1    0    0    0    0  0.00000000000E+00  0.00000000000E+00  0.45593999997E+02  0.45594000000E+02  0.51100000000E-03 0.  1.
         11   -1    0    0    0    0 -0.00000000000E+00 -0.00000000000E+00 -0.45593999997E+02  0.45594000000E+02  0.51100000000E-03 0. -1.
    9900012    2    1    2    0    0  0.12178458567E+02 -0.37132268963E+02  0.11226998188E+02  0.50528859087E+02  0.29999997682E+02 0.  0.
         12    1    1    2    0    0 -0.12178458567E+02  0.37132268963E+02 -0.11226998188E+02  0.40659140913E+02  0.00000000000E+00 0. -1.
         11    1    3    3    0    0  0.67696753108E+01 -0.14192414910E+02  0.15855046527E+02  0.22330151039E+02  0.51100000000E-03 0. -1.
        -11    1    3    3    0    0  0.62101992307E+01 -0.20426984001E+02  0.16252624284E+01  0.21411906222E+02  0.51100000000E-03 0.  1.
         12    1    3    3    0    0 -0.80141597399E+00 -0.25128700530E+01 -0.62533107678E+01  0.67868018260E+01  0.00000000000E+00 0. -1.
</event>
<event>
 7    1  0.2680581E-011  0.5052887E+02  0.7816164E-02  0.1300439E+00
        -11   -1    0    0    0    0  0.00000000000E+00  0.00000000000E+00  0.45593999997E+02  0.45594000000E+02  0.51100000000E-03 0.  1.
         11   -1    0    0    0    0 -0.00000000000E+00 -0.00000000000E+00 -0.45593999997E+02  0.45594000000E+02  0.51100000000E-03 0. -1.
    9900012    2    1    2    0    0 -0.64362501324E+01 -0.82877041067E+01  0.39281717724E+02  0.50528871843E+02  0.30000036455E+02 0.  0.
         12    1    1    2    0    0  0.64362501324E+01  0.82877041067E+01 -0.39281717724E+02  0.40659128157E+02  0.00000000000E+00 0. -1.
         11    1    3    3    0    0  0.62519758273E+01 -0.70151168976E+01  0.78269052531E+01  0.12229452683E+02  0.51100000000E-03 0. -1.
        -11    1    3    3    0    0 -0.21361256386E+00 -0.49150370790E+01  0.77448365045E+00  0.49802655553E+01  0.51100000000E-03 0.  1.
         12    1    3    3    0    0 -0.12474613396E+02  0.36424498698E+01  0.30680328820E+02  0.33319153605E+02  0.00000000000E+00 0. -1.
</event>
<event>
 7    1  0.2680581E-011  0.5052886E+02  0.7816164E-02  0.1300439E+00
        -11   -1    0    0    0    0  0.00000000000E+00  0.00000000000E+00  0.45593999997E+02  0.45594000000E+02  0.51100000000E-03 0. -1.
         11   -1    0    0    0    0 -0.00000000000E+00 -0.00000000000E+00 -0.45593999997E+02  0.45594000000E+02  0.51100000000E-03 0.  1.
    9900012    2    1    2    0    0  0.34212879430E+02 -0.21944555705E+02 -0.10396764248E+01  0.50528861162E+02  0.30000003988E+02 0.  0.
         12    1    1    2    0    0 -0.34212879430E+02  0.21944555705E+02  0.10396764248E+01  0.40659138838E+02  0.00000000000E+00 0. -1.
         11    1    3    3    0    0 -0.14089390248E+01  0.49515395351E+00 -0.64702693185E+00  0.16275536012E+01  0.51100000000E-03 0. -1.
        -11    1    3    3    0    0  0.21969057313E+02 -0.38087195858E+01  0.88957075912E+01  0.24005820918E+02  0.51100000000E-03 0.  1.
        -12    1    3    3    0    0  0.13652761141E+02 -0.18630990073E+02 -0.92883570841E+01  0.24895486643E+02  0.00000000000E+00 0.  1.
</event>
<event>
 7    1  0.2680581E-011  0.5052887E+02  0.7816164E-02  0.1300439E+00
        -11   -1    0    0    0    0  0.00000000000E+00  0.00000000000E+00  0.45593999997E+02  0.45594000000E+02  0.51100000000E-03 0.  1.
         11   -1    0    0    0    0 -0.00000000000E+00 -0.00000000000E+00 -0.45593999997E+02  0.45594000000E+02  0.51100000000E-03 0. -1.
    9900012    2    1    2    0    0  0.55914681539E+01 -0.26859613001E+02  0.30007689389E+02  0.50528871269E+02  0.30000034709E+02 0.  0.
         12    1    1    2    0    0 -0.55914681539E+01  0.26859613001E+02 -0.30007689389E+02  0.40659128731E+02  0.00000000000E+00 0. -1.
         11    1    3    3    0    0  0.12578577464E+01 -0.84722253711E+01  0.13092805326E+02  0.15645522056E+02  0.51100000000E-03 0. -1.
        -11    1    3    3    0    0 -0.41800361924E+01 -0.21130225316E+02  0.12571959036E+02  0.24940194040E+02  0.51100000000E-03 0.  1.
         12    1    3    3    0    0  0.85136465999E+01  0.27428376861E+01  0.43429250281E+01  0.99431551733E+01  0.00000000000E+00 0. -1.
</event>
<event>
 7    1  0.2680581E-011  0.5052886E+02  0.7816164E-02  0.1300439E+00
        -11   -1    0    0    0    0  0.00000000000E+00  0.00000000000E+00  0.45593999997E+02  0.45594000000E+02  0.51100000000E-03 0. -1.
         11   -1    0    0    0    0 -0.00000000000E+00 -0.00000000000E+00 -0.45593999997E+02  0.45594000000E+02  0.51100000000E-03 0.  1.
    9900012    2    1    2    0    0 -0.75112008701E+01 -0.65398426010E+01 -0.39420528978E+02  0.50528858536E+02  0.29999996005E+02 0.  0.
         12    1    1    2    0    0  0.75112008701E+01  0.65398426010E+01  0.39420528978E+02  0.40659141464E+02  0.00000000000E+00 0. -1.
         11    1    3    3    0    0 -0.14173066947E+02 -0.57407391058E+01 -0.12323588868E+02  0.19639316562E+02  0.51100000000E-03 0. -1.
        -11    1    3    3    0    0 -0.13021521018E+01  0.38467907951E+01 -0.15769385805E+02  0.16283946955E+02  0.51100000000E-03 0.  1.
         12    1    3    3    0    0  0.79640181790E+01 -0.46458942904E+01 -0.11327554305E+02  0.14605595019E+02  0.00000000000E+00 0. -1.
</event>
<event>
 7    1  0.2680581E-011  0.5052886E+02  0.7816164E-02  0.1300439E+00
        -11   -1    0    0    0    0  0.00000000000E+00  0.00000000000E+00  0.45593999997E+02  0.45594000000E+02  0.51100000000E-03 0. -1.
         11   -1    0    0    0    0 -0.00000000000E+00 -0.00000000000E+00 -0.45593999997E+02  0.45594000000E+02  0.51100000000E-03 0.  1.
    9900012    2    1    2    0    0 -0.59769465151E+01 -0.37227303397E+02 -0.15217423275E+02  0.50528856145E+02  0.29999988739E+02 0.  0.
         12    1    1    2    0    0  0.59769465151E+01  0.37227303397E+02  0.15217423275E+02  0.40659143855E+02  0.00000000000E+00 0. -1.
         11    1    3    3    0    0 -0.95743554599E+00 -0.29063324936E+01 -0.10719293201E+02  0.11147497404E+02  0.51100000000E-03 0. -1.
        -11    1    3    3    0    0  0.26119089486E+01  0.97083818636E-01  0.22956968597E+01  0.34787523563E+01  0.51100000000E-03 0.  1.
        -12    1    3    3    0    0 -0.76314199177E+01 -0.34418054722E+02 -0.67938269342E+01  0.35902606385E+02  0.00000000000E+00 0.  1.
</event>
<event>
 7    1  0.2680581E-011  0.5052887E+02  0.7816164E-02  0.1300439E+00
        -11   -1    0    0    0    0  0.00000000000E+00  0.00000000000E+00  0.45593999997E+02  0.45594000000E+02  0.51100000000E-03 0.  1.
         11   -1    0    0    0    0 -0.00000000000E+00 -0.00000000000E+00 -0.45593999997E+02  0.45594000000E+02  0.51100000000E-03 0. -1.
    9900012    2    1    2    0    0 -0.45288671094E+01  0.19282552015E+02  0.35508276736E+02  0.50528866140E+02  0.30000019118E+02 0.  0.
         12    1    1    2    0    0  0.45288671094E+01 -0.19282552015E+02 -0.35508276736E+02  0.40659133860E+02  0.00000000000E+00 0. -1.
         11    1    3    3    0    0  0.95957488797E+01  0.13936723289E+02  0.21779994073E+02  0.27580405992E+02  0.51100000000E-03 0. -1.
        -11    1    3    3    0    0 -0.40576902040E+01  0.33142897485E+01  0.11210663683E+02  0.12374503901E+02  0.51100000000E-03 0.  1.
        -12    1    3    3    0    0 -0.10066925785E+02  0.20315389780E+01  0.25176189802E+01  0.10573956247E+02  0.00000000000E+00 0.  1.
</event>
<event>
 7    1  0.2680581E-011  0.5052886E+02  0.7816164E-02  0.1300439E+00
        -11   -1    0    0    0    0  0.00000000000E+00  0.00000000000E+00  0.45593999997E+02  0.45594000000E+02  0.51100000000E-03 0.  1.
         11   -1    0    0    0    0 -0.00000000000E+00 -0.00000000000E+00 -0.45593999997E+02  0.45594000000E+02  0.51100000000E-03 0. -1.
    9900012    2    1    2    0    0 -0.40358420832E+02  0.50556326268E-01  0.49356637185E+01  0.50528862474E+02  0.30000007977E+02 0.  0.
         12    1    1    2    0    0  0.40358420832E+02 -0.50556326268E-01 -0.49356637185E+01  0.40659137526E+02  0.00000000000E+00 0. -1.
         11    1    3    3    0    0 -0.71105709179E+01 -0.47415016617E+01  0.12297536431E+00  0.85473492960E+01  0.51100000000E-03 0. -1.
        -11    1    3    3    0    0  0.20684580318E+01  0.39912671875E+01  0.49085201768E+01  0.66559975194E+01  0.51100000000E-03 0.  1.
         12    1    3    3    0    0 -0.35316307946E+02  0.80079080045E+00 -0.95831822569E-01  0.35325515659E+02  0.00000000000E+00 0. -1.
</event>
<event>
 7    1  0.2680581E-011  0.5052885E+02  0.7816164E-02  0.1300439E+00
        -11   -1    0    0    0    0  0.00000000000E+00  0.00000000000E+00  0.45593999997E+02  0.45594000000E+02  0.51100000000E-03 0. -1.
         11   -1    0    0    0    0 -0.00000000000E+00 -0.00000000000E+00 -0.45593999997E+02  0.45594000000E+02  0.51100000000E-03 0.  1.
    9900012    2    1    2    0    0  0.48748732472E+01 -0.39797024319E+02 -0.67526920709E+01  0.50528851165E+02  0.29999973600E+02 0.  0.
         12    1    1    2    0    0 -0.48748732472E+01  0.39797024319E+02  0.67526920709E+01  0.40659148835E+02  0.00000000000E+00 0. -1.
         11    1    3    3    0    0 -0.28793591721E+00 -0.23838883057E+02 -0.12414666753E+02  0.26879345293E+02  0.51100000000E-03 0. -1.
        -11    1    3    3    0    0 -0.45800696142E+01 -0.29474031812E+01 -0.18380783012E+01  0.57482828119E+01  0.51100000000E-03 0.  1.
         12    1    3    3    0    0  0.97428787787E+01 -0.13010738080E+02  0.75000529832E+01  0.17901223060E+02  0.00000000000E+00 0. -1.
</event>
<event>
 7    1  0.2680581E-011  0.5052886E+02  0.7816164E-02  0.1300439E+00
        -11   -1    0    0    0    0  0.00000000000E+00  0.00000000000E+00  0.45593999997E+02  0.45594000000E+02  0.51100000000E-03 0.  1.
         11   -1    0    0    0    0 -0.00000000000E+00 -0.00000000000E+00 -0.45593999997E+02  0.45594000000E+02  0.51100000000E-03 0. -1.
    9900012    2    1    2    0    0 -0.29635953782E+01 -0.87988263084E+01  0.39584885168E+02  0.50528863564E+02  0.30000011290E+02 0.  0.
         12    1    1    2    0    0  0.29635953782E+01  0.87988263084E+01 -0.39584885168E+02  0.40659136436E+02  0.00000000000E+00 0. -1.
         11    1    3    3    0    0 -0.45255216556E+01  0.53275305853E+01  0.93844769177E+01  0.11701766348E+02  0.51100000000E-03 0. -1.
        -11    1    3    3    0    0 -0.40847388230E+01 -0.13451687055E+02  0.30007113238E+02  0.33136985696E+02  0.51100000000E-03 0.  1.
         12    1    3    3    0    0  0.56466651004E+01 -0.67466983858E+00  0.19329501202E+00  0.56901115199E+01  0.00000000000E+00 0. -1.
</event>
<event>
 7    1  0.2680581E-011  0.5052886E+02  0.7816164E-02  0.1300439E+00
        -11   -1    0    0    0    0  0.00000000000E+00  0.00000000000E+00  0.45593999997E+02  0.45594000000E+02  0.51100000000E-03 0.  1.
         11   -1    0    0    0    0 -0.00000000000E+00 -0.00000000000E+00 -0.45593999997E+02  0.45594000000E+02  0.51100000000E-03 0. -1.
    9900012    2    1    2    0    0 -0.73085422169E+01 -0.22559809737E+02  0.33027352229E+02  0.50528858347E+02  0.29999995431E+02 0.  0.
         12    1    1    2    0    0  0.73085422169E+01  0.22559809737E+02 -0.33027352229E+02  0.40659141653E+02  0.00000000000E+00 0. -1.
         11    1    3    3    0    0 -0.19217092442E+01 -0.83547391255E+01  0.19191981096E+01  0.87850984012E+01  0.51100000000E-03 0. -1.
        -11    1    3    3    0    0 -0.69393507072E+01 -0.20282936728E+02  0.25649374485E+02  0.33428169592E+02  0.51100000000E-03 0.  1.
         12    1    3    3    0    0  0.15525177345E+01  0.60778661158E+01  0.54587796346E+01  0.83155903540E+01  0.00000000000E+00 0. -1.
</event>
<event>
 7    1  0.2680581E-011  0.5052886E+02  0.7816164E-02  0.1300439E+00
        -11   -1    0    0    0    0  0.00000000000E+00  0.00000000000E+00  0.45593999997E+02  0.45594000000E+02  0.51100000000E-03 0.  1.
         11   -1    0    0    0    0 -0.00000000000E+00 -0.00000000000E+00 -0.45593999997E+02  0.45594000000E+02  0.51100000000E-03 0. -1.
    9900012    2    1    2    0    0 -0.11544769020E+02  0.31996077051E+02  0.22274087143E+02  0.50528860850E+02  0.30000003040E+02 0.  0.
         12    1    1    2    0    0  0.11544769020E+02 -0.31996077051E+02 -0.22274087143E+02  0.40659139150E+02  0.00000000000E+00 0. -1.
         11    1    3    3    0    0  0.25297014567E+01 -0.18949936338E+01  0.39501073053E+01  0.50590254315E+01  0.51100000000E-03 0. -1.
        -11    1    3    3    0    0 -0.82466377926E+01  0.35729735799E+01 -0.10076646666E+01  0.90437029710E+01  0.51100000000E-03 0.  1.
        -12    1    3    3    0    0 -0.58278326845E+01  0.30318097105E+02  0.19331644504E+02  0.36426132447E+02  0.00000000000E+00 0.  1.
</event>
<event>
 7    1  0.2680581E-011  0.5052886E+02  0.7816164E-02  0.1300439E+00
        -11   -1    0    0    0    0  0.00000000000E+00  0.00000000000E+00  0.45593999997E+02  0.45594000000E+02  0.51100000000E-03 0.  1.
         11   -1    0    0    0    0 -0.00000000000E+00 -0.00000000000E+00 -0.45593999997E+02  0.45594000000E+02  0.51100000000E-03 0. -1.
    9900012    2    1    2    0    0  0.73220636461E+01  0.34729467220E+02  0.19834746498E+02  0.50528859845E+02  0.29999999986E+02 0.  0.
         12    1    1    2    0    0 -0.73220636461E+01 -0.34729467220E+02 -0.19834746498E+02  0.40659140155E+02  0.00000000000E+00 0. -1.
         11    1    3    3    0    0 -0.21675938208E+01  0.33388620427E+01 -0.31732249361E+01  0.50907582410E+01  0.51100000000E-03 0. -1.
        -11    1    3    3    0    0  0.12305816316E+02  0.63464206721E+01  0.99803873278E+01  0.17068049157E+02  0.51100000000E-03 0.  1.
        -12    1    3    3    0    0 -0.28161588491E+01  0.25044184506E+02  0.13027584107E+02  0.28370052447E+02  0.00000000000E+00 0.  1.
</event>
<event>
 7    1  0.2680581E-011  0.5052876E+02  0.7816164E-02  0.1300439E+00
        -11   -1    0    0    0    0  0.00000000000E+00  0.00000000000E+00  0.45593999997E+02  0.45594000000E+02  0.51100000000E-03 0. -1.
         11   -1    0    0    0    0 -0.00000000000E+00 -0.00000000000E+00 -0.45593999997E+02  0.45594000000E+02  0.51100000000E-03 0.  1.
    9900012    2    1    2    0    0  0.25917163808E+02  0.21370874584E+02 -0.22907643963E+02  0.50528759817E+02  0.29999695937E+02 0.  0.
         12    1    1    2    0    0 -0.25917163808E+02 -0.21370874584E+02  0.22907643963E+02  0.40659240183E+02  0.00000000000E+00 0. -1.
         11    1    3    3    0    0  0.13742873293E+02  0.21497415615E+02 -0.79923193118E+01  0.26737288806E+02  0.51100000000E-03 0. -1.
        -11    1    3    3    0    0  0.38789634707E+01  0.56913272773E+01 -0.10897929899E+02  0.12891952534E+02  0.51100000000E-03 0.  1.
         12    1    3    3    0    0  0.82953270445E+01 -0.58178683084E+01 -0.40173947522E+01  0.10899518477E+02  0.00000000000E+00 0. -1.
</event>
<event>
 7    1  0.2680581E-011  0.5052886E+02  0.7816164E-02  0.1300439E+00
        -11   -1    0    0    0    0  0.00000000000E+00  0.00000000000E+00  0.45593999997E+02  0.45594000000E+02  0.51100000000E-03 0. -1.
         11   -1    0    0    0    0 -0.00000000000E+00 -0.00000000000E+00 -0.45593999997E+02  0.45594000000E+02  0.51100000000E-03 0.  1.
    9900012    2    1    2    0    0 -0.22264871670E+02 -0.32565853505E+02  0.98440885255E+01  0.50528863218E+02  0.30000010237E+02 0.  0.
         12    1    1    2    0    0  0.22264871670E+02  0.32565853505E+02 -0.98440885255E+01  0.40659136782E+02  0.00000000000E+00 0. -1.
         11    1    3    3    0    0 -0.58118482135E+01  0.20681637007E+01  0.10006037754E+02  0.11754814867E+02  0.51100000000E-03 0. -1.
        -11    1    3    3    0    0 -0.41582245659E+01 -0.41277302642E+01 -0.51303582194E+00  0.58815129593E+01  0.51100000000E-03 0.  1.
        -12    1    3    3    0    0 -0.12294798891E+02 -0.30506286941E+02  0.35108659315E+00  0.32892535392E+02  0.00000000000E+00 0.  1.
</event>
<event>
 7    1  0.2822236E-011  0.5052886E+02  0.7816164E-02  0.1300439E+00
        -11   -1    0    0    0    0  0.00000000000E+00  0.00000000000E+00  0.45593999997E+02  0.45594000000E+02  0.51100000000E-03 0. -1.
         11   -1    0    0    0    0 -0.00000000000E+00 -0.00000000000E+00 -0.45593999997E+02  0.45594000000E+02  0.51100000000E-03 0.  1.
    9900012    2    1    2    0    0 -0.20882654968E+02 -0.15299754657E+02 -0.31352798026E+02  0.50528859390E+02  0.29999998602E+02 0.  0.
         12    1    1    2    0    0  0.20882654968E+02  0.15299754657E+02  0.31352798026E+02  0.40659140610E+02  0.00000000000E+00 0. -1.
         11    1    3    3    0    0 -0.14623366798E+02 -0.16421391073E+01 -0.80208198808E+01  0.16759266964E+02  0.51100000000E-03 0. -1.
        -11    1    3    3    0    0 -0.11417569220E+02 -0.12056004791E+02 -0.22987726121E+02  0.28357427437E+02  0.51100000000E-03 0.  1.
        -12    1    3    3    0    0  0.51582810496E+01 -0.16016107584E+01 -0.34425202493E+00  0.54121649887E+01  0.00000000000E+00 0.  1.
</event>
<event>
 7    1  0.2680581E-011  0.5052886E+02  0.7816164E-02  0.1300439E+00
        -11   -1    0    0    0    0  0.00000000000E+00  0.00000000000E+00  0.45593999997E+02  0.45594000000E+02  0.51100000000E-03 0.  1.
         11   -1    0    0    0    0 -0.00000000000E+00 -0.00000000000E+00 -0.45593999997E+02  0.45594000000E+02  0.51100000000E-03 0. -1.
    9900012    2    1    2    0    0 -0.36633735742E+02 -0.11342355170E+02  0.13508736523E+02  0.50528861081E+02  0.30000003741E+02 0.  0.
         12    1    1    2    0    0  0.36633735742E+02  0.11342355170E+02 -0.13508736523E+02  0.40659138919E+02  0.00000000000E+00 0. -1.
         11    1    3    3    0    0 -0.31492794642E+02 -0.13745511265E+02  0.11506744336E+02  0.36237278593E+02  0.51100000000E-03 0.  1.
        -11    1    3    3    0    0 -0.81974554293E+01  0.28008818647E+01 -0.23340200444E+01  0.89716701101E+01  0.51100000000E-03 0. -1.
        -12    1    3    3    0    0  0.30565143300E+01 -0.39772576965E+00  0.43360122314E+01  0.53199123778E+01  0.00000000000E+00 0.  1.
</event>
<event>
 7    1  0.2680581E-011  0.5052886E+02  0.7816164E-02  0.1300439E+00
        -11   -1    0    0    0    0  0.00000000000E+00  0.00000000000E+00  0.45593999997E+02  0.45594000000E+02  0.51100000000E-03 0.  1.
         11   -1    0    0    0    0 -0.00000000000E+00 -0.00000000000E+00 -0.45593999997E+02  0.45594000000E+02  0.51100000000E-03 0. -1.
    9900012    2    1    2    0    0 -0.29252759734E+02  0.61566038177E+00 -0.28232294723E+02  0.50528862588E+02  0.30000008323E+02 0.  0.
         12    1    1    2    0    0  0.29252759734E+02 -0.61566038177E+00  0.28232294723E+02  0.40659137412E+02  0.00000000000E+00 0. -1.
         11    1    3    3    0    0  0.50873433887E+00 -0.42360736288E+01 -0.10182725255E+02  0.11040426817E+02  0.51100000000E-03 0. -1.
        -11    1    3    3    0    0 -0.17914887964E+01  0.66587075579E+01 -0.52978885435E+01  0.86957139862E+01  0.51100000000E-03 0.  1.
         12    1    3    3    0    0 -0.27970005276E+02 -0.18069735473E+01 -0.12751680924E+02  0.30792721785E+02  0.00000000000E+00 0. -1.
</event>
<event>
 7    1  0.2680581E-011  0.5052886E+02  0.7816164E-02  0.1300439E+00
        -11   -1    0    0    0    0  0.00000000000E+00  0.00000000000E+00  0.45593999997E+02  0.45594000000E+02  0.51100000000E-03 0. -1.
         11   -1    0    0    0    0 -0.00000000000E+00 -0.00000000000E+00 -0.45593999997E+02  0.45594000000E+02  0.51100000000E-03 0.  1.
    9900012    2    1    2    0    0 -0.35803679905E+02  0.10566807392E+02 -0.16112247226E+02  0.50528862972E+02  0.30000009489E+02 0.  0.
         12    1    1    2    0    0  0.35803679905E+02 -0.10566807392E+02  0.16112247226E+02  0.40659137028E+02  0.00000000000E+00 0. -1.
         11    1    3    3    0    0 -0.90486295365E+01  0.47776941379E+00  0.24404823915E+01  0.93841310022E+01  0.51100000000E-03 0. -1.
        -11    1    3    3    0    0 -0.22463528882E+02  0.17161222117E+02 -0.12579925311E+02  0.30941431697E+02  0.51100000000E-03 0.  1.
         12    1    3    3    0    0 -0.42915214872E+01 -0.70721841391E+01 -0.59728043064E+01  0.10203300273E+02  0.00000000000E+00 0. -1.
</event>
<event>
 7    1  0.2680581E-011  0.5052886E+02  0.7816164E-02  0.1300439E+00
        -11   -1    0    0    0    0  0.00000000000E+00  0.00000000000E+00  0.45593999997E+02  0.45594000000E+02  0.51100000000E-03 0. -1.
         11   -1    0    0    0    0 -0.00000000000E+00 -0.00000000000E+00 -0.45593999997E+02  0.45594000000E+02  0.51100000000E-03 0.  1.
    9900012    2    1    2    0    0 -0.11213718552E+02  0.33710700127E+02  0.19773891278E+02  0.50528861260E+02  0.30000004285E+02 0.  0.
         12    1    1    2    0    0  0.11213718552E+02 -0.33710700127E+02 -0.19773891278E+02  0.40659138740E+02  0.00000000000E+00 0. -1.
         11    1    3    3    0    0 -0.83405102669E+01  0.13487981633E+02 -0.12304379053E+01  0.15906091215E+02  0.51100000000E-03 0. -1.
        -11    1    3    3    0    0 -0.87283485582E+01  0.47415833330E+01  0.12645962766E+02  0.16080642263E+02  0.51100000000E-03 0.  1.
         12    1    3    3    0    0  0.58551402734E+01  0.15481135161E+02  0.83583664171E+01  0.18542127782E+02  0.00000000000E+00 0. -1.
</event>
<event>
 7    1  0.2680581E-011  0.5052886E+02  0.7816164E-02  0.1300439E+00
        -11   -1    0    0    0    0  0.00000000000E+00  0.00000000000E+00  0.45593999997E+02  0.45594000000E+02  0.51100000000E-03 0.  1.
         11   -1    0    0    0    0 -0.00000000000E+00 -0.00000000000E+00 -0.45593999997E+02  0.45594000000E+02  0.51100000000E-03 0. -1.
    9900012    2    1    2    0    0  0.19892561388E+02  0.22559774432E+02  0.27358874052E+02  0.50528863138E+02  0.30000009994E+02 0.  0.
         12    1    1    2    0    0 -0.19892561388E+02 -0.22559774432E+02 -0.27358874052E+02  0.40659136862E+02  0.00000000000E+00 0. -1.
         11    1    3    3    0    0 -0.29726442221E+01  0.58437295279E+01  0.30936635927E+01  0.72495891712E+01  0.51100000000E-03 0. -1.
        -11    1    3    3    0    0  0.36746291542E+01  0.27610219029E+01  0.18223373093E+02  0.18794080677E+02  0.51100000000E-03 0.  1.
         12    1    3    3    0    0  0.19190576456E+02  0.13955023001E+02  0.60418373668E+01  0.24485193289E+02  0.00000000000E+00 0. -1.
</event>
<event>
 7    1  0.2680581E-011  0.5052884E+02  0.7816164E-02  0.1300439E+00
        -11   -1    0    0    0    0  0.00000000000E+00  0.00000000000E+00  0.45593999997E+02  0.45594000000E+02  0.51100000000E-03 0.  1.
         11   -1    0    0    0    0 -0.00000000000E+00 -0.00000000000E+00 -0.45593999997E+02  0.45594000000E+02  0.51100000000E-03 0. -1.
    9900012    2    1    2    0    0  0.10422992878E+02  0.46223634918E+01  0.39027711571E+02  0.50528839958E+02  0.29999939537E+02 0.  0.
         12    1    1    2    0    0 -0.10422992878E+02 -0.46223634918E+01 -0.39027711571E+02  0.40659160042E+02  0.00000000000E+00 0. -1.
         11    1    3    3    0    0  0.12047487215E+02  0.12039227644E+01  0.21391112604E+02  0.24579891719E+02  0.51100000000E-03 0. -1.
        -11    1    3    3    0    0  0.51739600071E+01 -0.45806583912E+01  0.12451271331E+02  0.14240310792E+02  0.51100000000E-03 0.  1.
        -12    1    3    3    0    0 -0.67984543436E+01  0.79990991186E+01  0.51853276372E+01  0.11708637447E+02  0.00000000000E+00 0.  1.
</event>
<event>
 7    1  0.2680581E-011  0.5052887E+02  0.7816164E-02  0.1300439E+00
        -11   -1    0    0    0    0  0.00000000000E+00  0.00000000000E+00  0.45593999997E+02  0.45594000000E+02  0.51100000000E-03 0.  1.
         11   -1    0    0    0    0 -0.00000000000E+00 -0.00000000000E+00 -0.45593999997E+02  0.45594000000E+02  0.51100000000E-03 0. -1.
    9900012    2    1    2    0    0  0.26305862859E+02 -0.28086639689E+02 -0.13126593693E+02  0.50528865580E+02  0.30000017417E+02 0.  0.
         12    1    1    2    0    0 -0.26305862859E+02  0.28086639689E+02  0.13126593693E+02  0.40659134420E+02  0.00000000000E+00 0. -1.
         11    1    3    3    0    0  0.89601240289E+01 -0.19287982234E+01 -0.81723771048E+01  0.12279732611E+02  0.51100000000E-03 0. -1.
        -11    1    3    3    0    0  0.21663431565E+02 -0.16207479232E+02 -0.41616808729E+01  0.27373458645E+02  0.51100000000E-03 0.  1.
        -12    1    3    3    0    0 -0.43176927352E+01 -0.99503622339E+01 -0.79253571549E+00  0.10875674324E+02  0.00000000000E+00 0.  1.
</event>
<event>
 7    1  0.2680581E-011  0.5052886E+02  0.7816164E-02  0.1300439E+00
        -11   -1    0    0    0    0  0.00000000000E+00  0.00000000000E+00  0.45593999997E+02  0.45594000000E+02  0.51100000000E-03 0.  1.
         11   -1    0    0    0    0 -0.00000000000E+00 -0.00000000000E+00 -0.45593999997E+02  0.45594000000E+02  0.51100000000E-03 0. -1.
    9900012    2    1    2    0    0  0.20769012830E+02 -0.12628482569E+02  0.32593483141E+02  0.50528860693E+02  0.30000002563E+02 0.  0.
         12    1    1    2    0    0 -0.20769012830E+02  0.12628482569E+02 -0.32593483141E+02  0.40659139307E+02  0.00000000000E+00 0. -1.
         11    1    3    3    0    0  0.13755020103E+02 -0.11296628608E+02  0.17804452041E+02  0.25175641178E+02  0.51100000000E-03 0. -1.
        -11    1    3    3    0    0  0.65594047111E+00 -0.63983221949E+01  0.15896425802E+02  0.17148327567E+02  0.51100000000E-03 0.  1.
         12    1    3    3    0    0  0.63580522552E+01  0.50664682344E+01 -0.11073947025E+01  0.82048919479E+01  0.00000000000E+00 0. -1.
</event>
<event>
 7    1  0.2680581E-011  0.5052886E+02  0.7816164E-02  0.1300439E+00
        -11   -1    0    0    0    0  0.00000000000E+00  0.00000000000E+00  0.45593999997E+02  0.45594000000E+02  0.51100000000E-03 0. -1.
         11   -1    0    0    0    0 -0.00000000000E+00 -0.00000000000E+00 -0.45593999997E+02  0.45594000000E+02  0.51100000000E-03 0.  1.
    9900012    2    1    2    0    0  0.36841608710E+02 -0.13069193953E+02  0.11182925001E+02  0.50528858660E+02  0.29999996384E+02 0.  0.
         12    1    1    2    0    0 -0.36841608710E+02  0.13069193953E+02 -0.11182925001E+02  0.40659141340E+02  0.00000000000E+00 0. -1.
         11    1    3    3    0    0  0.26387730866E+02 -0.67472636518E+01  0.14619684595E+02  0.30912345187E+02  0.51100000000E-03 0. -1.
        -11    1    3    3    0    0  0.13344619084E+02 -0.18890292239E+01 -0.45184971007E+01  0.14214925474E+02  0.51100000000E-03 0.  1.
        -12    1    3    3    0    0 -0.28907412404E+01 -0.44329010777E+01  0.10817375066E+01  0.54015879995E+01  0.00000000000E+00 0.  1.
</event>
<event>
 7    1  0.2680581E-011  0.5052896E+02  0.7816164E-02  0.1300438E+00
        -11   -1    0    0    0    0  0.00000000000E+00  0.00000000000E+00  0.45593999997E+02  0.45594000000E+02  0.51100000000E-03 0.  1.
         11   -1    0    0    0    0 -0.00000000000E+00 -0.00000000000E+00 -0.45593999997E+02  0.45594000000E+02  0.51100000000E-03 0. -1.
    9900012    2    1    2    0    0 -0.94729225094E+00 -0.35374946262E+02  0.20021818858E+02  0.50528961447E+02  0.30000308813E+02 0.  0.
         12    1    1    2    0    0  0.94729225094E+00  0.35374946262E+02 -0.20021818858E+02  0.40659038553E+02  0.00000000000E+00 0. -1.
         11    1    3    3    0    0  0.20708808838E+01 -0.16308215092E+02  0.14633408580E+01  0.16504175043E+02  0.51100000000E-03 0. -1.
        -11    1    3    3    0    0 -0.93903793244E+01 -0.11209981469E+02  0.21954350817E+01  0.14787252748E+02  0.51100000000E-03 0.  1.
        -12    1    3    3    0    0  0.63722061896E+01 -0.78567497007E+01  0.16363042919E+02  0.19237533655E+02  0.00000000000E+00 0.  1.
</event>
<event>
 7    1  0.2680581E-011  0.5052886E+02  0.7816164E-02  0.1300439E+00
        -11   -1    0    0    0    0  0.00000000000E+00  0.00000000000E+00  0.45593999997E+02  0.45594000000E+02  0.51100000000E-03 0.  1.
         11   -1    0    0    0    0 -0.00000000000E+00 -0.00000000000E+00 -0.45593999997E+02  0.45594000000E+02  0.51100000000E-03 0. -1.
    9900012    2    1    2    0    0  0.11581830904E+02  0.10556017004E+01  0.38960402140E+02  0.50528855433E+02  0.29999986574E+02 0.  0.
         12    1    1    2    0    0 -0.11581830904E+02 -0.10556017004E+01 -0.38960402140E+02  0.40659144567E+02  0.00000000000E+00 0. -1.
         11    1    3    3    0    0  0.10695145408E+02  0.14161376008E+01  0.26386773238E+02  0.28507076019E+02  0.51100000000E-03 0. -1.
        -11    1    3    3    0    0  0.27857561608E+01 -0.88668060090E+01  0.74515092624E+01  0.11912416914E+02  0.51100000000E-03 0.  1.
         12    1    3    3    0    0 -0.18990706642E+01  0.85062701086E+01  0.51221196396E+01  0.10109362500E+02  0.00000000000E+00 0. -1.
</event>
<event>
 7    1  0.2747360E-011  0.5052886E+02  0.7816164E-02  0.1300439E+00
        -11   -1    0    0    0    0  0.00000000000E+00  0.00000000000E+00  0.45593999997E+02  0.45594000000E+02  0.51100000000E-03 0. -1.
         11   -1    0    0    0    0 -0.00000000000E+00 -0.00000000000E+00 -0.45593999997E+02  0.45594000000E+02  0.51100000000E-03 0.  1.
    9900012    2    1    2    0    0  0.70748470386E+01  0.14824182461E+02 -0.37193492215E+02  0.50528859461E+02  0.29999998817E+02 0.  0.
         12    1    1    2    0    0 -0.70748470386E+01 -0.14824182461E+02  0.37193492215E+02  0.40659140539E+02  0.00000000000E+00 0. -1.
         11    1    3    3    0    0  0.46413227303E+01  0.27595095365E+01  0.25618686079E+01  0.59766161491E+01  0.51100000000E-03 0. -1.
        -11    1    3    3    0    0  0.51940311533E+00 -0.38338660231E+01 -0.53446181548E+01  0.65979733071E+01  0.51100000000E-03 0.  1.
        -12    1    3    3    0    0  0.19141211930E+01  0.15898538948E+02 -0.34410742668E+02  0.37954270004E+02  0.00000000000E+00 0.  1.
</event>
<event>
 7    1  0.2680581E-011  0.5052886E+02  0.7816164E-02  0.1300439E+00
        -11   -1    0    0    0    0  0.00000000000E+00  0.00000000000E+00  0.45593999997E+02  0.45594000000E+02  0.51100000000E-03 0.  1.
         11   -1    0    0    0    0 -0.00000000000E+00 -0.00000000000E+00 -0.45593999997E+02  0.45594000000E+02  0.51100000000E-03 0. -1.
    9900012    2    1    2    0    0  0.39786512419E+02  0.48814688279E+01  0.68095757888E+01  0.50528860427E+02  0.30000001755E+02 0.  0.
         12    1    1    2    0    0 -0.39786512419E+02 -0.48814688279E+01 -0.68095757888E+01  0.40659139573E+02  0.00000000000E+00 0. -1.
         11    1    3    3    0    0  0.13537951559E+02  0.49756954470E+01  0.49712987252E+01  0.15256064004E+02  0.51100000000E-03 0.  1.
        -11    1    3    3    0    0  0.34819713240E+00  0.32301128211E+01  0.78335859446E+01  0.84805624278E+01  0.51100000000E-03 0. -1.
        -12    1    3    3    0    0  0.25900363727E+02 -0.33243394401E+01 -0.59953088810E+01  0.26792233996E+02  0.00000000000E+00 0.  1.
</event>
<event>
 7    1  0.2680581E-011  0.5052876E+02  0.7816164E-02  0.1300439E+00
        -11   -1    0    0    0    0  0.00000000000E+00  0.00000000000E+00  0.45593999997E+02  0.45594000000E+02  0.51100000000E-03 0.  1.
         11   -1    0    0    0    0 -0.00000000000E+00 -0.00000000000E+00 -0.45593999997E+02  0.45594000000E+02  0.51100000000E-03 0. -1.
    9900012    2    1    2    0    0 -0.82720482608E+01  0.14045707773E+02  0.37248696415E+02  0.50528756599E+02  0.29999686157E+02 0.  0.
         12    1    1    2    0    0  0.82720482608E+01 -0.14045707773E+02 -0.37248696415E+02  0.40659243401E+02  0.00000000000E+00 0. -1.
         11    1    3    3    0    0 -0.85188150422E+01  0.78989545687E+01 -0.14976961782E+00  0.11618352904E+02  0.51100000000E-03 0. -1.
        -11    1    3    3    0    0  0.92182460119E+00  0.95355177199E+00  0.19544517528E+00  0.13406045856E+01  0.51100000000E-03 0.  1.
        -12    1    3    3    0    0 -0.67505781979E+00  0.51932014327E+01  0.37203020858E+02  0.37569799110E+02  0.00000000000E+00 0.  1.
</event>
<event>
 7    1  0.2680581E-011  0.5052886E+02  0.7816164E-02  0.1300439E+00
        -11   -1    0    0    0    0  0.00000000000E+00  0.00000000000E+00  0.45593999997E+02  0.45594000000E+02  0.51100000000E-03 0.  1.
         11   -1    0    0    0    0 -0.00000000000E+00 -0.00000000000E+00 -0.45593999997E+02  0.45594000000E+02  0.51100000000E-03 0. -1.
    9900012    2    1    2    0    0 -0.32945281956E+02  0.35725296978E+01  0.23558674702E+02  0.50528859265E+02  0.29999998223E+02 0.  0.
         12    1    1    2    0    0  0.32945281956E+02 -0.35725296978E+01 -0.23558674702E+02  0.40659140735E+02  0.00000000000E+00 0. -1.
         11    1    3    3    0    0 -0.43427212395E+01 -0.66409947634E+01  0.88777489896E+00  0.79843712178E+01  0.51100000000E-03 0. -1.
        -11    1    3    3    0    0 -0.30313928392E+02  0.56349328723E+01  0.21275991359E+02  0.37461373861E+02  0.51100000000E-03 0.  1.
         12    1    3    3    0    0  0.17113676758E+01  0.45785915889E+01  0.13949084442E+01  0.50831141859E+01  0.00000000000E+00 0. -1.
</event>
<event>
 7    1  0.2680581E-011  0.5052886E+02  0.7816164E-02  0.1300439E+00
        -11   -1    0    0    0    0  0.00000000000E+00  0.00000000000E+00  0.45593999997E+02  0.45594000000E+02  0.51100000000E-03 0.  1.
         11   -1    0    0    0    0 -0.00000000000E+00 -0.00000000000E+00 -0.45593999997E+02  0.45594000000E+02  0.51100000000E-03 0. -1.
    9900012    2    1    2    0    0 -0.78781869561E+01  0.38545968554E+02  0.10261967014E+02  0.50528862177E+02  0.30000007074E+02 0.  0.
         12    1    1    2    0    0  0.78781869561E+01 -0.38545968554E+02 -0.10261967014E+02  0.40659137823E+02  0.00000000000E+00 0. -1.
         11    1    3    3    0    0 -0.13234215552E+02  0.19120110736E+02  0.18089086372E+01  0.23323705678E+02  0.51100000000E-03 0. -1.
        -11    1    3    3    0    0  0.21338335256E+01  0.13232282367E+02  0.13160970066E+02  0.18784506262E+02  0.51100000000E-03 0.  1.
        -12    1    3    3    0    0  0.32221950704E+01  0.61935754512E+01 -0.47079116893E+01  0.84206502371E+01  0.00000000000E+00 0.  1.
</event>
<event>
 7    1  0.2680581E-011  0.5052887E+02  0.7816164E-02  0.1300439E+00
        -11   -1    0    0    0    0  0.00000000000E+00  0.00000000000E+00  0.45593999997E+02  0.45594000000E+02  0.51100000000E-03 0. -1.
         11   -1    0    0    0    0 -0.00000000000E+00 -0.00000000000E+00 -0.45593999997E+02  0.45594000000E+02  0.51100000000E-03 0.  1.
    9900012    2    1    2    0    0 -0.14473166534E+02 -0.18757432645E+02 -0.33043174812E+02  0.50528865348E+02  0.30000016712E+02 0.  0.
         12    1    1    2    0    0  0.14473166534E+02  0.18757432645E+02  0.33043174812E+02  0.40659134652E+02  0.00000000000E+00 0. -1.
         11    1    3    3    0    0  0.52607763847E+01  0.15242527412E+01 -0.10108083854E+02  0.11496628812E+02  0.51100000000E-03 0. -1.
        -11    1    3    3    0    0  0.45540647599E+00 -0.77826166754E+01 -0.65526870328E+01  0.10184018116E+02  0.51100000000E-03 0.  1.
        -12    1    3    3    0    0 -0.20189349394E+02 -0.12499068711E+02 -0.16382403926E+02  0.28848218420E+02  0.00000000000E+00 0.  1.
</event>
<event>
 7    1  0.2680581E-011  0.5052887E+02  0.7816164E-02  0.1300439E+00
        -11   -1    0    0    0    0  0.00000000000E+00  0.00000000000E+00  0.45593999997E+02  0.45594000000E+02  0.51100000000E-03 0. -1.
         11   -1    0    0    0    0 -0.00000000000E+00 -0.00000000000E+00 -0.45593999997E+02  0.45594000000E+02  0.51100000000E-03 0.  1.
    9900012    2    1    2    0    0 -0.28750133883E+02  0.23577749322E+02 -0.16452491746E+02  0.50528868848E+02  0.30000027351E+02 0.  0.
         12    1    1    2    0    0  0.28750133883E+02 -0.23577749322E+02  0.16452491746E+02  0.40659131152E+02  0.00000000000E+00 0. -1.
         11    1    3    3    0    0 -0.82747963032E+01  0.39054738052E+01 -0.15776559950E+02  0.18238004925E+02  0.51100000000E-03 0. -1.
        -11    1    3    3    0    0  0.72784768074E+00  0.36087405122E+00  0.32446164258E+01  0.33447762764E+01  0.51100000000E-03 0.  1.
        -12    1    3    3    0    0 -0.21203185260E+02  0.19311401465E+02 -0.39205482218E+01  0.28946087647E+02  0.00000000000E+00 0.  1.
</event>
<event>
 7    1  0.2680581E-011  0.5052886E+02  0.7816164E-02  0.1300439E+00
        -11   -1    0    0    0    0  0.00000000000E+00  0.00000000000E+00  0.45593999997E+02  0.45594000000E+02  0.51100000000E-03 0. -1.
         11   -1    0    0    0    0 -0.00000000000E+00 -0.00000000000E+00 -0.45593999997E+02  0.45594000000E+02  0.51100000000E-03 0.  1.
    9900012    2    1    2    0    0 -0.31333193340E+02 -0.13433329074E+02 -0.22157218884E+02  0.50528859778E+02  0.29999999782E+02 0.  0.
         12    1    1    2    0    0  0.31333193340E+02  0.13433329074E+02  0.22157218884E+02  0.40659140222E+02  0.00000000000E+00 0. -1.
         11    1    3    3    0    0 -0.14868050576E+02 -0.15825805643E+01 -0.21418673702E+02  0.26121314527E+02  0.51100000000E-03 0. -1.
        -11    1    3    3    0    0 -0.28571237311E+01 -0.65778632889E+01 -0.55204064740E+01  0.90502115645E+01  0.51100000000E-03 0.  1.
         12    1    3    3    0    0 -0.13608019033E+02 -0.52728852212E+01  0.47818612928E+01  0.15357333687E+02  0.00000000000E+00 0. -1.
</event>
<event>
 7    1  0.2680581E-011  0.5052886E+02  0.7816164E-02  0.1300439E+00
        -11   -1    0    0    0    0  0.00000000000E+00  0.00000000000E+00  0.45593999997E+02  0.45594000000E+02  0.51100000000E-03 0. -1.
         11   -1    0    0    0    0 -0.00000000000E+00 -0.00000000000E+00 -0.45593999997E+02  0.45594000000E+02  0.51100000000E-03 0.  1.
    9900012    2    1    2    0    0  0.23648509413E+02  0.19065761204E+02 -0.27026108356E+02  0.50528858585E+02  0.29999996155E+02 0.  0.
         12    1    1    2    0    0 -0.23648509413E+02 -0.19065761204E+02  0.27026108356E+02  0.40659141415E+02  0.00000000000E+00 0. -1.
         11    1    3    3    0    0  0.32726853605E+01  0.84660913543E+01  0.22065546901E+01  0.93409879644E+01  0.51100000000E-03 0.  1.
        -11    1    3    3    0    0 -0.22464082559E+01  0.50330769494E+01 -0.37821581208E+01  0.66845294481E+01  0.51100000000E-03 0. -1.
        -12    1    3    3    0    0  0.22622232309E+02  0.55665928998E+01 -0.25450504925E+02  0.34503341173E+02  0.00000000000E+00 0.  1.
</event>
<event>
 7    1  0.2680581E-011  0.5052886E+02  0.7816164E-02  0.1300439E+00
        -11   -1    0    0    0    0  0.00000000000E+00  0.00000000000E+00  0.45593999997E+02  0.45594000000E+02  0.51100000000E-03 0.  1.
         11   -1    0    0    0    0 -0.00000000000E+00 -0.00000000000E+00 -0.45593999997E+02  0.45594000000E+02  0.51100000000E-03 0. -1.
    9900012    2    1    2    0    0  0.17974419947E+00  0.32838662538E+02  0.23974061084E+02  0.50528859943E+02  0.30000000284E+02 0.  0.
         12    1    1    2    0    0 -0.17974419947E+00 -0.32838662538E+02 -0.23974061084E+02  0.40659140057E+02  0.00000000000E+00 0. -1.
         11    1    3    3    0    0 -0.20961562402E+01  0.37363498534E+01  0.74082100324E+01  0.85577892797E+01  0.51100000000E-03 0. -1.
        -11    1    3    3    0    0  0.55760995057E+01  0.29830740275E+02  0.20622313117E+02  0.36691221697E+02  0.51100000000E-03 0.  1.
         12    1    3    3    0    0 -0.33001990660E+01 -0.72842759013E+00 -0.40564620649E+01  0.52798489669E+01  0.00000000000E+00 0. -1.
</event>
<event>
 7    1  0.2680581E-011  0.5052887E+02  0.7816164E-02  0.1300439E+00
        -11   -1    0    0    0    0  0.00000000000E+00  0.00000000000E+00  0.45593999997E+02  0.45594000000E+02  0.51100000000E-03 0.  1.
         11   -1    0    0    0    0 -0.00000000000E+00 -0.00000000000E+00 -0.45593999997E+02  0.45594000000E+02  0.51100000000E-03 0. -1.
    9900012    2    1    2    0    0 -0.19693379552E+02 -0.26694510246E+02  0.23510400641E+02  0.50528868015E+02  0.30000024819E+02 0.  0.
         12    1    1    2    0    0  0.19693379552E+02  0.26694510246E+02 -0.23510400641E+02  0.40659131985E+02  0.00000000000E+00 0. -1.
         11    1    3    3    0    0 -0.10564799517E+02 -0.21486036777E+02  0.11082035018E+02  0.26383257298E+02  0.51100000000E-03 0. -1.
        -11    1    3    3    0    0  0.33994373590E+01 -0.70430793346E+01  0.64798709084E+01  0.10156272354E+02  0.51100000000E-03 0.  1.
         12    1    3    3    0    0 -0.12528017393E+02  0.18346058655E+01  0.59484947144E+01  0.13989338364E+02  0.00000000000E+00 0. -1.
</event>
<event>
 7    1  0.2680581E-011  0.5052886E+02  0.7816164E-02  0.1300439E+00
        -11   -1    0    0    0    0  0.00000000000E+00  0.00000000000E+00  0.45593999997E+02  0.45594000000E+02  0.51100000000E-03 0.  1.
         11   -1    0    0    0    0 -0.00000000000E+00 -0.00000000000E+00 -0.45593999997E+02  0.45594000000E+02  0.51100000000E-03 0. -1.
    9900012    2    1    2    0    0 -0.42850271122E+01 -0.20370143404E+02  0.34926517325E+02  0.50528858197E+02  0.29999994977E+02 0.  0.
         12    1    1    2    0    0  0.42850271122E+01  0.20370143404E+02 -0.34926517325E+02  0.40659141803E+02  0.00000000000E+00 0. -1.
         11    1    3    3    0    0  0.75722805316E+01 -0.12073823132E+02  0.15379422916E+02  0.20967672425E+02  0.51100000000E-03 0. -1.
        -11    1    3    3    0    0 -0.35559268693E+01 -0.10036731836E+02  0.31565486645E+01  0.11106052475E+02  0.51100000000E-03 0.  1.
        -12    1    3    3    0    0 -0.83013807745E+01  0.17404115637E+01  0.16390545745E+02  0.18455133297E+02  0.00000000000E+00 0.  1.
</event>
<event>
 7    1  0.2680581E-011  0.5052886E+02  0.7816164E-02  0.1300439E+00
        -11   -1    0    0    0    0  0.00000000000E+00  0.00000000000E+00  0.45593999997E+02  0.45594000000E+02  0.51100000000E-03 0.  1.
         11   -1    0    0    0    0 -0.00000000000E+00 -0.00000000000E+00 -0.45593999997E+02  0.45594000000E+02  0.51100000000E-03 0. -1.
    9900012    2    1    2    0    0  0.31550189916E+02 -0.86409937992E+01  0.24147137570E+02  0.50528861907E+02  0.30000006254E+02 0.  0.
         12    1    1    2    0    0 -0.31550189916E+02  0.86409937992E+01 -0.24147137570E+02  0.40659138093E+02  0.00000000000E+00 0. -1.
         11    1    3    3    0    0  0.19277724213E+02 -0.71660510441E+01  0.18024008098E+02  0.27346806150E+02  0.51100000000E-03 0. -1.
        -11    1    3    3    0    0 -0.99483530049E+00  0.34250210515E+01  0.81482002845E+01  0.88945845668E+01  0.51100000000E-03 0.  1.
         12    1    3    3    0    0  0.13267301004E+02 -0.48999638067E+01 -0.20250708125E+01  0.14287471191E+02  0.00000000000E+00 0. -1.
</event>
<event>
 7    1  0.2680581E-011  0.5052887E+02  0.7816164E-02  0.1300439E+00
        -11   -1    0    0    0    0  0.00000000000E+00  0.00000000000E+00  0.45593999997E+02  0.45594000000E+02  0.51100000000E-03 0. -1.
         11   -1    0    0    0    0 -0.00000000000E+00 -0.00000000000E+00 -0.45593999997E+02  0.45594000000E+02  0.51100000000E-03 0.  1.
    9900012    2    1    2    0    0 -0.40252446310E+02 -0.19113412090E+01 -0.54085460845E+01  0.50528867817E+02  0.30000024217E+02 0.  0.
         12    1    1    2    0    0  0.40252446310E+02  0.19113412090E+01  0.54085460845E+01  0.40659132183E+02  0.00000000000E+00 0. -1.
         11    1    3    3    0    0 -0.12083191946E+02  0.30350520865E+01 -0.91288813120E+01  0.15445113889E+02  0.51100000000E-03 0. -1.
        -11    1    3    3    0    0 -0.96146004470E+00  0.43453030883E+01 -0.32372096571E+01  0.55032345918E+01  0.51100000000E-03 0.  1.
        -12    1    3    3    0    0 -0.27207794319E+02 -0.92916963838E+01  0.69575448846E+01  0.29580519336E+02  0.00000000000E+00 0.  1.
</event>
<event>
 7    1  0.3000911E-011  0.5052886E+02  0.7816164E-02  0.1300439E+00
        -11   -1    0    0    0    0  0.00000000000E+00  0.00000000000E+00  0.45593999997E+02  0.45594000000E+02  0.51100000000E-03 0.  1.
         11   -1    0    0    0    0 -0.00000000000E+00 -0.00000000000E+00 -0.45593999997E+02  0.45594000000E+02  0.51100000000E-03 0. -1.
    9900012    2    1    2    0    0 -0.15775870737E+02  0.37206115984E+02  0.44712813659E+01  0.50528861775E+02  0.30000005852E+02 0.  0.
         12    1    1    2    0    0  0.15775870737E+02 -0.37206115984E+02 -0.44712813659E+01  0.40659138225E+02  0.00000000000E+00 0. -1.
         11    1    3    3    0    0 -0.14188938607E+01  0.59338365883E+01 -0.80909814142E+01  0.10133491844E+02  0.51100000000E-03 0. -1.
        -11    1    3    3    0    0 -0.10720505460E+02  0.81031262376E+01 -0.69237354400E+00  0.13456198331E+02  0.51100000000E-03 0.  1.
        -12    1    3    3    0    0 -0.36364714160E+01  0.23169153158E+02  0.13254636324E+02  0.26939171600E+02  0.00000000000E+00 0.  1.
</event>
<event>
 7    1  0.2680581E-011  0.5052887E+02  0.7816164E-02  0.1300439E+00
        -11   -1    0    0    0    0  0.00000000000E+00  0.00000000000E+00  0.45593999997E+02  0.45594000000E+02  0.51100000000E-03 0.  1.
         11   -1    0    0    0    0 -0.00000000000E+00 -0.00000000000E+00 -0.45593999997E+02  0.45594000000E+02  0.51100000000E-03 0. -1.
    9900012    2    1    2    0    0  0.65460695236E+01 -0.94625712720E+01  0.38997099814E+02  0.50528867260E+02  0.30000022522E+02 0.  0.
         12    1    1    2    0    0 -0.65460695236E+01  0.94625712720E+01 -0.38997099814E+02  0.40659132740E+02  0.00000000000E+00 0. -1.
         11    1    3    3    0    0  0.10570166176E+02 -0.12260452606E+02  0.18402630250E+02  0.24509261749E+02  0.51100000000E-03 0. -1.
        -11    1    3    3    0    0 -0.34468630331E+01 -0.59943279414E+01  0.71630621200E+01  0.99560178502E+01  0.51100000000E-03 0.  1.
        -12    1    3    3    0    0 -0.57723361899E+00  0.87922092757E+01  0.13431407444E+02  0.16063587660E+02  0.00000000000E+00 0.  1.
</event>
<event>
 7    1  0.2680581E-011  0.5052886E+02  0.7816164E-02  0.1300439E+00
        -11   -1    0    0    0    0  0.00000000000E+00  0.00000000000E+00  0.45593999997E+02  0.45594000000E+02  0.51100000000E-03 0.  1.
         11   -1    0    0    0    0 -0.00000000000E+00 -0.00000000000E+00 -0.45593999997E+02  0.45594000000E+02  0.51100000000E-03 0. -1.
    9900012    2    1    2    0    0  0.33679177560E+02 -0.19204207659E+02  0.12250581524E+02  0.50528863996E+02  0.30000012602E+02 0.  0.
         12    1    1    2    0    0 -0.33679177560E+02  0.19204207659E+02 -0.12250581524E+02  0.40659136004E+02  0.00000000000E+00 0. -1.
         11    1    3    3    0    0 -0.38571204618E+00 -0.15745329452E+01 -0.11587698314E-01  0.16211299497E+01  0.51100000000E-03 0. -1.
        -11    1    3    3    0    0  0.49455163644E+01 -0.16390067143E+02  0.96320827454E+01  0.19643560048E+02  0.51100000000E-03 0.  1.
        -12    1    3    3    0    0  0.29119373242E+02 -0.12396075701E+01  0.26300864768E+01  0.29264173998E+02  0.00000000000E+00 0.  1.
</event>
<event>
 7    1  0.2680581E-011  0.5052886E+02  0.7816164E-02  0.1300439E+00
        -11   -1    0    0    0    0  0.00000000000E+00  0.00000000000E+00  0.45593999997E+02  0.45594000000E+02  0.51100000000E-03 0. -1.
         11   -1    0    0    0    0 -0.00000000000E+00 -0.00000000000E+00 -0.45593999997E+02  0.45594000000E+02  0.51100000000E-03 0.  1.
    9900012    2    1    2    0    0 -0.18968099568E+02  0.35827544134E+02 -0.31246688509E+01  0.50528864799E+02  0.30000015042E+02 0.  0.
         12    1    1    2    0    0  0.18968099568E+02 -0.35827544134E+02  0.31246688509E+01  0.40659135201E+02  0.00000000000E+00 0. -1.
         11    1    3    3    0    0  0.34306040415E+01  0.84181359680E+01  0.47504528093E+01  0.10256747019E+02  0.51100000000E-03 0. -1.
        -11    1    3    3    0    0 -0.12262860888E+02  0.25898248196E+02 -0.26722334634E+01  0.28779121751E+02  0.51100000000E-03 0.  1.
        -12    1    3    3    0    0 -0.10135842721E+02  0.15111599698E+01 -0.52028881968E+01  0.11492996028E+02  0.00000000000E+00 0.  1.
</event>
<event>
 7    1  0.2680581E-011  0.5052888E+02  0.7816164E-02  0.1300439E+00
        -11   -1    0    0    0    0  0.00000000000E+00  0.00000000000E+00  0.45593999997E+02  0.45594000000E+02  0.51100000000E-03 0.  1.
         11   -1    0    0    0    0 -0.00000000000E+00 -0.00000000000E+00 -0.45593999997E+02  0.45594000000E+02  0.51100000000E-03 0. -1.
    9900012    2    1    2    0    0 -0.30938737569E+02  0.96349689089E+01  0.24558621697E+02  0.50528880385E+02  0.30000062417E+02 0.  0.
         12    1    1    2    0    0  0.30938737569E+02 -0.96349689089E+01 -0.24558621697E+02  0.40659119615E+02  0.00000000000E+00 0. -1.
         11    1    3    3    0    0 -0.32593904899E+01  0.39791718473E+01  0.75906167674E+01  0.91692365073E+01  0.51100000000E-03 0. -1.
        -11    1    3    3    0    0 -0.19168327571E+01  0.89386477058E+01 -0.17996807788E+01  0.93173237463E+01  0.51100000000E-03 0.  1.
         12    1    3    3    0    0 -0.25762514322E+02 -0.32828506442E+01  0.18767685708E+02  0.32042320131E+02  0.00000000000E+00 0. -1.
</event>
<event>
 7    1  0.2680581E-011  0.5052885E+02  0.7816164E-02  0.1300439E+00
        -11   -1    0    0    0    0  0.00000000000E+00  0.00000000000E+00  0.45593999997E+02  0.45594000000E+02  0.51100000000E-03 0. -1.
         11   -1    0    0    0    0 -0.00000000000E+00 -0.00000000000E+00 -0.45593999997E+02  0.45594000000E+02  0.51100000000E-03 0.  1.
    9900012    2    1    2    0    0 -0.28265113883E+02  0.23684245872E+02 -0.17126184348E+02  0.50528851513E+02  0.29999974660E+02 0.  0.
         12    1    1    2    0    0  0.28265113883E+02 -0.23684245872E+02  0.17126184348E+02  0.40659148487E+02  0.00000000000E+00 0. -1.
         11    1    3    3    0    0 -0.99236490609E+00  0.73646499586E+01 -0.39462693250E+01  0.84140298886E+01  0.51100000000E-03 0. -1.
        -11    1    3    3    0    0 -0.26422938944E+00  0.13936805563E+01  0.57435968212E+01  0.59161699915E+01  0.51100000000E-03 0.  1.
        -12    1    3    3    0    0 -0.27008519587E+02  0.14925915357E+02 -0.18923511844E+02  0.36198651633E+02  0.00000000000E+00 0.  1.
</event>
<event>
 7    1  0.2680581E-011  0.5052886E+02  0.7816164E-02  0.1300439E+00
        -11   -1    0    0    0    0  0.00000000000E+00  0.00000000000E+00  0.45593999997E+02  0.45594000000E+02  0.51100000000E-03 0.  1.
         11   -1    0    0    0    0 -0.00000000000E+00 -0.00000000000E+00 -0.45593999997E+02  0.45594000000E+02  0.51100000000E-03 0. -1.
    9900012    2    1    2    0    0  0.16814751262E+02  0.22596708265E+02  0.29322664599E+02  0.50528859040E+02  0.29999997538E+02 0.  0.
         12    1    1    2    0    0 -0.16814751262E+02 -0.22596708265E+02 -0.29322664599E+02  0.40659140960E+02  0.00000000000E+00 0. -1.
         11    1    3    3    0    0  0.26154289216E+01 -0.13320656643E+01  0.61749904160E+01  0.68370588909E+01  0.51100000000E-03 0. -1.
        -11    1    3    3    0    0  0.20684023423E+02  0.18243101569E+02  0.21360613710E+02  0.34884314500E+02  0.51100000000E-03 0.  1.
        -12    1    3    3    0    0 -0.64847010827E+01  0.56856723605E+01  0.17870604734E+01  0.88074856491E+01  0.00000000000E+00 0.  1.
</event>
<event>
 7    1  0.2680581E-011  0.5052884E+02  0.7816164E-02  0.1300439E+00
        -11   -1    0    0    0    0  0.00000000000E+00  0.00000000000E+00  0.45593999997E+02  0.45594000000E+02  0.51100000000E-03 0. -1.
         11   -1    0    0    0    0 -0.00000000000E+00 -0.00000000000E+00 -0.45593999997E+02  0.45594000000E+02  0.51100000000E-03 0.  1.
    9900012    2    1    2    0    0 -0.23524056819E+02 -0.32833822553E+02 -0.46611638056E+01  0.50528836203E+02  0.29999928123E+02 0.  0.
         12    1    1    2    0    0  0.23524056819E+02  0.32833822553E+02  0.46611638056E+01  0.40659163797E+02  0.00000000000E+00 0. -1.
         11    1    3    3    0    0 -0.34350292151E+01 -0.50707781539E+01 -0.91895906825E+01  0.11043586101E+02  0.51100000000E-03 0. -1.
        -11    1    3    3    0    0 -0.10372502414E+02 -0.26086039123E+02 -0.11698283703E+01  0.28096952542E+02  0.51100000000E-03 0.  1.
         12    1    3    3    0    0 -0.97165251900E+01 -0.16770052756E+01  0.56982552472E+01  0.11388297560E+02  0.00000000000E+00 0. -1.
</event>
<event>
 7    1  0.2680581E-011  0.5052887E+02  0.7816164E-02  0.1300439E+00
        -11   -1    0    0    0    0  0.00000000000E+00  0.00000000000E+00  0.45593999997E+02  0.45594000000E+02  0.51100000000E-03 0. -1.
         11   -1    0    0    0    0 -0.00000000000E+00 -0.00000000000E+00 -0.45593999997E+02  0.45594000000E+02  0.51100000000E-03 0.  1.
    9900012    2    1    2    0    0 -0.38145565505E+02  0.13768858595E+02  0.29153872040E+01  0.50528866742E+02  0.30000020949E+02 0.  0.
         12    1    1    2    0    0  0.38145565505E+02 -0.13768858595E+02 -0.29153872040E+01  0.40659133258E+02  0.00000000000E+00 0. -1.
         11    1    3    3    0    0 -0.16151988767E+01  0.80690125576E+01  0.24601015243E+01  0.85889423585E+01  0.51100000000E-03 0. -1.
        -11    1    3    3    0    0 -0.15224860212E+02  0.24448346592E+01 -0.95925400661E+01  0.18160132438E+02  0.51100000000E-03 0.  1.
         12    1    3    3    0    0 -0.21305506417E+02  0.32550113787E+01  0.10047825746E+02  0.23779791945E+02  0.00000000000E+00 0. -1.
</event>
<event>
 7    1  0.2680581E-011  0.5052886E+02  0.7816164E-02  0.1300439E+00
        -11   -1    0    0    0    0  0.00000000000E+00  0.00000000000E+00  0.45593999997E+02  0.45594000000E+02  0.51100000000E-03 0.  1.
         11   -1    0    0    0    0 -0.00000000000E+00 -0.00000000000E+00 -0.45593999997E+02  0.45594000000E+02  0.51100000000E-03 0. -1.
    9900012    2    1    2    0    0 -0.37980609213E+02 -0.13479234429E+02  0.53804490197E+01  0.50528859962E+02  0.30000000340E+02 0.  0.
         12    1    1    2    0    0  0.37980609213E+02  0.13479234429E+02 -0.53804490197E+01  0.40659140038E+02  0.00000000000E+00 0. -1.
         11    1    3    3    0    0 -0.31688843918E+02 -0.49398927758E+01  0.61084434597E+01  0.32648100270E+02  0.51100000000E-03 0. -1.
        -11    1    3    3    0    0 -0.92685914957E+01 -0.78084430150E+01  0.35402952402E+01  0.12625856853E+02  0.51100000000E-03 0.  1.
         12    1    3    3    0    0  0.29768262005E+01 -0.73089863791E+00 -0.42682896801E+01  0.52549028384E+01  0.00000000000E+00 0. -1.
</event>
<event>
 7    1  0.2680581E-011  0.5052886E+02  0.7816164E-02  0.1300439E+00
        -11   -1    0    0    0    0  0.00000000000E+00  0.00000000000E+00  0.45593999997E+02  0.45594000000E+02  0.51100000000E-03 0. -1.
         11   -1    0    0    0    0 -0.00000000000E+00 -0.00000000000E+00 -0.45593999997E+02  0.45594000000E+02  0.51100000000E-03 0.  1.
    9900012    2    1    2    0    0  0.29960130224E+02 -0.58569343600E+01 -0.26856149553E+02  0.50528857708E+02  0.29999993488E+02 0.  0.
         12    1    1    2    0    0 -0.29960130224E+02  0.58569343600E+01  0.26856149553E+02  0.40659142292E+02  0.00000000000E+00 0. -1.
         11    1    3    3    0    0  0.58948882331E+01 -0.19219653541E+01  0.99206429305E+00  0.62791599697E+01  0.51100000000E-03 0. -1.
        -11    1    3    3    0    0  0.28676646342E+02 -0.58945663127E+01 -0.24921364496E+02  0.38446981235E+02  0.51100000000E-03 0.  1.
         12    1    3    3    0    0 -0.46114043516E+01  0.19595973067E+01 -0.29268493504E+01  0.58027165034E+01  0.00000000000E+00 0. -1.
</event>
<event>
 7    1  0.2680581E-011  0.5052886E+02  0.7816164E-02  0.1300439E+00
        -11   -1    0    0    0    0  0.00000000000E+00  0.00000000000E+00  0.45593999997E+02  0.45594000000E+02  0.51100000000E-03 0. -1.
         11   -1    0    0    0    0 -0.00000000000E+00 -0.00000000000E+00 -0.45593999997E+02  0.45594000000E+02  0.51100000000E-03 0.  1.
    9900012    2    1    2    0    0 -0.18426342898E+01 -0.14641706153E+02 -0.37886551823E+02  0.50528859954E+02  0.30000000317E+02 0.  0.
         12    1    1    2    0    0  0.18426342898E+01  0.14641706153E+02  0.37886551823E+02  0.40659140046E+02  0.00000000000E+00 0. -1.
         11    1    3    3    0    0  0.47883063145E+01 -0.57813840130E+00  0.20171208754E+01  0.52278961600E+01  0.51100000000E-03 0. -1.
        -11    1    3    3    0    0  0.36858603313E+01 -0.24589068073E+01 -0.17433389452E+02  0.17987630670E+02  0.51100000000E-03 0.  1.
         12    1    3    3    0    0 -0.10316800936E+02 -0.11604660944E+02 -0.22470283247E+02  0.27313333124E+02  0.00000000000E+00 0. -1.
</event>
<event>
 7    1  0.2680581E-011  0.5052887E+02  0.7816164E-02  0.1300439E+00
        -11   -1    0    0    0    0  0.00000000000E+00  0.00000000000E+00  0.45593999997E+02  0.45594000000E+02  0.51100000000E-03 0. -1.
         11   -1    0    0    0    0 -0.00000000000E+00 -0.00000000000E+00 -0.45593999997E+02  0.45594000000E+02  0.51100000000E-03 0.  1.
    9900012    2    1    2    0    0 -0.17830628442E+02 -0.36522842195E+02  0.11468466391E+01  0.50528873475E+02  0.30000041413E+02 0.  0.
         12    1    1    2    0    0  0.17830628442E+02  0.36522842195E+02 -0.11468466391E+01  0.40659126525E+02  0.00000000000E+00 0. -1.
         11    1    3    3    0    0  0.18050604930E+01 -0.18346031141E+02 -0.22070332196E+01  0.18566262357E+02  0.51100000000E-03 0. -1.
        -11    1    3    3    0    0 -0.31839696630E+01 -0.12559083018E+02 -0.32639043462E+01  0.13361186359E+02  0.51100000000E-03 0.  1.
         12    1    3    3    0    0 -0.16451719272E+02 -0.56177280354E+01  0.66177842049E+01  0.18601424759E+02  0.00000000000E+00 0. -1.
</event>
<event>
 7    1  0.2680581E-011  0.5052886E+02  0.7816164E-02  0.1300439E+00
        -11   -1    0    0    0    0  0.00000000000E+00  0.00000000000E+00  0.45593999997E+02  0.45594000000E+02  0.51100000000E-03 0.  1.
         11   -1    0    0    0    0 -0.00000000000E+00 -0.00000000000E+00 -0.45593999997E+02  0.45594000000E+02  0.51100000000E-03 0. -1.
    9900012    2    1    2    0    0 -0.12580774941E+01 -0.25236842078E+02  0.31854118808E+02  0.50528857829E+02  0.29999993856E+02 0.  0.
         12    1    1    2    0    0  0.12580774941E+01  0.25236842078E+02 -0.31854118808E+02  0.40659142171E+02  0.00000000000E+00 0. -1.
         11    1    3    3    0    0  0.62769430803E+00 -0.67810088545E+01  0.19283485523E+02  0.20450645355E+02  0.51100000000E-03 0.  1.
        -11    1    3    3    0    0 -0.59788214263E+01  0.12902947547E+01  0.67069463291E+01  0.90771303574E+01  0.51100000000E-03 0. -1.
         12    1    3    3    0    0  0.40930496242E+01 -0.19746127978E+02  0.58636869556E+01  0.21001082117E+02  0.00000000000E+00 0. -1.
</event>
<event>
 7    1  0.2680581E-011  0.5052886E+02  0.7816164E-02  0.1300439E+00
        -11   -1    0    0    0    0  0.00000000000E+00  0.00000000000E+00  0.45593999997E+02  0.45594000000E+02  0.51100000000E-03 0.  1.
         11   -1    0    0    0    0 -0.00000000000E+00 -0.00000000000E+00 -0.45593999997E+02  0.45594000000E+02  0.51100000000E-03 0. -1.
    9900012    2    1    2    0    0 -0.10459640260E+02 -0.33357434180E+01  0.39148877946E+02  0.50528857080E+02  0.29999991581E+02 0.  0.
         12    1    1    2    0    0  0.10459640260E+02  0.33357434180E+01 -0.39148877946E+02  0.40659142920E+02  0.00000000000E+00 0. -1.
         11    1    3    3    0    0  0.15568269641E+01 -0.18316012263E+01 -0.22057193692E+01  0.32624640144E+01  0.51100000000E-03 0. -1.
        -11    1    3    3    0    0  0.40718846980E+01 -0.35015570007E+01  0.18374809679E+02  0.19143530955E+02  0.51100000000E-03 0.  1.
         12    1    3    3    0    0 -0.16088351922E+02  0.19974148090E+01  0.22979787637E+02  0.28122862111E+02  0.00000000000E+00 0. -1.
</event>
<event>
 7    1  0.2680581E-011  0.5052886E+02  0.7816164E-02  0.1300439E+00
        -11   -1    0    0    0    0  0.00000000000E+00  0.00000000000E+00  0.45593999997E+02  0.45594000000E+02  0.51100000000E-03 0.  1.
         11   -1    0    0    0    0 -0.00000000000E+00 -0.00000000000E+00 -0.45593999997E+02  0.45594000000E+02  0.51100000000E-03 0. -1.
    9900012    2    1    2    0    0 -0.30467824033E+02 -0.25723339596E+02  0.79490506000E+01  0.50528857034E+02  0.29999991441E+02 0.  0.
         12    1    1    2    0    0  0.30467824033E+02  0.25723339596E+02 -0.79490506000E+01  0.40659142966E+02  0.00000000000E+00 0. -1.
         11    1    3    3    0    0 -0.46290649590E+01 -0.12432484002E+02  0.22364624664E+01  0.13453500120E+02  0.51100000000E-03 0. -1.
        -11    1    3    3    0    0 -0.12310479324E+02 -0.35897001743E+01  0.13567215784E+02  0.18668240220E+02  0.51100000000E-03 0.  1.
         12    1    3    3    0    0 -0.13528279750E+02 -0.97011554199E+01 -0.78546276502E+01  0.18407116694E+02  0.00000000000E+00 0. -1.
</event>
<event>
 7    1  0.2680581E-011  0.5052886E+02  0.7816164E-02  0.1300439E+00
        -11   -1    0    0    0    0  0.00000000000E+00  0.00000000000E+00  0.45593999997E+02  0.45594000000E+02  0.51100000000E-03 0.  1.
         11   -1    0    0    0    0 -0.00000000000E+00 -0.00000000000E+00 -0.45593999997E+02  0.45594000000E+02  0.51100000000E-03 0. -1.
    9900012    2    1    2    0    0  0.17560651710E+02  0.31096816730E+02  0.19436488501E+02  0.50528860997E+02  0.30000003487E+02 0.  0.
         12    1    1    2    0    0 -0.17560651710E+02 -0.31096816730E+02 -0.19436488501E+02  0.40659139003E+02  0.00000000000E+00 0. -1.
         11    1    3    3    0    0  0.36715758549E+01  0.14137511751E+02 -0.28787968348E+01  0.14887483980E+02  0.51100000000E-03 0. -1.
        -11    1    3    3    0    0  0.82848666792E+01  0.17530228971E+02  0.93932782913E+01  0.21544874587E+02  0.51100000000E-03 0.  1.
         12    1    3    3    0    0  0.56042091762E+01 -0.57092399238E+00  0.12922007045E+02  0.14096502430E+02  0.00000000000E+00 0. -1.
</event>
<event>
 7    1  0.2680581E-011  0.5052882E+02  0.7816164E-02  0.1300439E+00
        -11   -1    0    0    0    0  0.00000000000E+00  0.00000000000E+00  0.45593999997E+02  0.45594000000E+02  0.51100000000E-03 0.  1.
         11   -1    0    0    0    0 -0.00000000000E+00 -0.00000000000E+00 -0.45593999997E+02  0.45594000000E+02  0.51100000000E-03 0. -1.
    9900012    2    1    2    0    0  0.29760490351E+02 -0.20128553880E+02  0.19034787684E+02  0.50528823799E+02  0.29999890418E+02 0.  0.
         12    1    1    2    0    0 -0.29760490351E+02  0.20128553880E+02 -0.19034787684E+02  0.40659176201E+02  0.00000000000E+00 0. -1.
         11    1    3    3    0    0 -0.47044378040E+01 -0.19426804167E+01  0.57802348484E+01  0.77017437906E+01  0.51100000000E-03 0. -1.
        -11    1    3    3    0    0  0.12355048548E+02 -0.21227806939E+01  0.83477605113E+01  0.15061159594E+02  0.51100000000E-03 0.  1.
        -12    1    3    3    0    0  0.22109879606E+02 -0.16063092769E+02  0.49067923243E+01  0.27765920414E+02  0.00000000000E+00 0.  1.
</event>
<event>
 7    1  0.2680581E-011  0.5052887E+02  0.7816164E-02  0.1300439E+00
        -11   -1    0    0    0    0  0.00000000000E+00  0.00000000000E+00  0.45593999997E+02  0.45594000000E+02  0.51100000000E-03 0. -1.
         11   -1    0    0    0    0 -0.00000000000E+00 -0.00000000000E+00 -0.45593999997E+02  0.45594000000E+02  0.51100000000E-03 0.  1.
    9900012    2    1    2    0    0  0.28719624850E+02  0.28745900716E+02  0.14215551833E+01  0.50528874596E+02  0.30000044822E+02 0.  0.
         12    1    1    2    0    0 -0.28719624850E+02 -0.28745900716E+02 -0.14215551833E+01  0.40659125404E+02  0.00000000000E+00 0. -1.
         11    1    3    3    0    0  0.56038753665E+01  0.91787750760E+01  0.48570087727E+01  0.11800163791E+02  0.51100000000E-03 0. -1.
        -11    1    3    3    0    0 -0.35233254715E+01 -0.34413662661E+00  0.32496066252E+01  0.48054339945E+01  0.51100000000E-03 0.  1.
        -12    1    3    3    0    0  0.26639074955E+02  0.19911262266E+02 -0.66850602145E+01  0.33923276810E+02  0.00000000000E+00 0.  1.
</event>
<event>
 7    1  0.2680581E-011  0.5052899E+02  0.7816164E-02  0.1300438E+00
        -11   -1    0    0    0    0  0.00000000000E+00  0.00000000000E+00  0.45593999997E+02  0.45594000000E+02  0.51100000000E-03 0.  1.
         11   -1    0    0    0    0 -0.00000000000E+00 -0.00000000000E+00 -0.45593999997E+02  0.45594000000E+02  0.51100000000E-03 0. -1.
    9900012    2    1    2    0    0 -0.15200140705E+02 -0.42772139179E+01  0.37467540850E+02  0.50528985579E+02  0.30000382162E+02 0.  0.
         12    1    1    2    0    0  0.15200140705E+02  0.42772139179E+01 -0.37467540850E+02  0.40659014421E+02  0.00000000000E+00 0. -1.
         11    1    3    3    0    0 -0.13145890619E+02 -0.42709480966E+01  0.86281128980E+01  0.16294163687E+02  0.51100000000E-03 0. -1.
        -11    1    3    3    0    0 -0.74522591453E+01  0.35734103294E+00  0.33515171784E+01  0.81790296882E+01  0.51100000000E-03 0.  1.
         12    1    3    3    0    0  0.53980090588E+01 -0.36360685416E+00  0.25487910774E+02  0.26055792204E+02  0.00000000000E+00 0. -1.
</event>
<event>
 7    1  0.2680581E-011  0.5052883E+02  0.7816164E-02  0.1300439E+00
        -11   -1    0    0    0    0  0.00000000000E+00  0.00000000000E+00  0.45593999997E+02  0.45594000000E+02  0.51100000000E-03 0.  1.
         11   -1    0    0    0    0 -0.00000000000E+00 -0.00000000000E+00 -0.45593999997E+02  0.45594000000E+02  0.51100000000E-03 0. -1.
    9900012    2    1    2    0    0  0.39084129105E+02  0.79241419448E+01 -0.79250644001E+01  0.50528833515E+02  0.29999919953E+02 0.  0.
         12    1    1    2    0    0 -0.39084129105E+02 -0.79241419448E+01  0.79250644001E+01  0.40659166485E+02  0.00000000000E+00 0. -1.
         11    1    3    3    0    0  0.36289768351E+01  0.45894629434E+01 -0.58176984594E+01  0.82509550117E+01  0.51100000000E-03 0. -1.
        -11    1    3    3    0    0  0.28921530078E+02  0.68203159816E+01 -0.10097713587E+02  0.31383680984E+02  0.51100000000E-03 0.  1.
         12    1    3    3    0    0  0.65336221919E+01 -0.34856369802E+01  0.79903476459E+01  0.10894197520E+02  0.00000000000E+00 0. -1.
</event>
<event>
 7    1  0.2680581E-011  0.5052879E+02  0.7816164E-02  0.1300439E+00
        -11   -1    0    0    0    0  0.00000000000E+00  0.00000000000E+00  0.45593999997E+02  0.45594000000E+02  0.51100000000E-03 0. -1.
         11   -1    0    0    0    0 -0.00000000000E+00 -0.00000000000E+00 -0.45593999997E+02  0.45594000000E+02  0.51100000000E-03 0.  1.
    9900012    2    1    2    0    0  0.32308089447E+02  0.24565864445E+02  0.24241834918E+01  0.50528794336E+02  0.29999800862E+02 0.  0.
         12    1    1    2    0    0 -0.32308089447E+02 -0.24565864445E+02 -0.24241834918E+01  0.40659205664E+02  0.00000000000E+00 0. -1.
         11    1    3    3    0    0  0.10740688841E+02  0.61701902312E+01 -0.87133162043E+01  0.15144488232E+02  0.51100000000E-03 0. -1.
        -11    1    3    3    0    0  0.85899789677E+01 -0.25357607991E+01  0.31105736185E+01  0.94812177484E+01  0.51100000000E-03 0.  1.
         12    1    3    3    0    0  0.12977421638E+02  0.20931435013E+02  0.80269260777E+01  0.25903088355E+02  0.00000000000E+00 0. -1.
</event>
<event>
 7    1  0.2680581E-011  0.5052889E+02  0.7816164E-02  0.1300439E+00
        -11   -1    0    0    0    0  0.00000000000E+00  0.00000000000E+00  0.45593999997E+02  0.45594000000E+02  0.51100000000E-03 0.  1.
         11   -1    0    0    0    0 -0.00000000000E+00 -0.00000000000E+00 -0.45593999997E+02  0.45594000000E+02  0.51100000000E-03 0. -1.
    9900012    2    1    2    0    0 -0.19411155588E+01  0.53777909077E+01  0.40255116082E+02  0.50528893573E+02  0.30000102504E+02 0.  0.
         12    1    1    2    0    0  0.19411155588E+01 -0.53777909077E+01 -0.40255116082E+02  0.40659106427E+02  0.00000000000E+00 0. -1.
         11    1    3    3    0    0 -0.61236989759E+01  0.10752313441E+02  0.71620825380E+01  0.14297110198E+02  0.51100000000E-03 0. -1.
        -11    1    3    3    0    0  0.38751849956E+01  0.29605045672E+01  0.52463264521E+01  0.71627918821E+01  0.51100000000E-03 0.  1.
         12    1    3    3    0    0  0.30739842153E+00 -0.83350271000E+01  0.27846707092E+02  0.29068991493E+02  0.00000000000E+00 0. -1.
</event>
<event>
 7    1  0.2680581E-011  0.5052886E+02  0.7816164E-02  0.1300439E+00
        -11   -1    0    0    0    0  0.00000000000E+00  0.00000000000E+00  0.45593999997E+02  0.45594000000E+02  0.51100000000E-03 0. -1.
         11   -1    0    0    0    0 -0.00000000000E+00 -0.00000000000E+00 -0.45593999997E+02  0.45594000000E+02  0.51100000000E-03 0.  1.
    9900012    2    1    2    0    0  0.16583706454E+02  0.34028785232E+02 -0.14838749891E+02  0.50528855365E+02  0.29999986367E+02 0.  0.
         12    1    1    2    0    0 -0.16583706454E+02 -0.34028785232E+02  0.14838749891E+02  0.40659144635E+02  0.00000000000E+00 0. -1.
         11    1    3    3    0    0  0.95362052421E+01  0.58951436251E+01 -0.81780114545E+01  0.13877024191E+02  0.51100000000E-03 0. -1.
        -11    1    3    3    0    0  0.80045909722E+01  0.21535882586E+01  0.31458065755E+01  0.88660881053E+01  0.51100000000E-03 0.  1.
         12    1    3    3    0    0 -0.95708976036E+00  0.25980053349E+02 -0.98065450122E+01  0.27785743069E+02  0.00000000000E+00 0. -1.
</event>
<event>
 7    1  0.2680581E-011  0.5052884E+02  0.7816164E-02  0.1300439E+00
        -11   -1    0    0    0    0  0.00000000000E+00  0.00000000000E+00  0.45593999997E+02  0.45594000000E+02  0.51100000000E-03 0.  1.
         11   -1    0    0    0    0 -0.00000000000E+00 -0.00000000000E+00 -0.45593999997E+02  0.45594000000E+02  0.51100000000E-03 0. -1.
    9900012    2    1    2    0    0 -0.95590292610E+01 -0.10124630521E+02  0.38200577170E+02  0.50528840150E+02  0.29999940120E+02 0.  0.
         12    1    1    2    0    0  0.95590292610E+01  0.10124630521E+02 -0.38200577170E+02  0.40659159850E+02  0.00000000000E+00 0. -1.
         11    1    3    3    0    0 -0.23944399564E+00  0.75506661837E+01  0.43326677401E+01  0.87087256962E+01  0.51100000000E-03 0. -1.
        -11    1    3    3    0    0 -0.42023080108E+01 -0.42267933161E+01  0.11395308499E+01  0.60682538818E+01  0.51100000000E-03 0.  1.
        -12    1    3    3    0    0 -0.51172772546E+01 -0.13448503388E+02  0.32728378580E+02  0.35751860572E+02  0.00000000000E+00 0.  1.
</event>
<event>
 7    1  0.2680581E-011  0.5052887E+02  0.7816164E-02  0.1300439E+00
        -11   -1    0    0    0    0  0.00000000000E+00  0.00000000000E+00  0.45593999997E+02  0.45594000000E+02  0.51100000000E-03 0. -1.
         11   -1    0    0    0    0 -0.00000000000E+00 -0.00000000000E+00 -0.45593999997E+02  0.45594000000E+02  0.51100000000E-03 0.  1.
    9900012    2    1    2    0    0 -0.29661965532E+02 -0.94376186714E+01  0.26158447563E+02  0.50528865426E+02  0.30000016949E+02 0.  0.
         12    1    1    2    0    0  0.29661965532E+02  0.94376186714E+01 -0.26158447563E+02  0.40659134574E+02  0.00000000000E+00 0. -1.
         11    1    3    3    0    0 -0.14851425491E+02 -0.23547646022E+01  0.40403836526E+01  0.15570306861E+02  0.51100000000E-03 0.  1.
        -11    1    3    3    0    0 -0.45296723209E+01 -0.88671874862E+01 -0.58298676406E+00  0.99742076917E+01  0.51100000000E-03 0. -1.
        -12    1    3    3    0    0 -0.10280867721E+02  0.17843334170E+01  0.22701050674E+02  0.24984350873E+02  0.00000000000E+00 0.  1.
</event>
<event>
 7    1  0.2680581E-011  0.5052883E+02  0.7816164E-02  0.1300439E+00
        -11   -1    0    0    0    0  0.00000000000E+00  0.00000000000E+00  0.45593999997E+02  0.45594000000E+02  0.51100000000E-03 0.  1.
         11   -1    0    0    0    0 -0.00000000000E+00 -0.00000000000E+00 -0.45593999997E+02  0.45594000000E+02  0.51100000000E-03 0. -1.
    9900012    2    1    2    0    0 -0.39381380122E+02 -0.89016929055E+01 -0.47994638243E+01  0.50528830187E+02  0.29999909837E+02 0.  0.
         12    1    1    2    0    0  0.39381380122E+02  0.89016929055E+01  0.47994638243E+01  0.40659169813E+02  0.00000000000E+00 0. -1.
         11    1    3    3    0    0 -0.14059568595E+02 -0.14324426715E+02 -0.10030989693E+02  0.22438391749E+02  0.51100000000E-03 0. -1.
        -11    1    3    3    0    0 -0.15721818654E+02  0.57497350289E+01 -0.78078147805E+00  0.16758420411E+02  0.51100000000E-03 0.  1.
        -12    1    3    3    0    0 -0.95999928718E+01 -0.32700121934E+00  0.60123073464E+01  0.11332018027E+02  0.00000000000E+00 0.  1.
</event>
<event>
 7    1  0.2680581E-011  0.5052887E+02  0.7816164E-02  0.1300439E+00
        -11   -1    0    0    0    0  0.00000000000E+00  0.00000000000E+00  0.45593999997E+02  0.45594000000E+02  0.51100000000E-03 0.  1.
         11   -1    0    0    0    0 -0.00000000000E+00 -0.00000000000E+00 -0.45593999997E+02  0.45594000000E+02  0.51100000000E-03 0. -1.
    9900012    2    1    2    0    0 -0.31423251458E+02 -0.65554927817E+00  0.25793695405E+02  0.50528865728E+02  0.30000017868E+02 0.  0.
         12    1    1    2    0    0  0.31423251458E+02  0.65554927817E+00 -0.25793695405E+02  0.40659134272E+02  0.00000000000E+00 0. -1.
         11    1    3    3    0    0 -0.63072180932E+01  0.93670615747E+01 -0.59857468622E+00  0.11308454118E+02  0.51100000000E-03 0. -1.
        -11    1    3    3    0    0 -0.18370128619E+01 -0.59547959159E+00  0.76302250061E+01  0.78708033963E+01  0.51100000000E-03 0.  1.
         12    1    3    3    0    0 -0.23279020503E+02 -0.94271312613E+01  0.18762045085E+02  0.31349608214E+02  0.00000000000E+00 0. -1.
</event>
<event>
 7    1  0.2680581E-011  0.5052887E+02  0.7816164E-02  0.1300439E+00
        -11   -1    0    0    0    0  0.00000000000E+00  0.00000000000E+00  0.45593999997E+02  0.45594000000E+02  0.51100000000E-03 0.  1.
         11   -1    0    0    0    0 -0.00000000000E+00 -0.00000000000E+00 -0.45593999997E+02  0.45594000000E+02  0.51100000000E-03 0. -1.
    9900012    2    1    2    0    0 -0.30699265742E+02  0.25296666788E+02  0.84142035489E+01  0.50528867090E+02  0.30000022006E+02 0.  0.
         12    1    1    2    0    0  0.30699265742E+02 -0.25296666788E+02 -0.84142035489E+01  0.40659132910E+02  0.00000000000E+00 0. -1.
         11    1    3    3    0    0 -0.11058465698E+02  0.12540071326E+01 -0.26633926621E+01  0.11443594637E+02  0.51100000000E-03 0. -1.
        -11    1    3    3    0    0 -0.14559163051E+02  0.32163852902E+01  0.93035682047E+01  0.17574718908E+02  0.51100000000E-03 0.  1.
         12    1    3    3    0    0 -0.50816369922E+01  0.20826274365E+02  0.17740280064E+01  0.21510553545E+02  0.00000000000E+00 0. -1.
</event>
<event>
 7    1  0.2680581E-011  0.5052886E+02  0.7816164E-02  0.1300439E+00
        -11   -1    0    0    0    0  0.00000000000E+00  0.00000000000E+00  0.45593999997E+02  0.45594000000E+02  0.51100000000E-03 0.  1.
         11   -1    0    0    0    0 -0.00000000000E+00 -0.00000000000E+00 -0.45593999997E+02  0.45594000000E+02  0.51100000000E-03 0. -1.
    9900012    2    1    2    0    0 -0.23940716711E+02 -0.42491792650E+01  0.32587613305E+02  0.50528856108E+02  0.29999988627E+02 0.  0.
         12    1    1    2    0    0  0.23940716711E+02  0.42491792650E+01 -0.32587613305E+02  0.40659143892E+02  0.00000000000E+00 0. -1.
         11    1    3    3    0    0 -0.62458185125E+01 -0.42232313960E+01  0.18396095341E+02  0.19881203595E+02  0.51100000000E-03 0. -1.
        -11    1    3    3    0    0 -0.13719547222E+02 -0.88681221498E+01  0.13004996449E+02  0.20880601029E+02  0.51100000000E-03 0.  1.
         12    1    3    3    0    0 -0.39753509763E+01  0.88421742807E+01  0.11865215156E+01  0.97670514845E+01  0.00000000000E+00 0. -1.
</event>
<event>
 7    1  0.2680581E-011  0.5052886E+02  0.7816164E-02  0.1300439E+00
        -11   -1    0    0    0    0  0.00000000000E+00  0.00000000000E+00  0.45593999997E+02  0.45594000000E+02  0.51100000000E-03 0.  1.
         11   -1    0    0    0    0 -0.00000000000E+00 -0.00000000000E+00 -0.45593999997E+02  0.45594000000E+02  0.51100000000E-03 0. -1.
    9900012    2    1    2    0    0 -0.11114495368E+02  0.26639979295E+02  0.28634688684E+02  0.50528857115E+02  0.29999991685E+02 0.  0.
         12    1    1    2    0    0  0.11114495368E+02 -0.26639979295E+02 -0.28634688684E+02  0.40659142885E+02  0.00000000000E+00 0. -1.
         11    1    3    3    0    0  0.10879483828E+01  0.26456074732E+02  0.12905198632E+02  0.29455927653E+02  0.51100000000E-03 0.  1.
        -11    1    3    3    0    0 -0.73803378358E-01 -0.15648730594E+01  0.80212457719E+00  0.17600223661E+01  0.51100000000E-03 0. -1.
        -12    1    3    3    0    0 -0.12128640373E+02  0.17487776230E+01  0.14927365474E+02  0.19312907095E+02  0.00000000000E+00 0.  1.
</event>
<event>
 7    1  0.2680581E-011  0.5052887E+02  0.7816164E-02  0.1300439E+00
        -11   -1    0    0    0    0  0.00000000000E+00  0.00000000000E+00  0.45593999997E+02  0.45594000000E+02  0.51100000000E-03 0.  1.
         11   -1    0    0    0    0 -0.00000000000E+00 -0.00000000000E+00 -0.45593999997E+02  0.45594000000E+02  0.51100000000E-03 0. -1.
    9900012    2    1    2    0    0  0.22012230914E+02 -0.31874899974E+02  0.12353852172E+02  0.50528865459E+02  0.30000017049E+02 0.  0.
         12    1    1    2    0    0 -0.22012230914E+02  0.31874899974E+02 -0.12353852172E+02  0.40659134541E+02  0.00000000000E+00 0. -1.
         11    1    3    3    0    0  0.64850164727E+01 -0.50295777575E+01  0.30968616015E+01  0.87716955665E+01  0.51100000000E-03 0. -1.
        -11    1    3    3    0    0  0.17826249787E+02 -0.13308264440E+02  0.15045373019E+02  0.26856066976E+02  0.51100000000E-03 0.  1.
         12    1    3    3    0    0 -0.22990353457E+01 -0.13537057777E+02 -0.57883824489E+01  0.14901102917E+02  0.00000000000E+00 0. -1.
</event>
<event>
 7    1  0.2680581E-011  0.5052882E+02  0.7816164E-02  0.1300439E+00
        -11   -1    0    0    0    0  0.00000000000E+00  0.00000000000E+00  0.45593999997E+02  0.45594000000E+02  0.51100000000E-03 0. -1.
         11   -1    0    0    0    0 -0.00000000000E+00 -0.00000000000E+00 -0.45593999997E+02  0.45594000000E+02  0.51100000000E-03 0.  1.
    9900012    2    1    2    0    0  0.23930135597E+01  0.37567483609E+02 -0.15366405467E+02  0.50528822000E+02  0.29999884952E+02 0.  0.
         12    1    1    2    0    0 -0.23930135597E+01 -0.37567483609E+02  0.15366405467E+02  0.40659178000E+02  0.00000000000E+00 0. -1.
         11    1    3    3    0    0 -0.66130571298E+01  0.58848827331E+01 -0.12083578323E+02  0.14979226773E+02  0.51100000000E-03 0. -1.
        -11    1    3    3    0    0  0.17591158891E+01 -0.10195797155E+00  0.18418810003E+01  0.25490017692E+01  0.51100000000E-03 0.  1.
        -12    1    3    3    0    0  0.72469548004E+01  0.31784558848E+02 -0.51247081448E+01  0.33000593458E+02  0.00000000000E+00 0.  1.
</event>
<event>
 7    1  0.2680581E-011  0.5052886E+02  0.7816164E-02  0.1300439E+00
        -11   -1    0    0    0    0  0.00000000000E+00  0.00000000000E+00  0.45593999997E+02  0.45594000000E+02  0.51100000000E-03 0.  1.
         11   -1    0    0    0    0 -0.00000000000E+00 -0.00000000000E+00 -0.45593999997E+02  0.45594000000E+02  0.51100000000E-03 0. -1.
    9900012    2    1    2    0    0  0.26672418160E+02  0.30545045063E+02  0.29577022278E+01  0.50528859934E+02  0.30000000256E+02 0.  0.
         12    1    1    2    0    0 -0.26672418160E+02 -0.30545045063E+02 -0.29577022278E+01  0.40659140066E+02  0.00000000000E+00 0. -1.
         11    1    3    3    0    0  0.11918211801E+02  0.41162699541E+01  0.88829151575E+01  0.15423800855E+02  0.51100000000E-03 0. -1.
        -11    1    3    3    0    0  0.45711724877E+01 -0.11487090036E+00 -0.48342528477E+01  0.66542327952E+01  0.51100000000E-03 0.  1.
        -12    1    3    3    0    0  0.10183033871E+02  0.26543646010E+02 -0.10909600820E+01  0.28450826283E+02  0.00000000000E+00 0.  1.
</event>
<event>
 7    1  0.2680581E-011  0.5052886E+02  0.7816164E-02  0.1300439E+00
        -11   -1    0    0    0    0  0.00000000000E+00  0.00000000000E+00  0.45593999997E+02  0.45594000000E+02  0.51100000000E-03 0. -1.
         11   -1    0    0    0    0 -0.00000000000E+00 -0.00000000000E+00 -0.45593999997E+02  0.45594000000E+02  0.51100000000E-03 0.  1.
    9900012    2    1    2    0    0  0.65074813888E+01 -0.92704981028E+01 -0.39049665397E+02  0.50528858141E+02  0.29999994805E+02 0.  0.
         12    1    1    2    0    0 -0.65074813888E+01  0.92704981028E+01  0.39049665397E+02  0.40659141859E+02  0.00000000000E+00 0. -1.
         11    1    3    3    0    0  0.26595830689E+01  0.37739363650E+01 -0.49907274366E+01  0.67987747716E+01  0.51100000000E-03 0. -1.
        -11    1    3    3    0    0  0.16324196933E+01 -0.11493325655E+02 -0.37556022085E+02  0.39309237130E+02  0.51100000000E-03 0.  1.
         12    1    3    3    0    0  0.22154786265E+01 -0.15511088129E+01  0.34970841245E+01  0.44208462389E+01  0.00000000000E+00 0. -1.
</event>
<event>
 7    1  0.2680581E-011  0.5052885E+02  0.7816164E-02  0.1300439E+00
        -11   -1    0    0    0    0  0.00000000000E+00  0.00000000000E+00  0.45593999997E+02  0.45594000000E+02  0.51100000000E-03 0.  1.
         11   -1    0    0    0    0 -0.00000000000E+00 -0.00000000000E+00 -0.45593999997E+02  0.45594000000E+02  0.51100000000E-03 0. -1.
    9900012    2    1    2    0    0 -0.43697720119E+00  0.15868077593E+02  0.37432330016E+02  0.50528853845E+02  0.29999981748E+02 0.  0.
         12    1    1    2    0    0  0.43697720119E+00 -0.15868077593E+02 -0.37432330016E+02  0.40659146155E+02  0.00000000000E+00 0. -1.
         11    1    3    3    0    0  0.68108722677E+01 -0.77024379005E+00  0.15742115155E+02  0.17169608218E+02  0.51100000000E-03 0. -1.
        -11    1    3    3    0    0  0.42077467561E+01  0.43292696263E+01  0.15795563211E+00  0.60392597645E+01  0.51100000000E-03 0.  1.
        -12    1    3    3    0    0 -0.11455596225E+02  0.12309051757E+02  0.21532259229E+02  0.27319985862E+02  0.00000000000E+00 0.  1.
</event>
<event>
 7    1  0.2680581E-011  0.5052885E+02  0.7816164E-02  0.1300439E+00
        -11   -1    0    0    0    0  0.00000000000E+00  0.00000000000E+00  0.45593999997E+02  0.45594000000E+02  0.51100000000E-03 0. -1.
         11   -1    0    0    0    0 -0.00000000000E+00 -0.00000000000E+00 -0.45593999997E+02  0.45594000000E+02  0.51100000000E-03 0.  1.
    9900012    2    1    2    0    0 -0.19827808391E+02  0.87956672492E+01 -0.34389837837E+02  0.50528847348E+02  0.29999961997E+02 0.  0.
         12    1    1    2    0    0  0.19827808391E+02 -0.87956672492E+01  0.34389837837E+02  0.40659152652E+02  0.00000000000E+00 0. -1.
         11    1    3    3    0    0  0.56750138414E+01 -0.16864140836E+01 -0.26157810241E+01  0.64724095349E+01  0.51100000000E-03 0. -1.
        -11    1    3    3    0    0 -0.67386315757E+01 -0.87221027623E+00 -0.20124220403E+01  0.70865893777E+01  0.51100000000E-03 0.  1.
        -12    1    3    3    0    0 -0.18764190657E+02  0.11354291609E+02 -0.29761634773E+02  0.36969848435E+02  0.00000000000E+00 0.  1.
</event>
<event>
 7    1  0.2680581E-011  0.5052886E+02  0.7816164E-02  0.1300439E+00
        -11   -1    0    0    0    0  0.00000000000E+00  0.00000000000E+00  0.45593999997E+02  0.45594000000E+02  0.51100000000E-03 0. -1.
         11   -1    0    0    0    0 -0.00000000000E+00 -0.00000000000E+00 -0.45593999997E+02  0.45594000000E+02  0.51100000000E-03 0.  1.
    9900012    2    1    2    0    0  0.34283247158E+02 -0.18484058240E+02  0.11668949583E+02  0.50528857989E+02  0.29999994343E+02 0.  0.
         12    1    1    2    0    0 -0.34283247158E+02  0.18484058240E+02 -0.11668949583E+02  0.40659142011E+02  0.00000000000E+00 0. -1.
         11    1    3    3    0    0  0.12515585442E+01 -0.52935036486E+01  0.64001057837E+01  0.83993412819E+01  0.51100000000E-03 0. -1.
        -11    1    3    3    0    0  0.20783576038E+01  0.40926926846E+01 -0.33045291070E+01  0.56559364052E+01  0.51100000000E-03 0.  1.
         12    1    3    3    0    0  0.30953331010E+02 -0.17283247276E+02  0.85733729061E+01  0.36473580302E+02  0.00000000000E+00 0. -1.
</event>
<event>
 7    1  0.2680581E-011  0.5052886E+02  0.7816164E-02  0.1300439E+00
        -11   -1    0    0    0    0  0.00000000000E+00  0.00000000000E+00  0.45593999997E+02  0.45594000000E+02  0.51100000000E-03 0.  1.
         11   -1    0    0    0    0 -0.00000000000E+00 -0.00000000000E+00 -0.45593999997E+02  0.45594000000E+02  0.51100000000E-03 0. -1.
    9900012    2    1    2    0    0  0.14356408534E+02  0.10441535025E+02  0.36579144699E+02  0.50528856544E+02  0.29999989952E+02 0.  0.
         12    1    1    2    0    0 -0.14356408534E+02 -0.10441535025E+02 -0.36579144699E+02  0.40659143456E+02  0.00000000000E+00 0. -1.
         11    1    3    3    0    0 -0.16343476602E+01  0.86700963542E+01  0.37936438187E+01  0.96038219866E+01  0.51100000000E-03 0. -1.
        -11    1    3    3    0    0  0.37314038813E+00  0.62284256228E+01  0.17666013761E+02  0.18735542745E+02  0.51100000000E-03 0.  1.
         12    1    3    3    0    0  0.15617615806E+02 -0.44569869522E+01  0.15119487119E+02  0.22189491813E+02  0.00000000000E+00 0. -1.
</event>
<event>
 7    1  0.2680581E-011  0.5052885E+02  0.7816164E-02  0.1300439E+00
        -11   -1    0    0    0    0  0.00000000000E+00  0.00000000000E+00  0.45593999997E+02  0.45594000000E+02  0.51100000000E-03 0. -1.
         11   -1    0    0    0    0 -0.00000000000E+00 -0.00000000000E+00 -0.45593999997E+02  0.45594000000E+02  0.51100000000E-03 0.  1.
    9900012    2    1    2    0    0  0.38267079868E+01  0.16765451640E+02 -0.36843488338E+02  0.50528847333E+02  0.29999961954E+02 0.  0.
         12    1    1    2    0    0 -0.38267079868E+01 -0.16765451640E+02  0.36843488338E+02  0.40659152667E+02  0.00000000000E+00 0. -1.
         11    1    3    3    0    0 -0.52275140036E+01 -0.33740090320E+01 -0.12347882091E+02  0.13826822918E+02  0.51100000000E-03 0. -1.
        -11    1    3    3    0    0  0.82226384213E+01  0.10238105944E+02 -0.23231362838E+02  0.26685704328E+02  0.51100000000E-03 0.  1.
        -12    1    3    3    0    0  0.83158356905E+00  0.99013547282E+01 -0.12642434082E+01  0.10016320087E+02  0.00000000000E+00 0.  1.
</event>
<event>
 7    1  0.2680581E-011  0.5052886E+02  0.7816164E-02  0.1300439E+00
        -11   -1    0    0    0    0  0.00000000000E+00  0.00000000000E+00  0.45593999997E+02  0.45594000000E+02  0.51100000000E-03 0.  1.
         11   -1    0    0    0    0 -0.00000000000E+00 -0.00000000000E+00 -0.45593999997E+02  0.45594000000E+02  0.51100000000E-03 0. -1.
    9900012    2    1    2    0    0  0.16273809673E+02 -0.63068606438E+01  0.36722643311E+02  0.50528857065E+02  0.29999991535E+02 0.  0.
         12    1    1    2    0    0 -0.16273809673E+02  0.63068606438E+01 -0.36722643311E+02  0.40659142935E+02  0.00000000000E+00 0. -1.
         11    1    3    3    0    0  0.30195468129E+01  0.50880740676E-01  0.58447814558E+00  0.30760147543E+01  0.51100000000E-03 0. -1.
        -11    1    3    3    0    0  0.65064962013E+00  0.98597100474E+01  0.86056305345E+01  0.13103209695E+02  0.51100000000E-03 0.  1.
         12    1    3    3    0    0  0.12603613240E+02 -0.16217451432E+02  0.27532534631E+02  0.34349632616E+02  0.00000000000E+00 0. -1.
</event>
<event>
 7    1  0.2680581E-011  0.5052885E+02  0.7816164E-02  0.1300439E+00
        -11   -1    0    0    0    0  0.00000000000E+00  0.00000000000E+00  0.45593999997E+02  0.45594000000E+02  0.51100000000E-03 0.  1.
         11   -1    0    0    0    0 -0.00000000000E+00 -0.00000000000E+00 -0.45593999997E+02  0.45594000000E+02  0.51100000000E-03 0. -1.
    9900012    2    1    2    0    0  0.12531844204E+02 -0.18094012399E+02 -0.34186630422E+02  0.50528854614E+02  0.29999984085E+02 0.  0.
         12    1    1    2    0    0 -0.12531844204E+02  0.18094012399E+02  0.34186630422E+02  0.40659145386E+02  0.00000000000E+00 0. -1.
         11    1    3    3    0    0  0.13711823432E+02 -0.62066947676E+01 -0.14042396029E+02  0.20584607071E+02  0.51100000000E-03 0. -1.
        -11    1    3    3    0    0  0.41101477431E+01 -0.16300416581E+01  0.20918887595E+01  0.48914567483E+01  0.51100000000E-03 0.  1.
         12    1    3    3    0    0 -0.52901269705E+01 -0.10257275974E+02 -0.22236123152E+02  0.25052790795E+02  0.00000000000E+00 0. -1.
</event>
<event>
 7    1  0.2680581E-011  0.5052886E+02  0.7816164E-02  0.1300439E+00
        -11   -1    0    0    0    0  0.00000000000E+00  0.00000000000E+00  0.45593999997E+02  0.45594000000E+02  0.51100000000E-03 0.  1.
         11   -1    0    0    0    0 -0.00000000000E+00 -0.00000000000E+00 -0.45593999997E+02  0.45594000000E+02  0.51100000000E-03 0. -1.
    9900012    2    1    2    0    0 -0.60441338121E+01 -0.27620055105E+02  0.29219284479E+02  0.50528861015E+02  0.30000003542E+02 0.  0.
         12    1    1    2    0    0  0.60441338121E+01  0.27620055105E+02 -0.29219284479E+02  0.40659138985E+02  0.00000000000E+00 0. -1.
         11    1    3    3    0    0 -0.50125196571E+01 -0.10374943942E+01 -0.17570698196E+01  0.54119351939E+01  0.51100000000E-03 0. -1.
        -11    1    3    3    0    0  0.62861176838E+01 -0.17300863886E+02  0.97709673188E+01  0.20840032853E+02  0.51100000000E-03 0.  1.
         12    1    3    3    0    0 -0.73177318387E+01 -0.92816968250E+01  0.21205386980E+02  0.24276892968E+02  0.00000000000E+00 0. -1.
</event>
<event>
 7    1  0.2680581E-011  0.5052887E+02  0.7816164E-02  0.1300439E+00
        -11   -1    0    0    0    0  0.00000000000E+00  0.00000000000E+00  0.45593999997E+02  0.45594000000E+02  0.51100000000E-03 0.  1.
         11   -1    0    0    0    0 -0.00000000000E+00 -0.00000000000E+00 -0.45593999997E+02  0.45594000000E+02  0.51100000000E-03 0. -1.
    9900012    2    1    2    0    0 -0.47422350831E+01 -0.27932210052E+02  0.29162786204E+02  0.50528865096E+02  0.30000015946E+02 0.  0.
         12    1    1    2    0    0  0.47422350831E+01  0.27932210052E+02 -0.29162786204E+02  0.40659134904E+02  0.00000000000E+00 0. -1.
         11    1    3    3    0    0  0.59757043207E+01 -0.71298639095E+01  0.99561685378E+01  0.13626052022E+02  0.51100000000E-03 0. -1.
        -11    1    3    3    0    0 -0.13159158287E+02 -0.10412068487E+02  0.20110107477E+02  0.26191430660E+02  0.51100000000E-03 0.  1.
         12    1    3    3    0    0  0.24412188828E+01 -0.10390277655E+02 -0.90348981092E+00  0.10711382414E+02  0.00000000000E+00 0. -1.
</event>
<event>
 7    1  0.2680581E-011  0.5052886E+02  0.7816164E-02  0.1300439E+00
        -11   -1    0    0    0    0  0.00000000000E+00  0.00000000000E+00  0.45593999997E+02  0.45594000000E+02  0.51100000000E-03 0.  1.
         11   -1    0    0    0    0 -0.00000000000E+00 -0.00000000000E+00 -0.45593999997E+02  0.45594000000E+02  0.51100000000E-03 0. -1.
    9900012    2    1    2    0    0 -0.28167391391E+01 -0.30516160844E+02  0.26720696110E+02  0.50528859667E+02  0.29999999445E+02 0.  0.
         12    1    1    2    0    0  0.28167391391E+01  0.30516160844E+02 -0.26720696110E+02  0.40659140333E+02  0.00000000000E+00 0. -1.
         11    1    3    3    0    0 -0.43870923365E+01 -0.42276957655E+01  0.10038855587E+02  0.11743023989E+02  0.51100000000E-03 0. -1.
        -11    1    3    3    0    0  0.55381644398E+01 -0.17303615426E+02  0.21246219434E+02  0.27955110672E+02  0.51100000000E-03 0.  1.
         12    1    3    3    0    0 -0.39678112424E+01 -0.89848496520E+01 -0.45643789108E+01  0.10830725006E+02  0.00000000000E+00 0. -1.
</event>
<event>
 7    1  0.2680581E-011  0.5052886E+02  0.7816164E-02  0.1300439E+00
        -11   -1    0    0    0    0  0.00000000000E+00  0.00000000000E+00  0.45593999997E+02  0.45594000000E+02  0.51100000000E-03 0. -1.
         11   -1    0    0    0    0 -0.00000000000E+00 -0.00000000000E+00 -0.45593999997E+02  0.45594000000E+02  0.51100000000E-03 0.  1.
    9900012    2    1    2    0    0  0.47213810285E+01  0.20895686274E+02 -0.34557841998E+02  0.50528860963E+02  0.30000003383E+02 0.  0.
         12    1    1    2    0    0 -0.47213810285E+01 -0.20895686274E+02  0.34557841998E+02  0.40659139037E+02  0.00000000000E+00 0. -1.
         11    1    3    3    0    0  0.45016165978E+01  0.12546767074E+02 -0.21004288909E+02  0.24877018890E+02  0.51100000000E-03 0.  1.
        -11    1    3    3    0    0 -0.77235316875E+01  0.17830998949E+01 -0.13130403703E+02  0.15337532025E+02  0.51100000000E-03 0. -1.
        -12    1    3    3    0    0  0.79432961182E+01  0.65658193044E+01 -0.42314938643E+00  0.10314310048E+02  0.00000000000E+00 0.  1.
</event>
<event>
 7    1  0.2680581E-011  0.5052885E+02  0.7816164E-02  0.1300439E+00
        -11   -1    0    0    0    0  0.00000000000E+00  0.00000000000E+00  0.45593999997E+02  0.45594000000E+02  0.51100000000E-03 0.  1.
         11   -1    0    0    0    0 -0.00000000000E+00 -0.00000000000E+00 -0.45593999997E+02  0.45594000000E+02  0.51100000000E-03 0. -1.
    9900012    2    1    2    0    0 -0.33041238875E+02  0.16688308130E+02 -0.16820930148E+02  0.50528846225E+02  0.29999958584E+02 0.  0.
         12    1    1    2    0    0  0.33041238875E+02 -0.16688308130E+02  0.16820930148E+02  0.40659153775E+02  0.00000000000E+00 0. -1.
         11    1    3    3    0    0 -0.89367542998E+01 -0.40613648994E+01 -0.48307488046E+01  0.10940584835E+02  0.51100000000E-03 0. -1.
        -11    1    3    3    0    0 -0.52828722359E+01 -0.39448243616E+01 -0.10999258336E+01  0.66843260996E+01  0.51100000000E-03 0.  1.
        -12    1    3    3    0    0 -0.18821612340E+02  0.24694497391E+02 -0.10890255510E+02  0.32903935290E+02  0.00000000000E+00 0.  1.
</event>
<event>
 7    1  0.2680581E-011  0.5052885E+02  0.7816164E-02  0.1300439E+00
        -11   -1    0    0    0    0  0.00000000000E+00  0.00000000000E+00  0.45593999997E+02  0.45594000000E+02  0.51100000000E-03 0. -1.
         11   -1    0    0    0    0 -0.00000000000E+00 -0.00000000000E+00 -0.45593999997E+02  0.45594000000E+02  0.51100000000E-03 0.  1.
    9900012    2    1    2    0    0 -0.39687336680E+02  0.67411802236E+01 -0.57130032157E+01  0.50528848394E+02  0.29999965179E+02 0.  0.
         12    1    1    2    0    0  0.39687336680E+02 -0.67411802236E+01  0.57130032157E+01  0.40659151606E+02  0.00000000000E+00 0. -1.
         11    1    3    3    0    0 -0.93720773594E+01  0.22437060842E+01  0.34741910592E+01  0.10244025322E+02  0.51100000000E-03 0. -1.
        -11    1    3    3    0    0  0.37772065560E+01 -0.88143154663E-01  0.17838844667E+01  0.41781937047E+01  0.51100000000E-03 0.  1.
        -12    1    3    3    0    0 -0.34092465877E+02  0.45856172941E+01 -0.10971078742E+02  0.36106629367E+02  0.00000000000E+00 0.  1.
</event>
<event>
 7    1  0.2680581E-011  0.5052895E+02  0.7816164E-02  0.1300438E+00
        -11   -1    0    0    0    0  0.00000000000E+00  0.00000000000E+00  0.45593999997E+02  0.45594000000E+02  0.51100000000E-03 0. -1.
         11   -1    0    0    0    0 -0.00000000000E+00 -0.00000000000E+00 -0.45593999997E+02  0.45594000000E+02  0.51100000000E-03 0.  1.
    9900012    2    1    2    0    0 -0.75968087067E+01 -0.24874578881E+01 -0.39865516518E+02  0.50528949882E+02  0.30000273659E+02 0.  0.
         12    1    1    2    0    0  0.75968087067E+01  0.24874578881E+01  0.39865516518E+02  0.40659050118E+02  0.00000000000E+00 0. -1.
         11    1    3    3    0    0  0.10645858443E+01 -0.33508964059E+01  0.16908462519E+01  0.39013857860E+01  0.51100000000E-03 0. -1.
        -11    1    3    3    0    0 -0.91186745284E+01  0.18388520224E+01 -0.60317944611E+01  0.11086665261E+02  0.51100000000E-03 0.  1.
         12    1    3    3    0    0  0.45727997738E+00 -0.97541350459E+00 -0.35524568309E+02  0.35540898835E+02  0.00000000000E+00 0. -1.
</event>
<event>
 7    1  0.2680581E-011  0.5052886E+02  0.7816164E-02  0.1300439E+00
        -11   -1    0    0    0    0  0.00000000000E+00  0.00000000000E+00  0.45593999997E+02  0.45594000000E+02  0.51100000000E-03 0.  1.
         11   -1    0    0    0    0 -0.00000000000E+00 -0.00000000000E+00 -0.45593999997E+02  0.45594000000E+02  0.51100000000E-03 0. -1.
    9900012    2    1    2    0    0 -0.54591284365E+00 -0.32215591091E+02  0.24799668315E+02  0.50528857378E+02  0.29999992487E+02 0.  0.
         12    1    1    2    0    0  0.54591284365E+00  0.32215591091E+02 -0.24799668315E+02  0.40659142622E+02  0.00000000000E+00 0. -1.
         11    1    3    3    0    0 -0.41398224859E+01 -0.27432126125E+01 -0.31821895122E+01  0.58982773761E+01  0.51100000000E-03 0. -1.
        -11    1    3    3    0    0  0.72921396788E+01 -0.22620328061E+02  0.11501457138E+02  0.26403372119E+02  0.51100000000E-03 0.  1.
         12    1    3    3    0    0 -0.36982300366E+01 -0.68520504179E+01  0.16480400690E+02  0.18227207884E+02  0.00000000000E+00 0. -1.
</event>
<event>
 7    1  0.2680581E-011  0.5052887E+02  0.7816164E-02  0.1300439E+00
        -11   -1    0    0    0    0  0.00000000000E+00  0.00000000000E+00  0.45593999997E+02  0.45594000000E+02  0.51100000000E-03 0.  1.
         11   -1    0    0    0    0 -0.00000000000E+00 -0.00000000000E+00 -0.45593999997E+02  0.45594000000E+02  0.51100000000E-03 0. -1.
    9900012    2    1    2    0    0  0.25865018944E+02 -0.25618761481E+02  0.18106489067E+02  0.50528867064E+02  0.30000021928E+02 0.  0.
         12    1    1    2    0    0 -0.25865018944E+02  0.25618761481E+02 -0.18106489067E+02  0.40659132936E+02  0.00000000000E+00 0. -1.
         11    1    3    3    0    0  0.54443982306E+01 -0.29745124212E+01 -0.74534474266E+01  0.96975808860E+01  0.51100000000E-03 0. -1.
        -11    1    3    3    0    0  0.11632178292E+02 -0.62641969110E+01  0.96024553716E+01  0.16332632494E+02  0.51100000000E-03 0.  1.
        -12    1    3    3    0    0  0.87884424204E+01 -0.16380052149E+02  0.15957481122E+02  0.24498653684E+02  0.00000000000E+00 0.  1.
</event>
<event>
 7    1  0.2680581E-011  0.5052886E+02  0.7816164E-02  0.1300439E+00
        -11   -1    0    0    0    0  0.00000000000E+00  0.00000000000E+00  0.45593999997E+02  0.45594000000E+02  0.51100000000E-03 0.  1.
         11   -1    0    0    0    0 -0.00000000000E+00 -0.00000000000E+00 -0.45593999997E+02  0.45594000000E+02  0.51100000000E-03 0. -1.
    9900012    2    1    2    0    0  0.28845898279E+02 -0.13406174381E+01  0.28623119447E+02  0.50528855032E+02  0.29999985356E+02 0.  0.
         12    1    1    2    0    0 -0.28845898279E+02  0.13406174381E+01 -0.28623119447E+02  0.40659144968E+02  0.00000000000E+00 0. -1.
         11    1    3    3    0    0 -0.13385462102E+01 -0.42230419713E+01 -0.76256976627E+00  0.44952533141E+01  0.51100000000E-03 0. -1.
        -11    1    3    3    0    0  0.11474158517E+01  0.58555362014E+01  0.73141969651E+01  0.94393508701E+01  0.51100000000E-03 0.  1.
        -12    1    3    3    0    0  0.29037028637E+02 -0.29731116683E+01  0.22071492248E+02  0.36594250848E+02  0.00000000000E+00 0.  1.
</event>
<event>
 7    1  0.2680581E-011  0.5052885E+02  0.7816164E-02  0.1300439E+00
        -11   -1    0    0    0    0  0.00000000000E+00  0.00000000000E+00  0.45593999997E+02  0.45594000000E+02  0.51100000000E-03 0.  1.
         11   -1    0    0    0    0 -0.00000000000E+00 -0.00000000000E+00 -0.45593999997E+02  0.45594000000E+02  0.51100000000E-03 0. -1.
    9900012    2    1    2    0    0  0.18036331659E+02 -0.19354787763E+02  0.30874737950E+02  0.50528849584E+02  0.29999968797E+02 0.  0.
         12    1    1    2    0    0 -0.18036331659E+02  0.19354787763E+02 -0.30874737950E+02  0.40659150416E+02  0.00000000000E+00 0. -1.
         11    1    3    3    0    0 -0.12842000757E+01 -0.76775962378E+01  0.15680159110E+02  0.17506057346E+02  0.51100000000E-03 0. -1.
        -11    1    3    3    0    0  0.84935216779E+01  0.29955152368E+00  0.14567559776E+02  0.16865451067E+02  0.51100000000E-03 0.  1.
        -12    1    3    3    0    0  0.10827010057E+02 -0.11976743049E+02  0.62701906362E+00  0.16157341171E+02  0.00000000000E+00 0.  1.
</event>
<event>
 7    1  0.2680581E-011  0.5052886E+02  0.7816164E-02  0.1300439E+00
        -11   -1    0    0    0    0  0.00000000000E+00  0.00000000000E+00  0.45593999997E+02  0.45594000000E+02  0.51100000000E-03 0.  1.
         11   -1    0    0    0    0 -0.00000000000E+00 -0.00000000000E+00 -0.45593999997E+02  0.45594000000E+02  0.51100000000E-03 0. -1.
    9900012    2    1    2    0    0  0.58450673466E+01 -0.91417273478E+01  0.39184558550E+02  0.50528860560E+02  0.30000002159E+02 0.  0.
         12    1    1    2    0    0 -0.58450673466E+01  0.91417273478E+01 -0.39184558550E+02  0.40659139440E+02  0.00000000000E+00 0. -1.
         11    1    3    3    0    0 -0.77547126889E+00 -0.16306337514E+02  0.16519786905E+02  0.23225015790E+02  0.51100000000E-03 0.  1.
        -11    1    3    3    0    0 -0.30866652635E+01  0.38209839993E+01  0.83552546507E+01  0.96921463935E+01  0.51100000000E-03 0. -1.
        -12    1    3    3    0    0  0.97072038790E+01  0.33436261667E+01  0.14309516995E+02  0.17611698377E+02  0.00000000000E+00 0.  1.
</event>
<event>
 7    1  0.2680581E-011  0.5052880E+02  0.7816164E-02  0.1300439E+00
        -11   -1    0    0    0    0  0.00000000000E+00  0.00000000000E+00  0.45593999997E+02  0.45594000000E+02  0.51100000000E-03 0.  1.
         11   -1    0    0    0    0 -0.00000000000E+00 -0.00000000000E+00 -0.45593999997E+02  0.45594000000E+02  0.51100000000E-03 0. -1.
    9900012    2    1    2    0    0 -0.97685493650E+01  0.37151846476E+02  0.13322396216E+02  0.50528800621E+02  0.29999819966E+02 0.  0.
         12    1    1    2    0    0  0.97685493650E+01 -0.37151846476E+02 -0.13322396216E+02  0.40659199379E+02  0.00000000000E+00 0. -1.
         11    1    3    3    0    0 -0.56431067515E+01 -0.17209949325E+01  0.57227122094E+01  0.82192403943E+01  0.51100000000E-03 0. -1.
        -11    1    3    3    0    0 -0.13884996044E+01  0.43677007237E+01 -0.37086208248E+01  0.58956432598E+01  0.51100000000E-03 0.  1.
        -12    1    3    3    0    0 -0.27369430091E+01  0.34505140684E+02  0.11308304831E+02  0.36413916966E+02  0.00000000000E+00 0.  1.
</event>
<event>
 7    1  0.2680581E-011  0.5052880E+02  0.7816164E-02  0.1300439E+00
        -11   -1    0    0    0    0  0.00000000000E+00  0.00000000000E+00  0.45593999997E+02  0.45594000000E+02  0.51100000000E-03 0. -1.
         11   -1    0    0    0    0 -0.00000000000E+00 -0.00000000000E+00 -0.45593999997E+02  0.45594000000E+02  0.51100000000E-03 0.  1.
    9900012    2    1    2    0    0  0.27159741294E+02 -0.29431712813E+02 -0.70208978804E+01  0.50528803337E+02  0.29999828223E+02 0.  0.
         12    1    1    2    0    0 -0.27159741294E+02  0.29431712813E+02  0.70208978804E+01  0.40659196663E+02  0.00000000000E+00 0. -1.
         11    1    3    3    0    0 -0.12140701364E+01 -0.10894577320E+02  0.46285429987E+00  0.10971782701E+02  0.51100000000E-03 0.  1.
        -11    1    3    3    0    0  0.17687936785E+02 -0.95711050485E+01 -0.13649562475E+02  0.24305960495E+02  0.51100000000E-03 0. -1.
         12    1    3    3    0    0  0.10685874645E+02 -0.89660304438E+01  0.61658102942E+01  0.15251060141E+02  0.00000000000E+00 0. -1.
</event>
<event>
 7    1  0.2680581E-011  0.5052886E+02  0.7816164E-02  0.1300439E+00
        -11   -1    0    0    0    0  0.00000000000E+00  0.00000000000E+00  0.45593999997E+02  0.45594000000E+02  0.51100000000E-03 0. -1.
         11   -1    0    0    0    0 -0.00000000000E+00 -0.00000000000E+00 -0.45593999997E+02  0.45594000000E+02  0.51100000000E-03 0.  1.
    9900012    2    1    2    0    0 -0.20829209503E+01  0.22611100989E+02 -0.33727807677E+02  0.50528862548E+02  0.30000008202E+02 0.  0.
         12    1    1    2    0    0  0.20829209503E+01 -0.22611100989E+02  0.33727807677E+02  0.40659137452E+02  0.00000000000E+00 0. -1.
         11    1    3    3    0    0 -0.17422057653E+01  0.85023296471E-01  0.39170572195E+00  0.17877202027E+01  0.51100000000E-03 0. -1.
        -11    1    3    3    0    0  0.77358080729E+01  0.21543341144E+02 -0.13500204224E+02  0.26574683226E+02  0.51100000000E-03 0.  1.
        -12    1    3    3    0    0 -0.80765232579E+01  0.98273654825E+00 -0.20619309175E+02  0.22166459120E+02  0.00000000000E+00 0.  1.
</event>
<event>
 7    1  0.2680581E-011  0.5052886E+02  0.7816164E-02  0.1300439E+00
        -11   -1    0    0    0    0  0.00000000000E+00  0.00000000000E+00  0.45593999997E+02  0.45594000000E+02  0.51100000000E-03 0.  1.
         11   -1    0    0    0    0 -0.00000000000E+00 -0.00000000000E+00 -0.45593999997E+02  0.45594000000E+02  0.51100000000E-03 0. -1.
    9900012    2    1    2    0    0 -0.12677508936E+02  0.36766186394E+02  0.11861457950E+02  0.50528857370E+02  0.29999992460E+02 0.  0.
         12    1    1    2    0    0  0.12677508936E+02 -0.36766186394E+02 -0.11861457950E+02  0.40659142630E+02  0.00000000000E+00 0. -1.
         11    1    3    3    0    0 -0.10083686435E+02  0.32858338274E+01  0.12203548111E+01  0.10675518825E+02  0.51100000000E-03 0. -1.
        -11    1    3    3    0    0 -0.57245424719E+01  0.17261384141E+02  0.14057192735E+02  0.22985439670E+02  0.51100000000E-03 0.  1.
        -12    1    3    3    0    0  0.31307199709E+01  0.16218968425E+02 -0.34160895960E+01  0.16867898875E+02  0.00000000000E+00 0.  1.
</event>
<event>
 7    1  0.2680581E-011  0.5052886E+02  0.7816164E-02  0.1300439E+00
        -11   -1    0    0    0    0  0.00000000000E+00  0.00000000000E+00  0.45593999997E+02  0.45594000000E+02  0.51100000000E-03 0. -1.
         11   -1    0    0    0    0 -0.00000000000E+00 -0.00000000000E+00 -0.45593999997E+02  0.45594000000E+02  0.51100000000E-03 0.  1.
    9900012    2    1    2    0    0  0.16192976393E+02 -0.37238727250E+02  0.20567546333E+01  0.50528861651E+02  0.30000005475E+02 0.  0.
         12    1    1    2    0    0 -0.16192976393E+02  0.37238727250E+02 -0.20567546333E+01  0.40659138349E+02  0.00000000000E+00 0. -1.
         11    1    3    3    0    0  0.39453764075E+00  0.31070658839E+01 -0.17167297319E+01  0.35716494215E+01  0.51100000000E-03 0. -1.
        -11    1    3    3    0    0  0.13993450530E+02 -0.12112477255E+02  0.10993196242E+01  0.18540152828E+02  0.51100000000E-03 0.  1.
        -12    1    3    3    0    0  0.18049882223E+01 -0.28233315878E+02  0.26741647409E+01  0.28417059401E+02  0.00000000000E+00 0.  1.
</event>
<event>
 7    1  0.2680581E-011  0.5052885E+02  0.7816164E-02  0.1300439E+00
        -11   -1    0    0    0    0  0.00000000000E+00  0.00000000000E+00  0.45593999997E+02  0.45594000000E+02  0.51100000000E-03 0. -1.
         11   -1    0    0    0    0 -0.00000000000E+00 -0.00000000000E+00 -0.45593999997E+02  0.45594000000E+02  0.51100000000E-03 0.  1.
    9900012    2    1    2    0    0 -0.99540711639E+01 -0.15318132254E+02 -0.36324071154E+02  0.50528845389E+02  0.29999956046E+02 0.  0.
         12    1    1    2    0    0  0.99540711639E+01  0.15318132254E+02  0.36324071154E+02  0.40659154611E+02  0.00000000000E+00 0. -1.
         11    1    3    3    0    0  0.74399325505E+00 -0.45921481804E+01 -0.33494104795E+02  0.33815623714E+02  0.51100000000E-03 0.  1.
        -11    1    3    3    0    0 -0.33042990446E+01 -0.72733044798E+01 -0.30472095387E+01  0.85501366344E+01  0.51100000000E-03 0. -1.
        -12    1    3    3    0    0 -0.73937653743E+01 -0.34526795934E+01  0.21724318040E+00  0.81630850409E+01  0.00000000000E+00 0.  1.
</event>
<event>
 7    1  0.2680581E-011  0.5052885E+02  0.7816164E-02  0.1300439E+00
        -11   -1    0    0    0    0  0.00000000000E+00  0.00000000000E+00  0.45593999997E+02  0.45594000000E+02  0.51100000000E-03 0. -1.
         11   -1    0    0    0    0 -0.00000000000E+00 -0.00000000000E+00 -0.45593999997E+02  0.45594000000E+02  0.51100000000E-03 0.  1.
    9900012    2    1    2    0    0  0.18898735713E+01 -0.38045473319E+02 -0.14217471858E+02  0.50528853819E+02  0.29999981667E+02 0.  0.
         12    1    1    2    0    0 -0.18898735713E+01  0.38045473319E+02  0.14217471858E+02  0.40659146181E+02  0.00000000000E+00 0. -1.
         11    1    3    3    0    0  0.20476905231E+01 -0.13935077440E+02 -0.11443857857E+02  0.18147763021E+02  0.51100000000E-03 0.  1.
        -11    1    3    3    0    0  0.57299665859E+01  0.15112258172E+01  0.16316452420E+00  0.59281484014E+01  0.51100000000E-03 0. -1.
         12    1    3    3    0    0 -0.58877835377E+01 -0.25621621696E+02 -0.29367785245E+01  0.26452942396E+02  0.00000000000E+00 0. -1.
</event>
<event>
 7    1  0.2680581E-011  0.5052885E+02  0.7816164E-02  0.1300439E+00
        -11   -1    0    0    0    0  0.00000000000E+00  0.00000000000E+00  0.45593999997E+02  0.45594000000E+02  0.51100000000E-03 0.  1.
         11   -1    0    0    0    0 -0.00000000000E+00 -0.00000000000E+00 -0.45593999997E+02  0.45594000000E+02  0.51100000000E-03 0. -1.
    9900012    2    1    2    0    0 -0.25806599616E+02  0.95294814001E+01  0.29939514240E+02  0.50528854505E+02  0.29999983754E+02 0.  0.
         12    1    1    2    0    0  0.25806599616E+02 -0.95294814001E+01 -0.29939514240E+02  0.40659145495E+02  0.00000000000E+00 0. -1.
         11    1    3    3    0    0 -0.48439949717E+01  0.11993661306E+02  0.97845205415E+01  0.16218786678E+02  0.51100000000E-03 0. -1.
        -11    1    3    3    0    0 -0.84439679175E+01  0.37733762212E+00  0.19731880924E+02  0.21466022056E+02  0.51100000000E-03 0.  1.
         12    1    3    3    0    0 -0.12518636726E+02 -0.28415175282E+01  0.42311277451E+00  0.12844045771E+02  0.00000000000E+00 0. -1.
</event>
<event>
 7    1  0.2734501E-011  0.5052889E+02  0.7816164E-02  0.1300439E+00
        -11   -1    0    0    0    0  0.00000000000E+00  0.00000000000E+00  0.45593999997E+02  0.45594000000E+02  0.51100000000E-03 0. -1.
         11   -1    0    0    0    0 -0.00000000000E+00 -0.00000000000E+00 -0.45593999997E+02  0.45594000000E+02  0.51100000000E-03 0.  1.
    9900012    2    1    2    0    0  0.24029075538E+02  0.19208427399E+02 -0.26585771839E+02  0.50528887631E+02  0.30000084443E+02 0.  0.
         12    1    1    2    0    0 -0.24029075538E+02 -0.19208427399E+02  0.26585771839E+02  0.40659112369E+02  0.00000000000E+00 0. -1.
         11    1    3    3    0    0  0.79556543437E+01  0.62979510967E+00  0.34821816492E+01  0.87071618347E+01  0.51100000000E-03 0. -1.
        -11    1    3    3    0    0  0.10024397842E+02  0.12661550149E+02 -0.76692362543E+01  0.17877935823E+02  0.51100000000E-03 0.  1.
        -12    1    3    3    0    0  0.60490233519E+01  0.59170821397E+01 -0.22398717234E+02  0.23943789974E+02  0.00000000000E+00 0.  1.
</event>
<event>
 7    1  0.2680581E-011  0.5052886E+02  0.7816164E-02  0.1300439E+00
        -11   -1    0    0    0    0  0.00000000000E+00  0.00000000000E+00  0.45593999997E+02  0.45594000000E+02  0.51100000000E-03 0. -1.
         11   -1    0    0    0    0 -0.00000000000E+00 -0.00000000000E+00 -0.45593999997E+02  0.45594000000E+02  0.51100000000E-03 0.  1.
    9900012    2    1    2    0    0  0.26690939730E+02  0.19728247340E+01 -0.30608287954E+02  0.50528860897E+02  0.30000003182E+02 0.  0.
         12    1    1    2    0    0 -0.26690939730E+02 -0.19728247340E+01  0.30608287954E+02  0.40659139103E+02  0.00000000000E+00 0. -1.
         11    1    3    3    0    0  0.12480049620E+02  0.35440340376E+01 -0.24661663827E+02  0.27865919664E+02  0.51100000000E-03 0. -1.
        -11    1    3    3    0    0  0.16269742148E+02  0.31235947660E+01 -0.57375221227E+01  0.17532270651E+02  0.51100000000E-03 0.  1.
         12    1    3    3    0    0 -0.20588520376E+01 -0.46948040696E+01 -0.20910200492E+00  0.51306705812E+01  0.00000000000E+00 0. -1.
</event>
<event>
 7    1  0.2680581E-011  0.5052884E+02  0.7816164E-02  0.1300439E+00
        -11   -1    0    0    0    0  0.00000000000E+00  0.00000000000E+00  0.45593999997E+02  0.45594000000E+02  0.51100000000E-03 0. -1.
         11   -1    0    0    0    0 -0.00000000000E+00 -0.00000000000E+00 -0.45593999997E+02  0.45594000000E+02  0.51100000000E-03 0.  1.
    9900012    2    1    2    0    0  0.21746995779E+01 -0.26805002116E+02 -0.30494746563E+02  0.50528843287E+02  0.29999949656E+02 0.  0.
         12    1    1    2    0    0 -0.21746995779E+01  0.26805002116E+02  0.30494746563E+02  0.40659156713E+02  0.00000000000E+00 0. -1.
         11    1    3    3    0    0  0.46595013655E+01 -0.14061134983E+02 -0.21006704496E+02  0.25704242919E+02  0.51100000000E-03 0.  1.
        -11    1    3    3    0    0 -0.26780243143E+01 -0.17697376965E+02 -0.65357001149E+01  0.19054772156E+02  0.51100000000E-03 0. -1.
         12    1    3    3    0    0  0.19322252667E+00  0.49535098321E+01 -0.29523419520E+01  0.57698282126E+01  0.00000000000E+00 0. -1.
</event>
<event>
 7    1  0.2680581E-011  0.5052887E+02  0.7816164E-02  0.1300439E+00
        -11   -1    0    0    0    0  0.00000000000E+00  0.00000000000E+00  0.45593999997E+02  0.45594000000E+02  0.51100000000E-03 0.  1.
         11   -1    0    0    0    0 -0.00000000000E+00 -0.00000000000E+00 -0.45593999997E+02  0.45594000000E+02  0.51100000000E-03 0. -1.
    9900012    2    1    2    0    0 -0.13563467166E+02 -0.32211747525E+02  0.20775007075E+02  0.50528865244E+02  0.30000016395E+02 0.  0.
         12    1    1    2    0    0  0.13563467166E+02  0.32211747525E+02 -0.20775007075E+02  0.40659134756E+02  0.00000000000E+00 0. -1.
         11    1    3    3    0    0 -0.39100880616E+01 -0.67261675359E+01  0.17853879330E+02  0.19475397962E+02  0.51100000000E-03 0. -1.
        -11    1    3    3    0    0 -0.37270730786E+01 -0.18566030726E+01  0.51132752948E+01  0.65942120988E+01  0.51100000000E-03 0.  1.
         12    1    3    3    0    0 -0.59263060257E+01 -0.23628976917E+02 -0.21921475504E+01  0.24459255183E+02  0.00000000000E+00 0. -1.
</event>
<event>
 7    1  0.2680581E-011  0.5052888E+02  0.7816164E-02  0.1300439E+00
        -11   -1    0    0    0    0  0.00000000000E+00  0.00000000000E+00  0.45593999997E+02  0.45594000000E+02  0.51100000000E-03 0. -1.
         11   -1    0    0    0    0 -0.00000000000E+00 -0.00000000000E+00 -0.45593999997E+02  0.45594000000E+02  0.51100000000E-03 0.  1.
    9900012    2    1    2    0    0  0.91668063861E+01  0.39036249034E+02  0.67309001683E+01  0.50528879313E+02  0.30000059160E+02 0.  0.
         12    1    1    2    0    0 -0.91668063861E+01 -0.39036249034E+02 -0.67309001683E+01  0.40659120687E+02  0.00000000000E+00 0. -1.
         11    1    3    3    0    0  0.72753465849E+01  0.15731028745E+02  0.12225706197E+01  0.17374999640E+02  0.51100000000E-03 0. -1.
        -11    1    3    3    0    0  0.37633615310E+01  0.28990146138E+01 -0.75028211747E+01  0.88802872468E+01  0.51100000000E-03 0.  1.
         12    1    3    3    0    0 -0.18719017298E+01  0.20406205675E+02  0.13011150723E+02  0.24273592427E+02  0.00000000000E+00 0. -1.
</event>
<event>
 7    1  0.2680581E-011  0.5052899E+02  0.7816164E-02  0.1300438E+00
        -11   -1    0    0    0    0  0.00000000000E+00  0.00000000000E+00  0.45593999997E+02  0.45594000000E+02  0.51100000000E-03 0. -1.
         11   -1    0    0    0    0 -0.00000000000E+00 -0.00000000000E+00 -0.45593999997E+02  0.45594000000E+02  0.51100000000E-03 0.  1.
    9900012    2    1    2    0    0  0.12657737462E+02 -0.17218859893E+02 -0.34589701867E+02  0.50528992033E+02  0.30000401780E+02 0.  0.
         12    1    1    2    0    0 -0.12657737462E+02  0.17218859893E+02  0.34589701867E+02  0.40659007967E+02  0.00000000000E+00 0. -1.
         11    1    3    3    0    0 -0.74079481905E+00 -0.11223931443E+02 -0.79044067109E+01  0.13747911104E+02  0.51100000000E-03 0. -1.
        -11    1    3    3    0    0  0.10394587541E+02 -0.11382239816E+02 -0.85528626829E+01  0.17628224350E+02  0.51100000000E-03 0.  1.
        -12    1    3    3    0    0  0.30039447396E+01  0.53873113670E+01 -0.18132432473E+02  0.19152856579E+02  0.00000000000E+00 0.  1.
</event>
<event>
 7    1  0.2680581E-011  0.5052885E+02  0.7816164E-02  0.1300439E+00
        -11   -1    0    0    0    0  0.00000000000E+00  0.00000000000E+00  0.45593999997E+02  0.45594000000E+02  0.51100000000E-03 0. -1.
         11   -1    0    0    0    0 -0.00000000000E+00 -0.00000000000E+00 -0.45593999997E+02  0.45594000000E+02  0.51100000000E-03 0.  1.
    9900012    2    1    2    0    0  0.30284886939E+02 -0.26892679209E+02 -0.35743001916E+01  0.50528853504E+02  0.29999980710E+02 0.  0.
         12    1    1    2    0    0 -0.30284886939E+02  0.26892679209E+02  0.35743001916E+01  0.40659146496E+02  0.00000000000E+00 0. -1.
         11    1    3    3    0    0  0.97439203537E+01 -0.19603752601E+01 -0.33651044806E+01  0.10493378076E+02  0.51100000000E-03 0. -1.
        -11    1    3    3    0    0  0.21154555936E+02 -0.24846244163E+02 -0.68687784006E+01  0.33347131853E+02  0.51100000000E-03 0.  1.
         12    1    3    3    0    0 -0.61358935009E+00 -0.86059786036E-01  0.66595826897E+01  0.66883435751E+01  0.00000000000E+00 0. -1.
</event>
<event>
 7    1  0.2680581E-011  0.5052879E+02  0.7816164E-02  0.1300439E+00
        -11   -1    0    0    0    0  0.00000000000E+00  0.00000000000E+00  0.45593999997E+02  0.45594000000E+02  0.51100000000E-03 0.  1.
         11   -1    0    0    0    0 -0.00000000000E+00 -0.00000000000E+00 -0.45593999997E+02  0.45594000000E+02  0.51100000000E-03 0. -1.
    9900012    2    1    2    0    0  0.31814743372E+02 -0.13726680800E+02  0.21273735595E+02  0.50528788402E+02  0.29999782827E+02 0.  0.
         12    1    1    2    0    0 -0.31814743372E+02  0.13726680800E+02 -0.21273735595E+02  0.40659211598E+02  0.00000000000E+00 0. -1.
         11    1    3    3    0    0  0.18661634780E+00 -0.10471515169E+01 -0.26863193885E+01  0.28892324377E+01  0.51100000000E-03 0. -1.
        -11    1    3    3    0    0  0.12495649599E+02  0.36498362953E+01  0.17241942430E+02  0.21604331578E+02  0.51100000000E-03 0.  1.
         12    1    3    3    0    0  0.19132477424E+02 -0.16329365579E+02  0.67181125533E+01  0.26035224387E+02  0.00000000000E+00 0. -1.
</event>
<event>
 7    1  0.2680581E-011  0.5052887E+02  0.7816164E-02  0.1300439E+00
        -11   -1    0    0    0    0  0.00000000000E+00  0.00000000000E+00  0.45593999997E+02  0.45594000000E+02  0.51100000000E-03 0.  1.
         11   -1    0    0    0    0 -0.00000000000E+00 -0.00000000000E+00 -0.45593999997E+02  0.45594000000E+02  0.51100000000E-03 0. -1.
    9900012    2    1    2    0    0 -0.36379817007E+02  0.14844718362E+02  0.10455051431E+02  0.50528870039E+02  0.30000030972E+02 0.  0.
         12    1    1    2    0    0  0.36379817007E+02 -0.14844718362E+02 -0.10455051431E+02  0.40659129961E+02  0.00000000000E+00 0. -1.
         11    1    3    3    0    0 -0.11819408367E+01 -0.19625962273E+01  0.86860111331E+00  0.24501502501E+01  0.51100000000E-03 0. -1.
        -11    1    3    3    0    0 -0.37740881680E+02  0.90442726482E+01  0.92825617017E+01  0.39904122215E+02  0.51100000000E-03 0.  1.
         12    1    3    3    0    0  0.25430055098E+01  0.77630419415E+01  0.30388861551E+00  0.81745975741E+01  0.00000000000E+00 0. -1.
</event>
<event>
 7    1  0.2680581E-011  0.5052886E+02  0.7816164E-02  0.1300439E+00
        -11   -1    0    0    0    0  0.00000000000E+00  0.00000000000E+00  0.45593999997E+02  0.45594000000E+02  0.51100000000E-03 0. -1.
         11   -1    0    0    0    0 -0.00000000000E+00 -0.00000000000E+00 -0.45593999997E+02  0.45594000000E+02  0.51100000000E-03 0.  1.
    9900012    2    1    2    0    0  0.32326311684E+02  0.10241946510E+02 -0.22433845344E+02  0.50528864343E+02  0.30000013658E+02 0.  0.
         12    1    1    2    0    0 -0.32326311684E+02 -0.10241946510E+02  0.22433845344E+02  0.40659135657E+02  0.00000000000E+00 0. -1.
         11    1    3    3    0    0  0.72489890618E+01  0.65590843861E+01 -0.22290058195E+00  0.97785027143E+01  0.51100000000E-03 0. -1.
        -11    1    3    3    0    0  0.10201083912E+02  0.60680861905E+01 -0.22765458557E+02  0.25673914516E+02  0.51100000000E-03 0.  1.
         12    1    3    3    0    0  0.14876238710E+02 -0.23852240662E+01  0.55451379467E+00  0.15076447113E+02  0.00000000000E+00 0. -1.
</event>
<event>
 7    1  0.2680581E-011  0.5052901E+02  0.7816164E-02  0.1300438E+00
        -11   -1    0    0    0    0  0.00000000000E+00  0.00000000000E+00  0.45593999997E+02  0.45594000000E+02  0.51100000000E-03 0. -1.
         11   -1    0    0    0    0 -0.00000000000E+00 -0.00000000000E+00 -0.45593999997E+02  0.45594000000E+02  0.51100000000E-03 0.  1.
    9900012    2    1    2    0    0  0.19824801515E+02 -0.35498185367E+02 -0.98852616381E-01  0.50529007251E+02  0.30000448038E+02 0.  0.
         12    1    1    2    0    0 -0.19824801515E+02  0.35498185367E+02  0.98852616381E-01  0.40658992749E+02  0.00000000000E+00 0. -1.
         11    1    3    3    0    0  0.10702014328E+02  0.28707931200E-01 -0.25089715109E+01  0.10992218754E+02  0.51100000000E-03 0. -1.
        -11    1    3    3    0    0  0.20494994085E+01 -0.84157519739E+01 -0.56988156378E+01  0.10368308881E+02  0.51100000000E-03 0.  1.
         12    1    3    3    0    0  0.70732877784E+01 -0.27111141325E+02  0.81089345323E+01  0.29168479617E+02  0.00000000000E+00 0. -1.
</event>
<event>
 7    1  0.2680581E-011  0.5052887E+02  0.7816164E-02  0.1300439E+00
        -11   -1    0    0    0    0  0.00000000000E+00  0.00000000000E+00  0.45593999997E+02  0.45594000000E+02  0.51100000000E-03 0.  1.
         11   -1    0    0    0    0 -0.00000000000E+00 -0.00000000000E+00 -0.45593999997E+02  0.45594000000E+02  0.51100000000E-03 0. -1.
    9900012    2    1    2    0    0 -0.37393192456E+02 -0.14999896411E+02  0.54696522515E+01  0.50528870273E+02  0.30000031682E+02 0.  0.
         12    1    1    2    0    0  0.37393192456E+02  0.14999896411E+02 -0.54696522515E+01  0.40659129727E+02  0.00000000000E+00 0. -1.
         11    1    3    3    0    0 -0.69183245021E+01  0.19914976407E+01  0.47648193071E+01  0.86332369399E+01  0.51100000000E-03 0. -1.
        -11    1    3    3    0    0 -0.87308027789E+01  0.55403857116E+01  0.21017531340E+01  0.10551784564E+02  0.51100000000E-03 0.  1.
        -12    1    3    3    0    0 -0.21744065175E+02 -0.22531779763E+02 -0.13969201897E+01  0.31343848769E+02  0.00000000000E+00 0.  1.
</event>
<event>
 7    1  0.2680581E-011  0.5052885E+02  0.7816164E-02  0.1300439E+00
        -11   -1    0    0    0    0  0.00000000000E+00  0.00000000000E+00  0.45593999997E+02  0.45594000000E+02  0.51100000000E-03 0.  1.
         11   -1    0    0    0    0 -0.00000000000E+00 -0.00000000000E+00 -0.45593999997E+02  0.45594000000E+02  0.51100000000E-03 0. -1.
    9900012    2    1    2    0    0 -0.12240499849E+02  0.22129656146E+02  0.31837314459E+02  0.50528854539E+02  0.29999983855E+02 0.  0.
         12    1    1    2    0    0  0.12240499849E+02 -0.22129656146E+02 -0.31837314459E+02  0.40659145461E+02  0.00000000000E+00 0. -1.
         11    1    3    3    0    0  0.60142485914E+01  0.31481710573E+01  0.73916994658E+01  0.10035904961E+02  0.51100000000E-03 0. -1.
        -11    1    3    3    0    0 -0.36614604617E+01  0.17110012159E+02  0.14614139308E+02  0.22797628753E+02  0.51100000000E-03 0.  1.
         12    1    3    3    0    0 -0.14593287978E+02  0.18714729298E+01  0.98314756856E+01  0.17695320825E+02  0.00000000000E+00 0. -1.
</event>
<event>
 7    1  0.2680581E-011  0.5052886E+02  0.7816164E-02  0.1300439E+00
        -11   -1    0    0    0    0  0.00000000000E+00  0.00000000000E+00  0.45593999997E+02  0.45594000000E+02  0.51100000000E-03 0. -1.
         11   -1    0    0    0    0 -0.00000000000E+00 -0.00000000000E+00 -0.45593999997E+02  0.45594000000E+02  0.51100000000E-03 0.  1.
    9900012    2    1    2    0    0 -0.31711338905E+02 -0.18475847121E+02 -0.17498566263E+02  0.50528858798E+02  0.29999996803E+02 0.  0.
         12    1    1    2    0    0  0.31711338905E+02  0.18475847121E+02  0.17498566263E+02  0.40659141202E+02  0.00000000000E+00 0. -1.
         11    1    3    3    0    0 -0.31990909873E+01 -0.12236142107E+02 -0.44343229213E+01  0.13402260139E+02  0.51100000000E-03 0. -1.
        -11    1    3    3    0    0 -0.28006311687E+01 -0.83536871736E+01 -0.48202662224E+01  0.10043036944E+02  0.51100000000E-03 0.  1.
        -12    1    3    3    0    0 -0.25711616749E+02  0.21139821594E+01 -0.82439771193E+01  0.27083561715E+02  0.00000000000E+00 0.  1.
</event>
<event>
 7    1  0.2680581E-011  0.5052886E+02  0.7816164E-02  0.1300439E+00
        -11   -1    0    0    0    0  0.00000000000E+00  0.00000000000E+00  0.45593999997E+02  0.45594000000E+02  0.51100000000E-03 0. -1.
         11   -1    0    0    0    0 -0.00000000000E+00 -0.00000000000E+00 -0.45593999997E+02  0.45594000000E+02  0.51100000000E-03 0.  1.
    9900012    2    1    2    0    0  0.23279381963E+02  0.25449313462E+02 -0.21530644518E+02  0.50528857933E+02  0.29999994174E+02 0.  0.
         12    1    1    2    0    0 -0.23279381963E+02 -0.25449313462E+02  0.21530644518E+02  0.40659142067E+02  0.00000000000E+00 0. -1.
         11    1    3    3    0    0  0.86199749799E+01  0.11856514911E+02  0.17688576866E+01  0.14765153987E+02  0.51100000000E-03 0. -1.
        -11    1    3    3    0    0  0.16494601721E+02  0.35892702360E+01 -0.15863976664E+02  0.23165070745E+02  0.51100000000E-03 0.  1.
         12    1    3    3    0    0 -0.18351947384E+01  0.10003528315E+02 -0.74355255405E+01  0.12598633201E+02  0.00000000000E+00 0. -1.
</event>
<event>
 7    1  0.2680581E-011  0.5052886E+02  0.7816164E-02  0.1300439E+00
        -11   -1    0    0    0    0  0.00000000000E+00  0.00000000000E+00  0.45593999997E+02  0.45594000000E+02  0.51100000000E-03 0.  1.
         11   -1    0    0    0    0 -0.00000000000E+00 -0.00000000000E+00 -0.45593999997E+02  0.45594000000E+02  0.51100000000E-03 0. -1.
    9900012    2    1    2    0    0 -0.46231945700E+01  0.29061852292E+02  0.28057096442E+02  0.50528857763E+02  0.29999993656E+02 0.  0.
         12    1    1    2    0    0  0.46231945700E+01 -0.29061852292E+02 -0.28057096442E+02  0.40659142237E+02  0.00000000000E+00 0. -1.
         11    1    3    3    0    0 -0.18401375464E+01  0.19544114956E+01  0.13902784700E+02  0.14159564017E+02  0.51100000000E-03 0. -1.
        -11    1    3    3    0    0 -0.57326944012E+01  0.10878786093E+02 -0.29097233842E+01  0.12636386445E+02  0.51100000000E-03 0.  1.
         12    1    3    3    0    0  0.29496373776E+01  0.16228654703E+02  0.17064035127E+02  0.23732907301E+02  0.00000000000E+00 0. -1.
</event>
<event>
 7    1  0.2680581E-011  0.5052887E+02  0.7816164E-02  0.1300439E+00
        -11   -1    0    0    0    0  0.00000000000E+00  0.00000000000E+00  0.45593999997E+02  0.45594000000E+02  0.51100000000E-03 0.  1.
         11   -1    0    0    0    0 -0.00000000000E+00 -0.00000000000E+00 -0.45593999997E+02  0.45594000000E+02  0.51100000000E-03 0. -1.
    9900012    2    1    2    0    0  0.17602338151E+02 -0.23108009987E+02 -0.28448948662E+02  0.50528866783E+02  0.30000021074E+02 0.  0.
         12    1    1    2    0    0 -0.17602338151E+02  0.23108009987E+02  0.28448948662E+02  0.40659133217E+02  0.00000000000E+00 0. -1.
         11    1    3    3    0    0  0.24534726898E+01  0.20807674181E+01 -0.47320796446E+01  0.57220362906E+01  0.51100000000E-03 0. -1.
        -11    1    3    3    0    0  0.16713326812E+02 -0.20197924386E+02 -0.27770025884E+02  0.38189864892E+02  0.51100000000E-03 0.  1.
         12    1    3    3    0    0 -0.15644613505E+01 -0.49908530191E+01  0.40531568663E+01  0.66169656005E+01  0.00000000000E+00 0. -1.
</event>
<event>
 7    1  0.2680581E-011  0.5052887E+02  0.7816164E-02  0.1300439E+00
        -11   -1    0    0    0    0  0.00000000000E+00  0.00000000000E+00  0.45593999997E+02  0.45594000000E+02  0.51100000000E-03 0.  1.
         11   -1    0    0    0    0 -0.00000000000E+00 -0.00000000000E+00 -0.45593999997E+02  0.45594000000E+02  0.51100000000E-03 0. -1.
    9900012    2    1    2    0    0 -0.36040572721E+02  0.18134479599E+02  0.50381250035E+01  0.50528868972E+02  0.30000027728E+02 0.  0.
         12    1    1    2    0    0  0.36040572721E+02 -0.18134479599E+02 -0.50381250035E+01  0.40659131028E+02  0.00000000000E+00 0. -1.
         11    1    3    3    0    0 -0.29615194932E+01  0.50355542410E+01 -0.58031441035E+01  0.82343115055E+01  0.51100000000E-03 0.  1.
        -11    1    3    3    0    0 -0.27864446562E+02  0.12971957664E+01  0.61406428405E+01  0.28562520789E+02  0.51100000000E-03 0. -1.
         12    1    3    3    0    0 -0.52146066661E+01  0.11801729591E+02  0.47006262665E+01  0.13732036678E+02  0.00000000000E+00 0. -1.
</event>
<event>
 7    1  0.2680581E-011  0.5052886E+02  0.7816164E-02  0.1300439E+00
        -11   -1    0    0    0    0  0.00000000000E+00  0.00000000000E+00  0.45593999997E+02  0.45594000000E+02  0.51100000000E-03 0. -1.
         11   -1    0    0    0    0 -0.00000000000E+00 -0.00000000000E+00 -0.45593999997E+02  0.45594000000E+02  0.51100000000E-03 0.  1.
    9900012    2    1    2    0    0  0.32485000118E+02 -0.23649641583E+02  0.62116609599E+01  0.50528861893E+02  0.30000006211E+02 0.  0.
         12    1    1    2    0    0 -0.32485000118E+02  0.23649641583E+02 -0.62116609599E+01  0.40659138107E+02  0.00000000000E+00 0. -1.
         11    1    3    3    0    0  0.36058196138E+01 -0.11291793560E+02  0.75701052336E+01  0.14064602034E+02  0.51100000000E-03 0. -1.
        -11    1    3    3    0    0  0.17277194455E+02 -0.12541199397E+02  0.66554290303E+01  0.22362420853E+02  0.51100000000E-03 0.  1.
         12    1    3    3    0    0  0.11601986050E+02  0.18335137404E+00 -0.80138733040E+01  0.14101839006E+02  0.00000000000E+00 0. -1.
</event>
<event>
 7    1  0.2680581E-011  0.5052884E+02  0.7816164E-02  0.1300439E+00
        -11   -1    0    0    0    0  0.00000000000E+00  0.00000000000E+00  0.45593999997E+02  0.45594000000E+02  0.51100000000E-03 0.  1.
         11   -1    0    0    0    0 -0.00000000000E+00 -0.00000000000E+00 -0.45593999997E+02  0.45594000000E+02  0.51100000000E-03 0. -1.
    9900012    2    1    2    0    0  0.12342004492E+02 -0.38510268852E+02 -0.42191877092E+01  0.50528838341E+02  0.29999934620E+02 0.  0.
         12    1    1    2    0    0 -0.12342004492E+02  0.38510268852E+02  0.42191877092E+01  0.40659161659E+02  0.00000000000E+00 0. -1.
         11    1    3    3    0    0 -0.59934970942E+01 -0.12388415474E+02 -0.14395195000E+01  0.13837162355E+02  0.51100000000E-03 0. -1.
        -11    1    3    3    0    0  0.94499688247E+01 -0.19343706057E+02  0.61464435645E+01  0.22388828544E+02  0.51100000000E-03 0.  1.
         12    1    3    3    0    0  0.88855327615E+01 -0.67781473203E+01 -0.89261117737E+01  0.14302847442E+02  0.00000000000E+00 0. -1.
</event>
<event>
 7    1  0.2680581E-011  0.5052886E+02  0.7816164E-02  0.1300439E+00
        -11   -1    0    0    0    0  0.00000000000E+00  0.00000000000E+00  0.45593999997E+02  0.45594000000E+02  0.51100000000E-03 0. -1.
         11   -1    0    0    0    0 -0.00000000000E+00 -0.00000000000E+00 -0.45593999997E+02  0.45594000000E+02  0.51100000000E-03 0.  1.
    9900012    2    1    2    0    0 -0.17243821093E+02 -0.30494098795E+02 -0.20637975627E+02  0.50528862464E+02  0.30000007946E+02 0.  0.
         12    1    1    2    0    0  0.17243821093E+02  0.30494098795E+02  0.20637975627E+02  0.40659137536E+02  0.00000000000E+00 0. -1.
         11    1    3    3    0    0  0.26481255317E+01  0.55290795745E-01 -0.14986856608E+01  0.30433016404E+01  0.51100000000E-03 0. -1.
        -11    1    3    3    0    0 -0.11356248079E+02 -0.15695387582E+01  0.46123634701E+00  0.11473472080E+02  0.51100000000E-03 0.  1.
        -12    1    3    3    0    0 -0.85356985458E+01 -0.28979850832E+02 -0.19600526313E+02  0.36012088744E+02  0.00000000000E+00 0.  1.
</event>
<event>
 7    1  0.2702870E-011  0.5052886E+02  0.7816164E-02  0.1300439E+00
        -11   -1    0    0    0    0  0.00000000000E+00  0.00000000000E+00  0.45593999997E+02  0.45594000000E+02  0.51100000000E-03 0. -1.
         11   -1    0    0    0    0 -0.00000000000E+00 -0.00000000000E+00 -0.45593999997E+02  0.45594000000E+02  0.51100000000E-03 0.  1.
    9900012    2    1    2    0    0 -0.22213987236E+02  0.23883341688E+02 -0.24275304546E+02  0.50528860192E+02  0.30000001039E+02 0.  0.
         12    1    1    2    0    0  0.22213987236E+02 -0.23883341688E+02  0.24275304546E+02  0.40659139808E+02  0.00000000000E+00 0. -1.
         11    1    3    3    0    0  0.49680368384E+01  0.12079955617E+00 -0.32981971558E+01  0.59644016716E+01  0.51100000000E-03 0. -1.
        -11    1    3    3    0    0 -0.74594745091E+01  0.71935552833E+01 -0.14813747152E+02  0.18078664290E+02  0.51100000000E-03 0.  1.
        -12    1    3    3    0    0 -0.19722549566E+02  0.16568986849E+02 -0.61633602382E+01  0.26485794230E+02  0.00000000000E+00 0.  1.
</event>
<event>
 7    1  0.2680581E-011  0.5052886E+02  0.7816164E-02  0.1300439E+00
        -11   -1    0    0    0    0  0.00000000000E+00  0.00000000000E+00  0.45593999997E+02  0.45594000000E+02  0.51100000000E-03 0.  1.
         11   -1    0    0    0    0 -0.00000000000E+00 -0.00000000000E+00 -0.45593999997E+02  0.45594000000E+02  0.51100000000E-03 0. -1.
    9900012    2    1    2    0    0  0.15493080847E+02 -0.35830793687E+02  0.11370337027E+02  0.50528857185E+02  0.29999991898E+02 0.  0.
         12    1    1    2    0    0 -0.15493080847E+02  0.35830793687E+02 -0.11370337027E+02  0.40659142815E+02  0.00000000000E+00 0. -1.
         11    1    3    3    0    0 -0.48284876826E+01 -0.99221397350E+01  0.94843358733E+01  0.14550456262E+02  0.51100000000E-03 0. -1.
        -11    1    3    3    0    0 -0.39226319341E+00 -0.46613469722E+01 -0.34714966497E+01  0.58252309189E+01  0.51100000000E-03 0.  1.
        -12    1    3    3    0    0  0.20713831723E+02 -0.21247306980E+02  0.53574978038E+01  0.30153170003E+02  0.00000000000E+00 0.  1.
</event>
<event>
 7    1  0.2680581E-011  0.5052885E+02  0.7816164E-02  0.1300439E+00
        -11   -1    0    0    0    0  0.00000000000E+00  0.00000000000E+00  0.45593999997E+02  0.45594000000E+02  0.51100000000E-03 0.  1.
         11   -1    0    0    0    0 -0.00000000000E+00 -0.00000000000E+00 -0.45593999997E+02  0.45594000000E+02  0.51100000000E-03 0. -1.
    9900012    2    1    2    0    0  0.44380563172E+01 -0.39727234759E+02  0.74307843610E+01  0.50528854882E+02  0.29999984901E+02 0.  0.
         12    1    1    2    0    0 -0.44380563172E+01  0.39727234759E+02 -0.74307843610E+01  0.40659145118E+02  0.00000000000E+00 0. -1.
         11    1    3    3    0    0  0.48065306517E+01 -0.36234968157E+01 -0.10031848022E+01  0.61023639753E+01  0.51100000000E-03 0. -1.
        -11    1    3    3    0    0  0.21365618499E+01 -0.32205836152E+02  0.15634577826E+02  0.35863920629E+02  0.51100000000E-03 0.  1.
         12    1    3    3    0    0 -0.25050361843E+01 -0.38979017910E+01 -0.72006086629E+01  0.85625702784E+01  0.00000000000E+00 0. -1.
</event>
<event>
 7    1  0.2680581E-011  0.5052886E+02  0.7816164E-02  0.1300439E+00
        -11   -1    0    0    0    0  0.00000000000E+00  0.00000000000E+00  0.45593999997E+02  0.45594000000E+02  0.51100000000E-03 0. -1.
         11   -1    0    0    0    0 -0.00000000000E+00 -0.00000000000E+00 -0.45593999997E+02  0.45594000000E+02  0.51100000000E-03 0.  1.
    9900012    2    1    2    0    0  0.40375880553E+02  0.16246445455E+01 -0.45071521154E+01  0.50528860554E+02  0.30000002139E+02 0.  0.
         12    1    1    2    0    0 -0.40375880553E+02 -0.16246445455E+01  0.45071521154E+01  0.40659139446E+02  0.00000000000E+00 0. -1.
         11    1    3    3    0    0  0.28776642570E+01 -0.42746897685E+01 -0.58457654654E+01  0.77927465204E+01  0.51100000000E-03 0. -1.
        -11    1    3    3    0    0  0.38520809303E+02  0.74330961464E+01 -0.16035417049E+01  0.39264169595E+02  0.51100000000E-03 0.  1.
         12    1    3    3    0    0 -0.10225930075E+01 -0.15337618324E+01  0.29421550549E+01  0.34719444386E+01  0.00000000000E+00 0. -1.
</event>
<event>
 7    1  0.2680581E-011  0.5052885E+02  0.7816164E-02  0.1300439E+00
        -11   -1    0    0    0    0  0.00000000000E+00  0.00000000000E+00  0.45593999997E+02  0.45594000000E+02  0.51100000000E-03 0. -1.
         11   -1    0    0    0    0 -0.00000000000E+00 -0.00000000000E+00 -0.45593999997E+02  0.45594000000E+02  0.51100000000E-03 0.  1.
    9900012    2    1    2    0    0 -0.26049213435E+02  0.50709757229E+01 -0.30804059476E+02  0.50528851023E+02  0.29999973169E+02 0.  0.
         12    1    1    2    0    0  0.26049213435E+02 -0.50709757229E+01  0.30804059476E+02  0.40659148977E+02  0.00000000000E+00 0. -1.
         11    1    3    3    0    0 -0.18428732235E+02 -0.31927751081E+01 -0.15469148010E+02  0.24271516745E+02  0.51100000000E-03 0.  1.
        -11    1    3    3    0    0 -0.79595562858E+00 -0.57065743586E+01 -0.43762376703E+01  0.72353294798E+01  0.51100000000E-03 0. -1.
         12    1    3    3    0    0 -0.68245255713E+01  0.13970325190E+02 -0.10958673795E+02  0.19022004798E+02  0.00000000000E+00 0. -1.
</event>
<event>
 7    1  0.2680581E-011  0.5052886E+02  0.7816164E-02  0.1300439E+00
        -11   -1    0    0    0    0  0.00000000000E+00  0.00000000000E+00  0.45593999997E+02  0.45594000000E+02  0.51100000000E-03 0. -1.
         11   -1    0    0    0    0 -0.00000000000E+00 -0.00000000000E+00 -0.45593999997E+02  0.45594000000E+02  0.51100000000E-03 0.  1.
    9900012    2    1    2    0    0 -0.39474576873E+02  0.91363764111E+01  0.33838097913E+01  0.50528858815E+02  0.29999996854E+02 0.  0.
         12    1    1    2    0    0  0.39474576873E+02 -0.91363764111E+01 -0.33838097913E+01  0.40659141185E+02  0.00000000000E+00 0. -1.
         11    1    3    3    0    0 -0.23145426754E+02  0.11319391462E+02  0.31804380691E+01  0.25960635378E+02  0.51100000000E-03 0. -1.
        -11    1    3    3    0    0  0.57004613345E+00  0.35007211950E+01 -0.48758753821E+01  0.60294413076E+01  0.51100000000E-03 0.  1.
        -12    1    3    3    0    0 -0.16899196252E+02 -0.56837362457E+01  0.50792471043E+01  0.18538782129E+02  0.00000000000E+00 0.  1.
</event>
<event>
 7    1  0.2680581E-011  0.5052886E+02  0.7816164E-02  0.1300439E+00
        -11   -1    0    0    0    0  0.00000000000E+00  0.00000000000E+00  0.45593999997E+02  0.45594000000E+02  0.51100000000E-03 0.  1.
         11   -1    0    0    0    0 -0.00000000000E+00 -0.00000000000E+00 -0.45593999997E+02  0.45594000000E+02  0.51100000000E-03 0. -1.
    9900012    2    1    2    0    0 -0.27168234225E+02  0.30113569642E+02 -0.28680911641E+01  0.50528856202E+02  0.29999988912E+02 0.  0.
         12    1    1    2    0    0  0.27168234225E+02 -0.30113569642E+02  0.28680911641E+01  0.40659143798E+02  0.00000000000E+00 0. -1.
         11    1    3    3    0    0 -0.39594497613E+01  0.10894638888E+02 -0.45029382729E+01  0.12435708756E+02  0.51100000000E-03 0. -1.
        -11    1    3    3    0    0 -0.15077286396E+02  0.59997848175E+01 -0.96722581537E+01  0.18891123867E+02  0.51100000000E-03 0.  1.
        -12    1    3    3    0    0 -0.81314980679E+01  0.13219145937E+02  0.11307105263E+02  0.19202023579E+02  0.00000000000E+00 0.  1.
</event>
<event>
 7    1  0.2680581E-011  0.5052886E+02  0.7816164E-02  0.1300439E+00
        -11   -1    0    0    0    0  0.00000000000E+00  0.00000000000E+00  0.45593999997E+02  0.45594000000E+02  0.51100000000E-03 0. -1.
         11   -1    0    0    0    0 -0.00000000000E+00 -0.00000000000E+00 -0.45593999997E+02  0.45594000000E+02  0.51100000000E-03 0.  1.
    9900012    2    1    2    0    0  0.12806868105E+02  0.92512882921E+01 -0.37464161752E+02  0.50528860542E+02  0.30000002103E+02 0.  0.
         12    1    1    2    0    0 -0.12806868105E+02 -0.92512882921E+01  0.37464161752E+02  0.40659139458E+02  0.00000000000E+00 0. -1.
         11    1    3    3    0    0  0.95168429890E+01  0.12274364713E+02 -0.14454768439E+02  0.21217225560E+02  0.51100000000E-03 0. -1.
        -11    1    3    3    0    0  0.41207292862E+00  0.17414036178E+01  0.25711017940E+01  0.31325477418E+01  0.51100000000E-03 0.  1.
        -12    1    3    3    0    0  0.28779521876E+01 -0.47644800384E+01 -0.25580495106E+02  0.26179087240E+02  0.00000000000E+00 0.  1.
</event>
<event>
 7    1  0.2680581E-011  0.5052888E+02  0.7816164E-02  0.1300439E+00
        -11   -1    0    0    0    0  0.00000000000E+00  0.00000000000E+00  0.45593999997E+02  0.45594000000E+02  0.51100000000E-03 0. -1.
         11   -1    0    0    0    0 -0.00000000000E+00 -0.00000000000E+00 -0.45593999997E+02  0.45594000000E+02  0.51100000000E-03 0.  1.
    9900012    2    1    2    0    0 -0.18777018544E+02 -0.17496455666E+01 -0.36021197011E+02  0.50528876558E+02  0.30000050785E+02 0.  0.
         12    1    1    2    0    0  0.18777018544E+02  0.17496455666E+01  0.36021197011E+02  0.40659123442E+02  0.00000000000E+00 0. -1.
         11    1    3    3    0    0 -0.61650899080E+01 -0.51028533236E-01 -0.29256587317E+01  0.68242521027E+01  0.51100000000E-03 0. -1.
        -11    1    3    3    0    0 -0.98478009284E+01 -0.12631568727E+02 -0.25483814623E+02  0.30099178055E+02  0.51100000000E-03 0.  1.
         12    1    3    3    0    0 -0.27641277075E+01  0.10932951693E+02 -0.76117236564E+01  0.13605446400E+02  0.00000000000E+00 0. -1.
</event>
<event>
 7    1  0.2680581E-011  0.5052886E+02  0.7816164E-02  0.1300439E+00
        -11   -1    0    0    0    0  0.00000000000E+00  0.00000000000E+00  0.45593999997E+02  0.45594000000E+02  0.51100000000E-03 0. -1.
         11   -1    0    0    0    0 -0.00000000000E+00 -0.00000000000E+00 -0.45593999997E+02  0.45594000000E+02  0.51100000000E-03 0.  1.
    9900012    2    1    2    0    0 -0.35420604060E+02  0.18464793856E+02 -0.75893039743E+01  0.50528864016E+02  0.30000012663E+02 0.  0.
         12    1    1    2    0    0  0.35420604060E+02 -0.18464793856E+02  0.75893039743E+01  0.40659135984E+02  0.00000000000E+00 0. -1.
         11    1    3    3    0    0 -0.13658557024E+02  0.43994495726E+01  0.83563380504E+00  0.14373921547E+02  0.51100000000E-03 0. -1.
        -11    1    3    3    0    0 -0.67873602938E+01  0.17628344447E+02 -0.86136261760E+01  0.20761053535E+02  0.51100000000E-03 0.  1.
         12    1    3    3    0    0 -0.14974686743E+02 -0.35630001642E+01  0.18868839675E+00  0.15393888935E+02  0.00000000000E+00 0. -1.
</event>
<event>
 7    1  0.2680581E-011  0.5052886E+02  0.7816164E-02  0.1300439E+00
        -11   -1    0    0    0    0  0.00000000000E+00  0.00000000000E+00  0.45593999997E+02  0.45594000000E+02  0.51100000000E-03 0.  1.
         11   -1    0    0    0    0 -0.00000000000E+00 -0.00000000000E+00 -0.45593999997E+02  0.45594000000E+02  0.51100000000E-03 0. -1.
    9900012    2    1    2    0    0 -0.39683058363E+02  0.19670223530E+01  0.86343232442E+01  0.50528857905E+02  0.29999994089E+02 0.  0.
         12    1    1    2    0    0  0.39683058363E+02 -0.19670223530E+01 -0.86343232442E+01  0.40659142095E+02  0.00000000000E+00 0. -1.
         11    1    3    3    0    0 -0.15522613566E+02 -0.87806545108E+01  0.70206568490E+01  0.19166143285E+02  0.51100000000E-03 0. -1.
        -11    1    3    3    0    0 -0.15374648193E+02 -0.12009252803E+01 -0.32390516410E+01  0.15757965744E+02  0.51100000000E-03 0.  1.
         12    1    3    3    0    0 -0.87857966034E+01  0.11948602144E+02  0.48527180362E+01  0.15604748876E+02  0.00000000000E+00 0. -1.
</event>
<event>
 7    1  0.2680581E-011  0.5052884E+02  0.7816164E-02  0.1300439E+00
        -11   -1    0    0    0    0  0.00000000000E+00  0.00000000000E+00  0.45593999997E+02  0.45594000000E+02  0.51100000000E-03 0.  1.
         11   -1    0    0    0    0 -0.00000000000E+00 -0.00000000000E+00 -0.45593999997E+02  0.45594000000E+02  0.51100000000E-03 0. -1.
    9900012    2    1    2    0    0  0.99719539125E+01  0.36412859961E+02  0.15094060845E+02  0.50528844719E+02  0.29999954009E+02 0.  0.
         12    1    1    2    0    0 -0.99719539125E+01 -0.36412859961E+02 -0.15094060845E+02  0.40659155281E+02  0.00000000000E+00 0. -1.
         11    1    3    3    0    0 -0.12110772866E+01  0.25667782140E+02  0.42911816383E+01  0.26052178187E+02  0.51100000000E-03 0. -1.
        -11    1    3    3    0    0 -0.35164343853E+00  0.10020518326E+02  0.72915597929E+01  0.12397632238E+02  0.51100000000E-03 0.  1.
         12    1    3    3    0    0  0.11534674638E+02  0.72455949449E+00  0.35113194141E+01  0.12079034294E+02  0.00000000000E+00 0. -1.
</event>
<event>
 7    1  0.2680581E-011  0.5052888E+02  0.7816164E-02  0.1300439E+00
        -11   -1    0    0    0    0  0.00000000000E+00  0.00000000000E+00  0.45593999997E+02  0.45594000000E+02  0.51100000000E-03 0. -1.
         11   -1    0    0    0    0 -0.00000000000E+00 -0.00000000000E+00 -0.45593999997E+02  0.45594000000E+02  0.51100000000E-03 0.  1.
    9900012    2    1    2    0    0 -0.33507091825E+02  0.45657177331E+01 -0.22574170925E+02  0.50528878343E+02  0.30000056212E+02 0.  0.
         12    1    1    2    0    0  0.33507091825E+02 -0.45657177331E+01  0.22574170925E+02  0.40659121657E+02  0.00000000000E+00 0. -1.
         11    1    3    3    0    0 -0.10284537412E+02  0.12074833343E+02 -0.89546289297E+00  0.15886320030E+02  0.51100000000E-03 0. -1.
        -11    1    3    3    0    0 -0.19794341616E+02 -0.12055524669E+01 -0.15410110622E+02  0.25114554076E+02  0.51100000000E-03 0.  1.
        -12    1    3    3    0    0 -0.34282127960E+01 -0.63035631427E+01 -0.62685974093E+01  0.95280042375E+01  0.00000000000E+00 0.  1.
</event>
<event>
 7    1  0.2680581E-011  0.5052886E+02  0.7816164E-02  0.1300439E+00
        -11   -1    0    0    0    0  0.00000000000E+00  0.00000000000E+00  0.45593999997E+02  0.45594000000E+02  0.51100000000E-03 0.  1.
         11   -1    0    0    0    0 -0.00000000000E+00 -0.00000000000E+00 -0.45593999997E+02  0.45594000000E+02  0.51100000000E-03 0. -1.
    9900012    2    1    2    0    0  0.19235572484E+02  0.31443936686E+02  0.17159169429E+02  0.50528862053E+02  0.30000006696E+02 0.  0.
         12    1    1    2    0    0 -0.19235572484E+02 -0.31443936686E+02 -0.17159169429E+02  0.40659137947E+02  0.00000000000E+00 0. -1.
         11    1    3    3    0    0  0.10156908333E+02  0.10568915618E+01 -0.20009849019E+01  0.10405947699E+02  0.51100000000E-03 0. -1.
        -11    1    3    3    0    0  0.78006167982E+01  0.31387930224E+02  0.14989341826E+02  0.35647330262E+02  0.51100000000E-03 0.  1.
         12    1    3    3    0    0  0.12780473523E+01 -0.10008850998E+01  0.41708125044E+01  0.44755840920E+01  0.00000000000E+00 0. -1.
</event>
<event>
 7    1  0.2680581E-011  0.5052888E+02  0.7816164E-02  0.1300439E+00
        -11   -1    0    0    0    0  0.00000000000E+00  0.00000000000E+00  0.45593999997E+02  0.45594000000E+02  0.51100000000E-03 0.  1.
         11   -1    0    0    0    0 -0.00000000000E+00 -0.00000000000E+00 -0.45593999997E+02  0.45594000000E+02  0.51100000000E-03 0. -1.
    9900012    2    1    2    0    0  0.10794868254E+02  0.35043876953E+02  0.17565930670E+02  0.50528875405E+02  0.30000047280E+02 0.  0.
         12    1    1    2    0    0 -0.10794868254E+02 -0.35043876953E+02 -0.17565930670E+02  0.40659124595E+02  0.00000000000E+00 0. -1.
         11    1    3    3    0    0  0.61951107240E+01  0.23515413510E+02  0.51442580985E+01  0.24855934122E+02  0.51100000000E-03 0. -1.
        -11    1    3    3    0    0  0.80286603259E+01  0.82611662631E+01  0.16014998870E+02  0.19727808893E+02  0.51100000000E-03 0.  1.
         12    1    3    3    0    0 -0.34289027958E+01  0.32672971797E+01 -0.35933262980E+01  0.59451323894E+01  0.00000000000E+00 0. -1.
</event>
<event>
 7    1  0.2680581E-011  0.5052886E+02  0.7816164E-02  0.1300439E+00
        -11   -1    0    0    0    0  0.00000000000E+00  0.00000000000E+00  0.45593999997E+02  0.45594000000E+02  0.51100000000E-03 0.  1.
         11   -1    0    0    0    0 -0.00000000000E+00 -0.00000000000E+00 -0.45593999997E+02  0.45594000000E+02  0.51100000000E-03 0. -1.
    9900012    2    1    2    0    0 -0.26101940053E+00 -0.72147288203E+01  0.40013062634E+02  0.50528860506E+02  0.30000001993E+02 0.  0.
         12    1    1    2    0    0  0.26101940053E+00  0.72147288203E+01 -0.40013062634E+02  0.40659139494E+02  0.00000000000E+00 0. -1.
         11    1    3    3    0    0  0.85203729533E+00  0.41559079349E+01  0.16537743447E+01  0.45532964059E+01  0.51100000000E-03 0. -1.
        -11    1    3    3    0    0  0.84951065042E+01 -0.53466693596E+01  0.60174574299E+01  0.11703140687E+02  0.51100000000E-03 0.  1.
        -12    1    3    3    0    0 -0.96081632000E+01 -0.60239673956E+01  0.32341830859E+02  0.34272423413E+02  0.00000000000E+00 0.  1.
</event>
<event>
 7    1  0.2680581E-011  0.5052885E+02  0.7816164E-02  0.1300439E+00
        -11   -1    0    0    0    0  0.00000000000E+00  0.00000000000E+00  0.45593999997E+02  0.45594000000E+02  0.51100000000E-03 0. -1.
         11   -1    0    0    0    0 -0.00000000000E+00 -0.00000000000E+00 -0.45593999997E+02  0.45594000000E+02  0.51100000000E-03 0.  1.
    9900012    2    1    2    0    0 -0.10843442124E+02  0.14852832013E+02 -0.36262644837E+02  0.50528852610E+02  0.29999977994E+02 0.  0.
         12    1    1    2    0    0  0.10843442124E+02 -0.14852832013E+02  0.36262644837E+02  0.40659147390E+02  0.00000000000E+00 0. -1.
         11    1    3    3    0    0  0.19838098805E+01  0.24128809481E+01  0.13567536909E+01  0.34056243114E+01  0.51100000000E-03 0. -1.
        -11    1    3    3    0    0 -0.11840004736E+02  0.37182959815E+00 -0.60291277018E+01  0.13291890404E+02  0.51100000000E-03 0.  1.
        -12    1    3    3    0    0 -0.98724726846E+00  0.12068121467E+02 -0.31590270826E+02  0.33831337895E+02  0.00000000000E+00 0.  1.
</event>
<event>
 7    1  0.2680581E-011  0.5052885E+02  0.7816164E-02  0.1300439E+00
        -11   -1    0    0    0    0  0.00000000000E+00  0.00000000000E+00  0.45593999997E+02  0.45594000000E+02  0.51100000000E-03 0.  1.
         11   -1    0    0    0    0 -0.00000000000E+00 -0.00000000000E+00 -0.45593999997E+02  0.45594000000E+02  0.51100000000E-03 0. -1.
    9900012    2    1    2    0    0 -0.78713096225E+01  0.28997634635E+01  0.39784424977E+02  0.50528848336E+02  0.29999965001E+02 0.  0.
         12    1    1    2    0    0  0.78713096225E+01 -0.28997634635E+01 -0.39784424977E+02  0.40659151664E+02  0.00000000000E+00 0. -1.
         11    1    3    3    0    0  0.35961318507E+01 -0.39815261318E+01  0.28899714383E+01  0.60939847227E+01  0.51100000000E-03 0. -1.
        -11    1    3    3    0    0 -0.98176596465E+01  0.77749761682E+01  0.39378438843E+02  0.41321884532E+02  0.51100000000E-03 0.  1.
         12    1    3    3    0    0 -0.16497818268E+01 -0.89368657297E+00 -0.24839853040E+01  0.31129790808E+01  0.00000000000E+00 0. -1.
</event>
<event>
 7    1  0.2680581E-011  0.5052886E+02  0.7816164E-02  0.1300439E+00
        -11   -1    0    0    0    0  0.00000000000E+00  0.00000000000E+00  0.45593999997E+02  0.45594000000E+02  0.51100000000E-03 0.  1.
         11   -1    0    0    0    0 -0.00000000000E+00 -0.00000000000E+00 -0.45593999997E+02  0.45594000000E+02  0.51100000000E-03 0. -1.
    9900012    2    1    2    0    0 -0.25783600556E+02 -0.15538742661E+02  0.27329820304E+02  0.50528860081E+02  0.30000000701E+02 0.  0.
         12    1    1    2    0    0  0.25783600556E+02  0.15538742661E+02 -0.27329820304E+02  0.40659139919E+02  0.00000000000E+00 0. -1.
         11    1    3    3    0    0 -0.40924791621E+01 -0.91408189672E+01  0.14641069498E+02  0.17738767527E+02  0.51100000000E-03 0. -1.
        -11    1    3    3    0    0  0.29360026580E+01  0.14845133901E+01  0.46794489890E+01  0.57202390436E+01  0.51100000000E-03 0.  1.
        -12    1    3    3    0    0 -0.24627124052E+02 -0.78824370837E+01  0.80093018176E+01  0.27069853510E+02  0.00000000000E+00 0.  1.
</event>
<event>
 7    1  0.2680581E-011  0.5052887E+02  0.7816164E-02  0.1300439E+00
        -11   -1    0    0    0    0  0.00000000000E+00  0.00000000000E+00  0.45593999997E+02  0.45594000000E+02  0.51100000000E-03 0.  1.
         11   -1    0    0    0    0 -0.00000000000E+00 -0.00000000000E+00 -0.45593999997E+02  0.45594000000E+02  0.51100000000E-03 0. -1.
    9900012    2    1    2    0    0 -0.22756819649E+02  0.28202119116E+02  0.18437252830E+02  0.50528872426E+02  0.30000038225E+02 0.  0.
         12    1    1    2    0    0  0.22756819649E+02 -0.28202119116E+02 -0.18437252830E+02  0.40659127574E+02  0.00000000000E+00 0. -1.
         11    1    3    3    0    0 -0.13237637354E+02  0.23455298427E+02 -0.76674929074E-01  0.26933101313E+02  0.51100000000E-03 0. -1.
        -11    1    3    3    0    0 -0.21659173500E+01  0.54920420114E+01  0.35050553473E+01  0.68657946861E+01  0.51100000000E-03 0.  1.
         12    1    3    3    0    0 -0.73532649453E+01 -0.74522132245E+00  0.15008872412E+02  0.16729976427E+02  0.00000000000E+00 0. -1.
</event>
<event>
 7    1  0.2680581E-011  0.5052887E+02  0.7816164E-02  0.1300439E+00
        -11   -1    0    0    0    0  0.00000000000E+00  0.00000000000E+00  0.45593999997E+02  0.45594000000E+02  0.51100000000E-03 0. -1.
         11   -1    0    0    0    0 -0.00000000000E+00 -0.00000000000E+00 -0.45593999997E+02  0.45594000000E+02  0.51100000000E-03 0.  1.
    9900012    2    1    2    0    0 -0.34716921624E+02 -0.17609973432E+02  0.11738370015E+02  0.50528866439E+02  0.30000020029E+02 0.  0.
         12    1    1    2    0    0  0.34716921624E+02  0.17609973432E+02 -0.11738370015E+02  0.40659133561E+02  0.00000000000E+00 0. -1.
         11    1    3    3    0    0 -0.10975697431E+02 -0.81717342137E+01  0.30122196728E+01  0.14011304071E+02  0.51100000000E-03 0. -1.
        -11    1    3    3    0    0 -0.80949108333E+01  0.65306646351E+01 -0.35777332835E+01  0.10998969847E+02  0.51100000000E-03 0.  1.
         12    1    3    3    0    0 -0.15646313359E+02 -0.15968903853E+02  0.12303883626E+02  0.25518592522E+02  0.00000000000E+00 0. -1.
</event>
<event>
 7    1  0.2680581E-011  0.5052887E+02  0.7816164E-02  0.1300439E+00
        -11   -1    0    0    0    0  0.00000000000E+00  0.00000000000E+00  0.45593999997E+02  0.45594000000E+02  0.51100000000E-03 0.  1.
         11   -1    0    0    0    0 -0.00000000000E+00 -0.00000000000E+00 -0.45593999997E+02  0.45594000000E+02  0.51100000000E-03 0. -1.
    9900012    2    1    2    0    0  0.23453423751E+02  0.19401571721E+02  0.26957021220E+02  0.50528867398E+02  0.30000022942E+02 0.  0.
         12    1    1    2    0    0 -0.23453423751E+02 -0.19401571721E+02 -0.26957021220E+02  0.40659132602E+02  0.00000000000E+00 0. -1.
         11    1    3    3    0    0  0.12734120565E+01  0.90159864933E+01  0.10870040843E+02  0.14179822951E+02  0.51100000000E-03 0. -1.
        -11    1    3    3    0    0  0.38049144156E+01  0.10006453708E+02 -0.16207722910E+01  0.10827437028E+02  0.51100000000E-03 0.  1.
        -12    1    3    3    0    0  0.18375097279E+02  0.37913152065E+00  0.17707752668E+02  0.25521607419E+02  0.00000000000E+00 0.  1.
</event>
<event>
 7    1  0.2680581E-011  0.5052886E+02  0.7816164E-02  0.1300439E+00
        -11   -1    0    0    0    0  0.00000000000E+00  0.00000000000E+00  0.45593999997E+02  0.45594000000E+02  0.51100000000E-03 0. -1.
         11   -1    0    0    0    0 -0.00000000000E+00 -0.00000000000E+00 -0.45593999997E+02  0.45594000000E+02  0.51100000000E-03 0.  1.
    9900012    2    1    2    0    0 -0.27959214031E+02  0.29153728374E+02  0.46376878442E+01  0.50528859873E+02  0.30000000070E+02 0.  0.
         12    1    1    2    0    0  0.27959214031E+02 -0.29153728374E+02 -0.46376878442E+01  0.40659140127E+02  0.00000000000E+00 0. -1.
         11    1    3    3    0    0 -0.90026536266E+01  0.12644075336E+02  0.58754843396E+01  0.16596437265E+02  0.51100000000E-03 0.  1.
        -11    1    3    3    0    0 -0.23759200408E+02  0.15376751602E+02  0.14030961176E+01  0.28335715499E+02  0.51100000000E-03 0. -1.
         12    1    3    3    0    0  0.48026400035E+01  0.11329014361E+01 -0.26408926130E+01  0.55967071087E+01  0.00000000000E+00 0. -1.
</event>
<event>
 7    1  0.2680581E-011  0.5052888E+02  0.7816164E-02  0.1300439E+00
        -11   -1    0    0    0    0  0.00000000000E+00  0.00000000000E+00  0.45593999997E+02  0.45594000000E+02  0.51100000000E-03 0.  1.
         11   -1    0    0    0    0 -0.00000000000E+00 -0.00000000000E+00 -0.45593999997E+02  0.45594000000E+02  0.51100000000E-03 0. -1.
    9900012    2    1    2    0    0 -0.33709932569E+01 -0.39644900829E+02  0.83715029335E+01  0.50528882712E+02  0.30000069492E+02 0.  0.
         12    1    1    2    0    0  0.33709932569E+01  0.39644900829E+02 -0.83715029335E+01  0.40659117288E+02  0.00000000000E+00 0. -1.
         11    1    3    3    0    0 -0.55261509313E+01 -0.62454697032E+01 -0.10083804071E+01  0.84000635257E+01  0.51100000000E-03 0. -1.
        -11    1    3    3    0    0 -0.43859521167E+01 -0.13913607062E+00  0.68527822084E+01  0.81373557790E+01  0.51100000000E-03 0.  1.
        -12    1    3    3    0    0  0.65411097911E+01 -0.33260295055E+02  0.25271011321E+01  0.33991463407E+02  0.00000000000E+00 0.  1.
</event>
<event>
 7    1  0.2680581E-011  0.5052887E+02  0.7816164E-02  0.1300439E+00
        -11   -1    0    0    0    0  0.00000000000E+00  0.00000000000E+00  0.45593999997E+02  0.45594000000E+02  0.51100000000E-03 0.  1.
         11   -1    0    0    0    0 -0.00000000000E+00 -0.00000000000E+00 -0.45593999997E+02  0.45594000000E+02  0.51100000000E-03 0. -1.
    9900012    2    1    2    0    0 -0.31188377243E+02  0.11867490773E+02  0.23229564755E+02  0.50528869524E+02  0.30000029406E+02 0.  0.
         12    1    1    2    0    0  0.31188377243E+02 -0.11867490773E+02 -0.23229564755E+02  0.40659130476E+02  0.00000000000E+00 0. -1.
         11    1    3    3    0    0 -0.13231696801E+02  0.18206740523E+02  0.58620993138E+01  0.23257846189E+02  0.51100000000E-03 0. -1.
        -11    1    3    3    0    0 -0.51716219916E+00 -0.12830961003E+01 -0.78938353251E+00  0.15927708452E+01  0.51100000000E-03 0.  1.
        -12    1    3    3    0    0 -0.17439518243E+02 -0.50561536505E+01  0.18156848974E+02  0.25678252490E+02  0.00000000000E+00 0.  1.
</event>
<event>
 7    1  0.2680581E-011  0.5052886E+02  0.7816164E-02  0.1300439E+00
        -11   -1    0    0    0    0  0.00000000000E+00  0.00000000000E+00  0.45593999997E+02  0.45594000000E+02  0.51100000000E-03 0. -1.
         11   -1    0    0    0    0 -0.00000000000E+00 -0.00000000000E+00 -0.45593999997E+02  0.45594000000E+02  0.51100000000E-03 0.  1.
    9900012    2    1    2    0    0  0.12325536010E+02  0.38723207172E+02 -0.13266223079E+01  0.50528861564E+02  0.30000005210E+02 0.  0.
         12    1    1    2    0    0 -0.12325536010E+02 -0.38723207172E+02  0.13266223079E+01  0.40659138436E+02  0.00000000000E+00 0. -1.
         11    1    3    3    0    0 -0.27712270697E+01 -0.43216073927E+00  0.12269366879E+01  0.30613455005E+01  0.51100000000E-03 0. -1.
        -11    1    3    3    0    0  0.10546486797E+02  0.41100499339E+02 -0.18843024898E+01  0.42473874627E+02  0.51100000000E-03 0.  1.
         12    1    3    3    0    0  0.45502762831E+01 -0.19451314282E+01 -0.66925650599E+00  0.49936414365E+01  0.00000000000E+00 0. -1.
</event>
<event>
 7    1  0.2680581E-011  0.5052885E+02  0.7816164E-02  0.1300439E+00
        -11   -1    0    0    0    0  0.00000000000E+00  0.00000000000E+00  0.45593999997E+02  0.45594000000E+02  0.51100000000E-03 0.  1.
         11   -1    0    0    0    0 -0.00000000000E+00 -0.00000000000E+00 -0.45593999997E+02  0.45594000000E+02  0.51100000000E-03 0. -1.
    9900012    2    1    2    0    0  0.35478859200E+02 -0.16425004905E+02  0.11164043585E+02  0.50528854591E+02  0.29999984013E+02 0.  0.
         12    1    1    2    0    0 -0.35478859200E+02  0.16425004905E+02 -0.11164043585E+02  0.40659145409E+02  0.00000000000E+00 0. -1.
         11    1    3    3    0    0  0.29269213826E+02 -0.96849113308E+01 -0.77361903837E+00  0.30839631518E+02  0.51100000000E-03 0. -1.
        -11    1    3    3    0    0  0.92775171032E+01 -0.75593946804E+01  0.11281910198E+02  0.16446831595E+02  0.51100000000E-03 0.  1.
        -12    1    3    3    0    0 -0.30678717293E+01  0.81930110666E+00  0.65575242552E+00  0.32423914776E+01  0.00000000000E+00 0.  1.
</event>
<event>
 7    1  0.2680581E-011  0.5052885E+02  0.7816164E-02  0.1300439E+00
        -11   -1    0    0    0    0  0.00000000000E+00  0.00000000000E+00  0.45593999997E+02  0.45594000000E+02  0.51100000000E-03 0. -1.
         11   -1    0    0    0    0 -0.00000000000E+00 -0.00000000000E+00 -0.45593999997E+02  0.45594000000E+02  0.51100000000E-03 0.  1.
    9900012    2    1    2    0    0 -0.23537211765E+02 -0.22636209109E+02 -0.24223291213E+02  0.50528854194E+02  0.29999982808E+02 0.  0.
         12    1    1    2    0    0  0.23537211765E+02  0.22636209109E+02  0.24223291213E+02  0.40659145806E+02  0.00000000000E+00 0. -1.
         11    1    3    3    0    0 -0.13117493960E+02 -0.13502559388E+02  0.54368942394E+00  0.18833038955E+02  0.51100000000E-03 0. -1.
        -11    1    3    3    0    0  0.11794161448E+01 -0.80160891690E+01 -0.10932392336E+02  0.13607568132E+02  0.51100000000E-03 0.  1.
        -12    1    3    3    0    0 -0.11599133949E+02 -0.11175605520E+01 -0.13834588301E+02  0.18088247108E+02  0.00000000000E+00 0.  1.
</event>
<event>
 7    1  0.2680581E-011  0.5052885E+02  0.7816164E-02  0.1300439E+00
        -11   -1    0    0    0    0  0.00000000000E+00  0.00000000000E+00  0.45593999997E+02  0.45594000000E+02  0.51100000000E-03 0. -1.
         11   -1    0    0    0    0 -0.00000000000E+00 -0.00000000000E+00 -0.45593999997E+02  0.45594000000E+02  0.51100000000E-03 0.  1.
    9900012    2    1    2    0    0 -0.43140414308E+00 -0.32964641205E+02 -0.23797332495E+02  0.50528847116E+02  0.29999961295E+02 0.  0.
         12    1    1    2    0    0  0.43140414308E+00  0.32964641205E+02  0.23797332495E+02  0.40659152884E+02  0.00000000000E+00 0. -1.
         11    1    3    3    0    0 -0.18892086162E+01  0.15382971947E+00  0.20475688379E+01  0.27902170498E+01  0.51100000000E-03 0. -1.
        -11    1    3    3    0    0 -0.99135839925E+01 -0.15793623841E+02 -0.16904298361E+02  0.25168889625E+02  0.51100000000E-03 0.  1.
        -12    1    3    3    0    0  0.11371388466E+02 -0.17324847083E+02 -0.89406029719E+01  0.22569740442E+02  0.00000000000E+00 0.  1.
</event>
<event>
 7    1  0.2680581E-011  0.5052886E+02  0.7816164E-02  0.1300439E+00
        -11   -1    0    0    0    0  0.00000000000E+00  0.00000000000E+00  0.45593999997E+02  0.45594000000E+02  0.51100000000E-03 0.  1.
         11   -1    0    0    0    0 -0.00000000000E+00 -0.00000000000E+00 -0.45593999997E+02  0.45594000000E+02  0.51100000000E-03 0. -1.
    9900012    2    1    2    0    0 -0.17633096319E+02  0.35239914959E+02  0.10019387106E+02  0.50528858222E+02  0.29999995052E+02 0.  0.
         12    1    1    2    0    0  0.17633096319E+02 -0.35239914959E+02 -0.10019387106E+02  0.40659141778E+02  0.00000000000E+00 0. -1.
         11    1    3    3    0    0  0.21836685544E+00  0.58904844700E+01 -0.78260268825E+01  0.97975603291E+01  0.51100000000E-03 0. -1.
        -11    1    3    3    0    0 -0.26080609282E+01  0.11660042719E+02  0.11043223360E+01  0.11999087720E+02  0.51100000000E-03 0.  1.
         12    1    3    3    0    0 -0.15243402247E+02  0.17689387770E+02  0.16741091653E+02  0.28732210173E+02  0.00000000000E+00 0. -1.
</event>
<event>
 7    1  0.2680581E-011  0.5052886E+02  0.7816164E-02  0.1300439E+00
        -11   -1    0    0    0    0  0.00000000000E+00  0.00000000000E+00  0.45593999997E+02  0.45594000000E+02  0.51100000000E-03 0.  1.
         11   -1    0    0    0    0 -0.00000000000E+00 -0.00000000000E+00 -0.45593999997E+02  0.45594000000E+02  0.51100000000E-03 0. -1.
    9900012    2    1    2    0    0 -0.11433406518E+02 -0.14802088001E+02  0.36101817812E+02  0.50528857816E+02  0.29999993818E+02 0.  0.
         12    1    1    2    0    0  0.11433406518E+02  0.14802088001E+02 -0.36101817812E+02  0.40659142184E+02  0.00000000000E+00 0. -1.
         11    1    3    3    0    0 -0.63423714432E+01 -0.30671337186E+01 -0.11203632466E+01  0.71335964868E+01  0.51100000000E-03 0. -1.
        -11    1    3    3    0    0 -0.31321804314E+01 -0.17628514532E+01 -0.10918155473E+01  0.37563627289E+01  0.51100000000E-03 0.  1.
        -12    1    3    3    0    0 -0.19588546435E+01 -0.99721028292E+01  0.38313996606E+02  0.39638898601E+02  0.00000000000E+00 0.  1.
</event>
<event>
 7    1  0.2680581E-011  0.5052883E+02  0.7816164E-02  0.1300439E+00
        -11   -1    0    0    0    0  0.00000000000E+00  0.00000000000E+00  0.45593999997E+02  0.45594000000E+02  0.51100000000E-03 0. -1.
         11   -1    0    0    0    0 -0.00000000000E+00 -0.00000000000E+00 -0.45593999997E+02  0.45594000000E+02  0.51100000000E-03 0.  1.
    9900012    2    1    2    0    0 -0.30285842402E+02  0.18412145973E+02 -0.19923072638E+02  0.50528828923E+02  0.29999905995E+02 0.  0.
         12    1    1    2    0    0  0.30285842402E+02 -0.18412145973E+02  0.19923072638E+02  0.40659171077E+02  0.00000000000E+00 0. -1.
         11    1    3    3    0    0  0.19647803257E+01 -0.48939227252E+00  0.13111107042E+01  0.24122350766E+01  0.51100000000E-03 0. -1.
        -11    1    3    3    0    0 -0.28686725599E+02  0.16837376535E+02 -0.25705122367E+02  0.42037825709E+02  0.51100000000E-03 0.  1.
         12    1    3    3    0    0 -0.35638971285E+01  0.20641617104E+01  0.44709390246E+01  0.60787681376E+01  0.00000000000E+00 0. -1.
</event>
<event>
 7    1  0.2680581E-011  0.5052887E+02  0.7816164E-02  0.1300439E+00
        -11   -1    0    0    0    0  0.00000000000E+00  0.00000000000E+00  0.45593999997E+02  0.45594000000E+02  0.51100000000E-03 0. -1.
         11   -1    0    0    0    0 -0.00000000000E+00 -0.00000000000E+00 -0.45593999997E+02  0.45594000000E+02  0.51100000000E-03 0.  1.
    9900012    2    1    2    0    0 -0.11179906627E+02 -0.38187937722E+02 -0.83579911804E+01  0.50528869214E+02  0.30000028464E+02 0.  0.
         12    1    1    2    0    0  0.11179906627E+02  0.38187937722E+02  0.83579911804E+01  0.40659130786E+02  0.00000000000E+00 0. -1.
         11    1    3    3    0    0  0.57636283618E+00 -0.27723913014E+02  0.41177133675E+01  0.28033963519E+02  0.51100000000E-03 0. -1.
        -11    1    3    3    0    0  0.18164969626E+01 -0.62105784035E+00 -0.17023067498E+01  0.25657791386E+01  0.51100000000E-03 0.  1.
        -12    1    3    3    0    0 -0.13572766426E+02 -0.98429668675E+01 -0.10773397798E+02  0.19929126557E+02  0.00000000000E+00 0.  1.
</event>
<event>
 7    1  0.2680581E-011  0.5052887E+02  0.7816164E-02  0.1300439E+00
        -11   -1    0    0    0    0  0.00000000000E+00  0.00000000000E+00  0.45593999997E+02  0.45594000000E+02  0.51100000000E-03 0.  1.
         11   -1    0    0    0    0 -0.00000000000E+00 -0.00000000000E+00 -0.45593999997E+02  0.45594000000E+02  0.51100000000E-03 0. -1.
    9900012    2    1    2    0    0  0.12182682847E+02  0.31105412856E+02 -0.23177578545E+02  0.50528872888E+02  0.30000039631E+02 0.  0.
         12    1    1    2    0    0 -0.12182682847E+02 -0.31105412856E+02  0.23177578545E+02  0.40659127112E+02  0.00000000000E+00 0. -1.
         11    1    3    3    0    0 -0.69239168281E+01  0.27560374949E+01 -0.38361715897E+01  0.83816811943E+01  0.51100000000E-03 0. -1.
        -11    1    3    3    0    0  0.29328160739E+01  0.63180585814E+01 -0.11954451524E+02  0.13835757510E+02  0.51100000000E-03 0.  1.
        -12    1    3    3    0    0  0.16173783601E+02  0.22031316780E+02 -0.73869554312E+01  0.28311434184E+02  0.00000000000E+00 0.  1.
</event>
<event>
 7    1  0.2680581E-011  0.5052887E+02  0.7816164E-02  0.1300439E+00
        -11   -1    0    0    0    0  0.00000000000E+00  0.00000000000E+00  0.45593999997E+02  0.45594000000E+02  0.51100000000E-03 0. -1.
         11   -1    0    0    0    0 -0.00000000000E+00 -0.00000000000E+00 -0.45593999997E+02  0.45594000000E+02  0.51100000000E-03 0.  1.
    9900012    2    1    2    0    0  0.44281498455E+01  0.40101058222E+02  0.50459674260E+01  0.50528866108E+02  0.30000019021E+02 0.  0.
         12    1    1    2    0    0 -0.44281498455E+01 -0.40101058222E+02 -0.50459674260E+01  0.40659133892E+02  0.00000000000E+00 0. -1.
         11    1    3    3    0    0 -0.97920717225E+01  0.12129134836E+02  0.29222167093E+01  0.15860010443E+02  0.51100000000E-03 0. -1.
        -11    1    3    3    0    0  0.34592827579E+01  0.16949696101E+02 -0.45403458642E+01  0.17885009811E+02  0.51100000000E-03 0.  1.
         12    1    3    3    0    0  0.10760938810E+02  0.11022227285E+02  0.66640965809E+01  0.16783845853E+02  0.00000000000E+00 0. -1.
</event>
<event>
 7    1  0.2680581E-011  0.5052886E+02  0.7816164E-02  0.1300439E+00
        -11   -1    0    0    0    0  0.00000000000E+00  0.00000000000E+00  0.45593999997E+02  0.45594000000E+02  0.51100000000E-03 0.  1.
         11   -1    0    0    0    0 -0.00000000000E+00 -0.00000000000E+00 -0.45593999997E+02  0.45594000000E+02  0.51100000000E-03 0. -1.
    9900012    2    1    2    0    0 -0.10188641015E+02 -0.15524267398E+01  0.39331252023E+02  0.50528858098E+02  0.29999994675E+02 0.  0.
         12    1    1    2    0    0  0.10188641015E+02  0.15524267398E+01 -0.39331252023E+02  0.40659141902E+02  0.00000000000E+00 0. -1.
         11    1    3    3    0    0 -0.51889824008E+01  0.17410284834E+01 -0.15124549117E+01  0.56784010652E+01  0.51100000000E-03 0. -1.
        -11    1    3    3    0    0 -0.89721135795E+00 -0.61598642653E+01  0.34374680390E+01  0.71109143412E+01  0.51100000000E-03 0.  1.
        -12    1    3    3    0    0 -0.41024472567E+01  0.28664090421E+01  0.37406238895E+02  0.37739542692E+02  0.00000000000E+00 0.  1.
</event>
<event>
 7    1  0.2680581E-011  0.5052886E+02  0.7816164E-02  0.1300439E+00
        -11   -1    0    0    0    0  0.00000000000E+00  0.00000000000E+00  0.45593999997E+02  0.45594000000E+02  0.51100000000E-03 0.  1.
         11   -1    0    0    0    0 -0.00000000000E+00 -0.00000000000E+00 -0.45593999997E+02  0.45594000000E+02  0.51100000000E-03 0. -1.
    9900012    2    1    2    0    0 -0.21651021589E+02 -0.20994132880E+02  0.27269859121E+02  0.50528861203E+02  0.30000004112E+02 0.  0.
         12    1    1    2    0    0  0.21651021589E+02  0.20994132880E+02 -0.27269859121E+02  0.40659138797E+02  0.00000000000E+00 0. -1.
         11    1    3    3    0    0 -0.67849246650E+00  0.77097345307E+00 -0.14222837699E+01  0.17543213719E+01  0.51100000000E-03 0. -1.
        -11    1    3    3    0    0  0.31620014531E+01 -0.86874356487E+01  0.16119092028E+02  0.18582112889E+02  0.51100000000E-03 0.  1.
         12    1    3    3    0    0 -0.24134530576E+02 -0.13077670684E+02  0.12573050863E+02  0.30192426942E+02  0.00000000000E+00 0. -1.
</event>
<event>
 7    1  0.2680581E-011  0.5052886E+02  0.7816164E-02  0.1300439E+00
        -11   -1    0    0    0    0  0.00000000000E+00  0.00000000000E+00  0.45593999997E+02  0.45594000000E+02  0.51100000000E-03 0. -1.
         11   -1    0    0    0    0 -0.00000000000E+00 -0.00000000000E+00 -0.45593999997E+02  0.45594000000E+02  0.51100000000E-03 0.  1.
    9900012    2    1    2    0    0 -0.82544195405E+01 -0.13394511028E+02 -0.37491558185E+02  0.50528864461E+02  0.30000014016E+02 0.  0.
         12    1    1    2    0    0  0.82544195405E+01  0.13394511028E+02  0.37491558185E+02  0.40659135539E+02  0.00000000000E+00 0. -1.
         11    1    3    3    0    0 -0.57291103534E+01 -0.16240486531E+01 -0.47259380615E+01  0.76022845442E+01  0.51100000000E-03 0. -1.
        -11    1    3    3    0    0  0.40058106651E+01 -0.80548328910E+01 -0.34124735698E+02  0.35290571527E+02  0.51100000000E-03 0.  1.
         12    1    3    3    0    0 -0.65311198521E+01 -0.37156294836E+01  0.13591155744E+01  0.76360083896E+01  0.00000000000E+00 0. -1.
</event>
<event>
 7    1  0.2680581E-011  0.5052886E+02  0.7816164E-02  0.1300439E+00
        -11   -1    0    0    0    0  0.00000000000E+00  0.00000000000E+00  0.45593999997E+02  0.45594000000E+02  0.51100000000E-03 0.  1.
         11   -1    0    0    0    0 -0.00000000000E+00 -0.00000000000E+00 -0.45593999997E+02  0.45594000000E+02  0.51100000000E-03 0. -1.
    9900012    2    1    2    0    0 -0.54831841818E+01 -0.13750849956E+02  0.37868384149E+02  0.50528859559E+02  0.29999999117E+02 0.  0.
         12    1    1    2    0    0  0.54831841818E+01  0.13750849956E+02 -0.37868384149E+02  0.40659140441E+02  0.00000000000E+00 0. -1.
         11    1    3    3    0    0 -0.87317968125E+01 -0.80503586458E+00  0.91218182526E+01  0.12653059978E+02  0.51100000000E-03 0. -1.
        -11    1    3    3    0    0 -0.49162611471E+01 -0.14825528862E+02  0.22652515133E+02  0.27515493305E+02  0.51100000000E-03 0.  1.
         12    1    3    3    0    0  0.81648737778E+01  0.18797147708E+01  0.60940507638E+01  0.10360306276E+02  0.00000000000E+00 0. -1.
</event>
<event>
 7    1  0.2680581E-011  0.5052892E+02  0.7816164E-02  0.1300439E+00
        -11   -1    0    0    0    0  0.00000000000E+00  0.00000000000E+00  0.45593999997E+02  0.45594000000E+02  0.51100000000E-03 0.  1.
         11   -1    0    0    0    0 -0.00000000000E+00 -0.00000000000E+00 -0.45593999997E+02  0.45594000000E+02  0.51100000000E-03 0. -1.
    9900012    2    1    2    0    0 -0.94124668274E+01  0.37805810955E+02  0.11631302415E+02  0.50528916518E+02  0.30000172246E+02 0.  0.
         12    1    1    2    0    0  0.94124668274E+01 -0.37805810955E+02 -0.11631302415E+02  0.40659083482E+02  0.00000000000E+00 0. -1.
         11    1    3    3    0    0 -0.74243799636E+01  0.33300896586E+01 -0.26947943754E+01  0.85716294813E+01  0.51100000000E-03 0. -1.
        -11    1    3    3    0    0 -0.74192707763E+01  0.74036360751E+01  0.90465555248E+01  0.13845561495E+02  0.51100000000E-03 0.  1.
        -12    1    3    3    0    0  0.54311839125E+01  0.27072085222E+02  0.52795412652E+01  0.28111725541E+02  0.00000000000E+00 0.  1.
</event>
<event>
 7    1  0.2680581E-011  0.5052890E+02  0.7816164E-02  0.1300439E+00
        -11   -1    0    0    0    0  0.00000000000E+00  0.00000000000E+00  0.45593999997E+02  0.45594000000E+02  0.51100000000E-03 0. -1.
         11   -1    0    0    0    0 -0.00000000000E+00 -0.00000000000E+00 -0.45593999997E+02  0.45594000000E+02  0.51100000000E-03 0.  1.
    9900012    2    1    2    0    0 -0.39761872892E+02 -0.76054955275E+01 -0.37831454021E+01  0.50528901544E+02  0.30000126732E+02 0.  0.
         12    1    1    2    0    0  0.39761872892E+02  0.76054955275E+01  0.37831454021E+01  0.40659098456E+02  0.00000000000E+00 0. -1.
         11    1    3    3    0    0 -0.10454208495E+02  0.79760640498E+01 -0.27869271122E+01  0.13441541428E+02  0.51100000000E-03 0. -1.
        -11    1    3    3    0    0 -0.16526779997E+02 -0.20192591935E+01 -0.61548775877E+01  0.17750898094E+02  0.51100000000E-03 0.  1.
         12    1    3    3    0    0 -0.12780884401E+02 -0.13562300384E+02  0.51586592977E+01  0.19336462022E+02  0.00000000000E+00 0. -1.
</event>
<event>
 7    1  0.2680581E-011  0.5052886E+02  0.7816164E-02  0.1300439E+00
        -11   -1    0    0    0    0  0.00000000000E+00  0.00000000000E+00  0.45593999997E+02  0.45594000000E+02  0.51100000000E-03 0. -1.
         11   -1    0    0    0    0 -0.00000000000E+00 -0.00000000000E+00 -0.45593999997E+02  0.45594000000E+02  0.51100000000E-03 0.  1.
    9900012    2    1    2    0    0 -0.35096196360E+02 -0.80670995961E+01  0.18877098912E+02  0.50528856401E+02  0.29999989517E+02 0.  0.
         12    1    1    2    0    0  0.35096196360E+02  0.80670995961E+01 -0.18877098912E+02  0.40659143599E+02  0.00000000000E+00 0. -1.
         11    1    3    3    0    0 -0.75080601826E+00  0.22099668773E+01 -0.15010956080E+01  0.27750588393E+01  0.51100000000E-03 0. -1.
        -11    1    3    3    0    0 -0.35867719526E+02 -0.80706039351E+01  0.11562949569E+02  0.38539976062E+02  0.51100000000E-03 0.  1.
         12    1    3    3    0    0  0.15223291845E+01 -0.22064625384E+01  0.88152449511E+01  0.92138214996E+01  0.00000000000E+00 0. -1.
</event>
<event>
 7    1  0.2680581E-011  0.5052886E+02  0.7816164E-02  0.1300439E+00
        -11   -1    0    0    0    0  0.00000000000E+00  0.00000000000E+00  0.45593999997E+02  0.45594000000E+02  0.51100000000E-03 0.  1.
         11   -1    0    0    0    0 -0.00000000000E+00 -0.00000000000E+00 -0.45593999997E+02  0.45594000000E+02  0.51100000000E-03 0. -1.
    9900012    2    1    2    0    0 -0.28305237833E+02  0.86933322514E+01  0.27864047785E+02  0.50528859904E+02  0.30000000164E+02 0.  0.
         12    1    1    2    0    0  0.28305237833E+02 -0.86933322514E+01 -0.27864047785E+02  0.40659140096E+02  0.00000000000E+00 0. -1.
         11    1    3    3    0    0 -0.88849135169E+01 -0.40637824407E+01 -0.23965182600E+00  0.97730982389E+01  0.51100000000E-03 0. -1.
        -11    1    3    3    0    0 -0.12416618542E+02  0.10489061533E+02  0.57826119355E+01  0.17251997824E+02  0.51100000000E-03 0.  1.
         12    1    3    3    0    0 -0.70037057740E+01  0.22680531592E+01  0.22321087675E+02  0.23503763841E+02  0.00000000000E+00 0. -1.
</event>
<event>
 7    1  0.2680581E-011  0.5052887E+02  0.7816164E-02  0.1300439E+00
        -11   -1    0    0    0    0  0.00000000000E+00  0.00000000000E+00  0.45593999997E+02  0.45594000000E+02  0.51100000000E-03 0.  1.
         11   -1    0    0    0    0 -0.00000000000E+00 -0.00000000000E+00 -0.45593999997E+02  0.45594000000E+02  0.51100000000E-03 0. -1.
    9900012    2    1    2    0    0 -0.19928048183E+02  0.17990196599E+02  0.30535065597E+02  0.50528874222E+02  0.30000043685E+02 0.  0.
         12    1    1    2    0    0  0.19928048183E+02 -0.17990196599E+02 -0.30535065597E+02  0.40659125778E+02  0.00000000000E+00 0. -1.
         11    1    3    3    0    0  0.66031474652E+00  0.32099736383E+00 -0.80773026341E+00  0.10915508745E+01  0.51100000000E-03 0. -1.
        -11    1    3    3    0    0 -0.17409212688E+02  0.22471998778E+02  0.32891333521E+02  0.43473109350E+02  0.51100000000E-03 0.  1.
         12    1    3    3    0    0 -0.31791502416E+01 -0.48027995437E+01 -0.15485376615E+01  0.59642139972E+01  0.00000000000E+00 0. -1.
</event>
<event>
 7    1  0.2680581E-011  0.5052886E+02  0.7816164E-02  0.1300439E+00
        -11   -1    0    0    0    0  0.00000000000E+00  0.00000000000E+00  0.45593999997E+02  0.45594000000E+02  0.51100000000E-03 0.  1.
         11   -1    0    0    0    0 -0.00000000000E+00 -0.00000000000E+00 -0.45593999997E+02  0.45594000000E+02  0.51100000000E-03 0. -1.
    9900012    2    1    2    0    0  0.33818954900E+02 -0.90954072826E+01  0.20657139902E+02  0.50528861137E+02  0.30000003911E+02 0.  0.
         12    1    1    2    0    0 -0.33818954900E+02  0.90954072826E+01 -0.20657139902E+02  0.40659138863E+02  0.00000000000E+00 0. -1.
         11    1    3    3    0    0 -0.16804302747E+01 -0.23040302135E+01  0.59848500029E+01  0.66295422882E+01  0.51100000000E-03 0. -1.
        -11    1    3    3    0    0  0.23594775787E+01 -0.43959815385E+01 -0.34369235393E+01  0.60584017536E+01  0.51100000000E-03 0.  1.
        -12    1    3    3    0    0  0.33139907596E+02 -0.23953955307E+01  0.18109213438E+02  0.37840917095E+02  0.00000000000E+00 0.  1.
</event>
<event>
 7    1  0.2680581E-011  0.5052886E+02  0.7816164E-02  0.1300439E+00
        -11   -1    0    0    0    0  0.00000000000E+00  0.00000000000E+00  0.45593999997E+02  0.45594000000E+02  0.51100000000E-03 0.  1.
         11   -1    0    0    0    0 -0.00000000000E+00 -0.00000000000E+00 -0.45593999997E+02  0.45594000000E+02  0.51100000000E-03 0. -1.
    9900012    2    1    2    0    0 -0.32223774921E+02 -0.28732851289E+01  0.24627997776E+02  0.50528859428E+02  0.29999998716E+02 0.  0.
         12    1    1    2    0    0  0.32223774921E+02  0.28732851289E+01 -0.24627997776E+02  0.40659140572E+02  0.00000000000E+00 0. -1.
         11    1    3    3    0    0  0.11404146760E+01  0.17813727914E+01 -0.22660721225E+01  0.30998254435E+01  0.51100000000E-03 0. -1.
        -11    1    3    3    0    0 -0.21842415372E+02  0.32472629133E+01  0.70898242498E+01  0.23192702168E+02  0.51100000000E-03 0.  1.
         12    1    3    3    0    0 -0.11521774225E+02 -0.79019208336E+01  0.19804245649E+02  0.24236331816E+02  0.00000000000E+00 0. -1.
</event>
<event>
 7    1  0.2680581E-011  0.5052881E+02  0.7816164E-02  0.1300439E+00
        -11   -1    0    0    0    0  0.00000000000E+00  0.00000000000E+00  0.45593999997E+02  0.45594000000E+02  0.51100000000E-03 0.  1.
         11   -1    0    0    0    0 -0.00000000000E+00 -0.00000000000E+00 -0.45593999997E+02  0.45594000000E+02  0.51100000000E-03 0. -1.
    9900012    2    1    2    0    0 -0.11109104792E+02  0.50445182286E+01  0.38785439634E+02  0.50528810374E+02  0.29999849612E+02 0.  0.
         12    1    1    2    0    0  0.11109104792E+02 -0.50445182286E+01 -0.38785439634E+02  0.40659189626E+02  0.00000000000E+00 0. -1.
         11    1    3    3    0    0  0.18771536545E+01  0.75253538750E+01  0.79226235555E+01  0.11087047445E+02  0.51100000000E-03 0. -1.
        -11    1    3    3    0    0 -0.38520595715E+01 -0.11088643456E+02  0.17836961979E+02  0.21353069792E+02  0.51100000000E-03 0.  1.
         12    1    3    3    0    0 -0.91341988754E+01  0.86078078093E+01  0.13025854100E+02  0.18088693137E+02  0.00000000000E+00 0. -1.
</event>
<event>
 7    1  0.2680581E-011  0.5052887E+02  0.7816164E-02  0.1300439E+00
        -11   -1    0    0    0    0  0.00000000000E+00  0.00000000000E+00  0.45593999997E+02  0.45594000000E+02  0.51100000000E-03 0. -1.
         11   -1    0    0    0    0 -0.00000000000E+00 -0.00000000000E+00 -0.45593999997E+02  0.45594000000E+02  0.51100000000E-03 0.  1.
    9900012    2    1    2    0    0 -0.36296813674E+02 -0.80348901169E+01 -0.16466540702E+02  0.50528866896E+02  0.30000021417E+02 0.  0.
         12    1    1    2    0    0  0.36296813674E+02  0.80348901169E+01  0.16466540702E+02  0.40659133104E+02  0.00000000000E+00 0. -1.
         11    1    3    3    0    0 -0.26784216093E+01  0.33630029919E+01 -0.11595238069E+02  0.12366619489E+02  0.51100000000E-03 0. -1.
        -11    1    3    3    0    0  0.10202997975E+01  0.54783873474E+00 -0.50119263406E+00  0.12618768853E+01  0.51100000000E-03 0.  1.
        -12    1    3    3    0    0 -0.34638691863E+02 -0.11945731843E+02 -0.43701099981E+01  0.36900370522E+02  0.00000000000E+00 0.  1.
</event>
<event>
 7    1  0.2680581E-011  0.5052886E+02  0.7816164E-02  0.1300439E+00
        -11   -1    0    0    0    0  0.00000000000E+00  0.00000000000E+00  0.45593999997E+02  0.45594000000E+02  0.51100000000E-03 0. -1.
         11   -1    0    0    0    0 -0.00000000000E+00 -0.00000000000E+00 -0.45593999997E+02  0.45594000000E+02  0.51100000000E-03 0.  1.
    9900012    2    1    2    0    0 -0.20058314813E+02  0.14228100732E+02 -0.32378867078E+02  0.50528857402E+02  0.29999992559E+02 0.  0.
         12    1    1    2    0    0  0.20058314813E+02 -0.14228100732E+02  0.32378867078E+02  0.40659142598E+02  0.00000000000E+00 0. -1.
         11    1    3    3    0    0 -0.16278469110E+02 -0.53934462406E+01 -0.15931991854E+02  0.23407395917E+02  0.51100000000E-03 0.  1.
        -11    1    3    3    0    0  0.26073087170E+00  0.26807499437E+01  0.59094745875E+00  0.27574662298E+01  0.51100000000E-03 0. -1.
        -12    1    3    3    0    0 -0.40405765740E+01  0.16940797029E+02 -0.17037822683E+02  0.24363995255E+02  0.00000000000E+00 0.  1.
</event>
<event>
 7    1  0.2680581E-011  0.5052886E+02  0.7816164E-02  0.1300439E+00
        -11   -1    0    0    0    0  0.00000000000E+00  0.00000000000E+00  0.45593999997E+02  0.45594000000E+02  0.51100000000E-03 0.  1.
         11   -1    0    0    0    0 -0.00000000000E+00 -0.00000000000E+00 -0.45593999997E+02  0.45594000000E+02  0.51100000000E-03 0. -1.
    9900012    2    1    2    0    0 -0.19468627866E+02 -0.29947318361E+02  0.19424127018E+02  0.50528855169E+02  0.29999985770E+02 0.  0.
         12    1    1    2    0    0  0.19468627866E+02  0.29947318361E+02 -0.19424127018E+02  0.40659144831E+02  0.00000000000E+00 0. -1.
         11    1    3    3    0    0 -0.20282968621E+01 -0.47369921722E+00  0.96270596391E+01  0.98498049049E+01  0.51100000000E-03 0. -1.
        -11    1    3    3    0    0  0.39892613793E+00 -0.18148571741E+02  0.65610043336E+01  0.19302242783E+02  0.51100000000E-03 0.  1.
         12    1    3    3    0    0 -0.17839257142E+02 -0.11325047402E+02  0.32360630457E+01  0.21376807481E+02  0.00000000000E+00 0. -1.
</event>
<event>
 7    1  0.2680581E-011  0.5052879E+02  0.7816164E-02  0.1300439E+00
        -11   -1    0    0    0    0  0.00000000000E+00  0.00000000000E+00  0.45593999997E+02  0.45594000000E+02  0.51100000000E-03 0. -1.
         11   -1    0    0    0    0 -0.00000000000E+00 -0.00000000000E+00 -0.45593999997E+02  0.45594000000E+02  0.51100000000E-03 0.  1.
    9900012    2    1    2    0    0  0.39781560156E+02 -0.84021373272E+01  0.52965736421E-01  0.50528791381E+02  0.29999791882E+02 0.  0.
         12    1    1    2    0    0 -0.39781560156E+02  0.84021373272E+01 -0.52965736421E-01  0.40659208619E+02  0.00000000000E+00 0. -1.
         11    1    3    3    0    0  0.13969839399E+01 -0.24100401851E+01 -0.67272510273E+01  0.72811925169E+01  0.51100000000E-03 0. -1.
        -11    1    3    3    0    0  0.21559264953E+02 -0.73388889611E+01 -0.41352817663E+01  0.23146527862E+02  0.51100000000E-03 0.  1.
         12    1    3    3    0    0  0.16825311263E+02  0.13467918191E+01  0.10915498530E+02  0.20101071003E+02  0.00000000000E+00 0. -1.
</event>
<event>
 7    1  0.2680581E-011  0.5052889E+02  0.7816164E-02  0.1300439E+00
        -11   -1    0    0    0    0  0.00000000000E+00  0.00000000000E+00  0.45593999997E+02  0.45594000000E+02  0.51100000000E-03 0.  1.
         11   -1    0    0    0    0 -0.00000000000E+00 -0.00000000000E+00 -0.45593999997E+02  0.45594000000E+02  0.51100000000E-03 0. -1.
    9900012    2    1    2    0    0  0.29814839414E+02  0.27552646314E+02  0.22561703319E+01  0.50528889425E+02  0.30000089896E+02 0.  0.
         12    1    1    2    0    0 -0.29814839414E+02 -0.27552646314E+02 -0.22561703319E+01  0.40659110575E+02  0.00000000000E+00 0. -1.
         11    1    3    3    0    0 -0.27423739013E+01  0.64297469592E+01  0.24327500673E+01  0.74013872838E+01  0.51100000000E-03 0. -1.
        -11    1    3    3    0    0  0.18337654539E+02  0.21976609262E+02  0.21097275429E+01  0.28700032739E+02  0.51100000000E-03 0.  1.
         12    1    3    3    0    0  0.14219558776E+02 -0.85370990705E+00 -0.22863072783E+01  0.14427469403E+02  0.00000000000E+00 0. -1.
</event>
<event>
 7    1  0.2680581E-011  0.5052889E+02  0.7816164E-02  0.1300439E+00
        -11   -1    0    0    0    0  0.00000000000E+00  0.00000000000E+00  0.45593999997E+02  0.45594000000E+02  0.51100000000E-03 0.  1.
         11   -1    0    0    0    0 -0.00000000000E+00 -0.00000000000E+00 -0.45593999997E+02  0.45594000000E+02  0.51100000000E-03 0. -1.
    9900012    2    1    2    0    0 -0.86544150665E+01  0.39614888014E+02  0.29875051081E+01  0.50528887377E+02  0.30000083672E+02 0.  0.
         12    1    1    2    0    0  0.86544150665E+01 -0.39614888014E+02 -0.29875051081E+01  0.40659112623E+02  0.00000000000E+00 0. -1.
         11    1    3    3    0    0 -0.11451008191E+02  0.17398945280E+02 -0.88793794260E+01  0.22642708864E+02  0.51100000000E-03 0. -1.
        -11    1    3    3    0    0 -0.31964295796E+00 -0.33253148135E+00  0.36602631929E+01  0.36892107162E+01  0.51100000000E-03 0.  1.
        -12    1    3    3    0    0  0.31162360822E+01  0.22548474215E+02  0.82066213412E+01  0.24196967797E+02  0.00000000000E+00 0.  1.
</event>
<event>
 7    1  0.2680581E-011  0.5052886E+02  0.7816164E-02  0.1300439E+00
        -11   -1    0    0    0    0  0.00000000000E+00  0.00000000000E+00  0.45593999997E+02  0.45594000000E+02  0.51100000000E-03 0. -1.
         11   -1    0    0    0    0 -0.00000000000E+00 -0.00000000000E+00 -0.45593999997E+02  0.45594000000E+02  0.51100000000E-03 0.  1.
    9900012    2    1    2    0    0 -0.24204242763E+02 -0.19656194129E+02 -0.26095099116E+02  0.50528861627E+02  0.30000005400E+02 0.  0.
         12    1    1    2    0    0  0.24204242763E+02  0.19656194129E+02  0.26095099116E+02  0.40659138373E+02  0.00000000000E+00 0. -1.
         11    1    3    3    0    0 -0.11351623910E+02 -0.48980239879E+01 -0.41322625302E+00  0.12370156045E+02  0.51100000000E-03 0. -1.
        -11    1    3    3    0    0 -0.14449335910E+02 -0.24697214037E+01 -0.19253560095E+02  0.24198810067E+02  0.51100000000E-03 0.  1.
        -12    1    3    3    0    0  0.15967170570E+01 -0.12288448738E+02 -0.64283127677E+01  0.13959895515E+02  0.00000000000E+00 0.  1.
</event>
<event>
 7    1  0.2680581E-011  0.5052886E+02  0.7816164E-02  0.1300439E+00
        -11   -1    0    0    0    0  0.00000000000E+00  0.00000000000E+00  0.45593999997E+02  0.45594000000E+02  0.51100000000E-03 0. -1.
         11   -1    0    0    0    0 -0.00000000000E+00 -0.00000000000E+00 -0.45593999997E+02  0.45594000000E+02  0.51100000000E-03 0.  1.
    9900012    2    1    2    0    0 -0.28236752102E+02 -0.24540487898E+02 -0.15925317003E+02  0.50528862808E+02  0.30000008990E+02 0.  0.
         12    1    1    2    0    0  0.28236752102E+02  0.24540487898E+02  0.15925317003E+02  0.40659137192E+02  0.00000000000E+00 0. -1.
         11    1    3    3    0    0 -0.26837551891E+01 -0.14278841488E+02  0.25731928330E-01  0.14528885661E+02  0.51100000000E-03 0. -1.
        -11    1    3    3    0    0 -0.39018198979E+00 -0.47250965787E+01 -0.75219493029E+01  0.88914847601E+01  0.51100000000E-03 0.  1.
         12    1    3    3    0    0 -0.25162814924E+02 -0.55365498313E+01 -0.84290996282E+01  0.27108492386E+02  0.00000000000E+00 0. -1.
</event>
<event>
 7    1  0.2680581E-011  0.5052885E+02  0.7816164E-02  0.1300439E+00
        -11   -1    0    0    0    0  0.00000000000E+00  0.00000000000E+00  0.45593999997E+02  0.45594000000E+02  0.51100000000E-03 0.  1.
         11   -1    0    0    0    0 -0.00000000000E+00 -0.00000000000E+00 -0.45593999997E+02  0.45594000000E+02  0.51100000000E-03 0. -1.
    9900012    2    1    2    0    0  0.11204470887E+02 -0.30992362917E+02  0.23813852129E+02  0.50528852440E+02  0.29999977478E+02 0.  0.
         12    1    1    2    0    0 -0.11204470887E+02  0.30992362917E+02 -0.23813852129E+02  0.40659147560E+02  0.00000000000E+00 0. -1.
         11    1    3    3    0    0  0.40359098798E+01 -0.84428472686E+00  0.76859468946E+01  0.87221078407E+01  0.51100000000E-03 0.  1.
        -11    1    3    3    0    0  0.46597360493E+00 -0.16414897196E+02  0.20160453641E+02  0.26002112850E+02  0.51100000000E-03 0. -1.
        -12    1    3    3    0    0  0.67025874026E+01 -0.13733180994E+02 -0.40325484067E+01  0.15804631750E+02  0.00000000000E+00 0.  1.
</event>
<event>
 7    1  0.2680581E-011  0.5052885E+02  0.7816164E-02  0.1300439E+00
        -11   -1    0    0    0    0  0.00000000000E+00  0.00000000000E+00  0.45593999997E+02  0.45594000000E+02  0.51100000000E-03 0. -1.
         11   -1    0    0    0    0 -0.00000000000E+00 -0.00000000000E+00 -0.45593999997E+02  0.45594000000E+02  0.51100000000E-03 0.  1.
    9900012    2    1    2    0    0  0.11764321259E+02 -0.38904684071E+02 -0.10922133504E+01  0.50528848173E+02  0.29999964506E+02 0.  0.
         12    1    1    2    0    0 -0.11764321259E+02  0.38904684071E+02  0.10922133504E+01  0.40659151827E+02  0.00000000000E+00 0. -1.
         11    1    3    3    0    0  0.15538250956E+02 -0.11810769323E+02 -0.64469688070E+01  0.20554681263E+02  0.51100000000E-03 0. -1.
        -11    1    3    3    0    0 -0.13042949144E+01  0.19046297385E+00  0.19694905664E+01  0.23698849594E+01  0.51100000000E-03 0.  1.
        -12    1    3    3    0    0 -0.24696347829E+01 -0.27284377722E+02  0.33852648901E+01  0.27604281950E+02  0.00000000000E+00 0.  1.
</event>
<event>
 7    1  0.2680581E-011  0.5052886E+02  0.7816164E-02  0.1300439E+00
        -11   -1    0    0    0    0  0.00000000000E+00  0.00000000000E+00  0.45593999997E+02  0.45594000000E+02  0.51100000000E-03 0.  1.
         11   -1    0    0    0    0 -0.00000000000E+00 -0.00000000000E+00 -0.45593999997E+02  0.45594000000E+02  0.51100000000E-03 0. -1.
    9900012    2    1    2    0    0  0.28259415343E+02  0.57114918752E+01  0.28669672269E+02  0.50528858310E+02  0.29999995318E+02 0.  0.
         12    1    1    2    0    0 -0.28259415343E+02 -0.57114918752E+01 -0.28669672269E+02  0.40659141690E+02  0.00000000000E+00 0. -1.
         11    1    3    3    0    0  0.18890578728E+02 -0.18894887466E+01  0.44291031024E+01  0.19494642520E+02  0.51100000000E-03 0. -1.
        -11    1    3    3    0    0  0.12633392985E+02  0.38763534769E+01  0.12081281243E+02  0.17904918076E+02  0.51100000000E-03 0.  1.
         12    1    3    3    0    0 -0.32645563695E+01  0.37246271449E+01  0.12159287923E+02  0.13129297714E+02  0.00000000000E+00 0. -1.
</event>
<event>
 7    1  0.2680581E-011  0.5052887E+02  0.7816164E-02  0.1300439E+00
        -11   -1    0    0    0    0  0.00000000000E+00  0.00000000000E+00  0.45593999997E+02  0.45594000000E+02  0.51100000000E-03 0.  1.
         11   -1    0    0    0    0 -0.00000000000E+00 -0.00000000000E+00 -0.45593999997E+02  0.45594000000E+02  0.51100000000E-03 0. -1.
    9900012    2    1    2    0    0 -0.32807318374E+02  0.21954469088E+02  0.97388893252E+01  0.50528870434E+02  0.30000032170E+02 0.  0.
         12    1    1    2    0    0  0.32807318374E+02 -0.21954469088E+02 -0.97388893252E+01  0.40659129566E+02  0.00000000000E+00 0. -1.
         11    1    3    3    0    0 -0.18983173555E+02  0.55086129125E+01 -0.15575744888E+01  0.19827549849E+02  0.51100000000E-03 0.  1.
        -11    1    3    3    0    0 -0.70308690833E+01  0.10934932931E+02 -0.35440110055E+01  0.13474638865E+02  0.51100000000E-03 0. -1.
        -12    1    3    3    0    0 -0.67932757352E+01  0.55109232447E+01  0.14840474819E+02  0.17226681720E+02  0.00000000000E+00 0.  1.
</event>
<event>
 7    1  0.2680581E-011  0.5052885E+02  0.7816164E-02  0.1300439E+00
        -11   -1    0    0    0    0  0.00000000000E+00  0.00000000000E+00  0.45593999997E+02  0.45594000000E+02  0.51100000000E-03 0.  1.
         11   -1    0    0    0    0 -0.00000000000E+00 -0.00000000000E+00 -0.45593999997E+02  0.45594000000E+02  0.51100000000E-03 0. -1.
    9900012    2    1    2    0    0 -0.94258019797E+01  0.21735709247E+01  0.39491720083E+02  0.50528854551E+02  0.29999983894E+02 0.  0.
         12    1    1    2    0    0  0.94258019797E+01 -0.21735709247E+01 -0.39491720083E+02  0.40659145449E+02  0.00000000000E+00 0. -1.
         11    1    3    3    0    0  0.17960238410E+01  0.20049292709E+01  0.82480319909E+01  0.86761440170E+01  0.51100000000E-03 0. -1.
        -11    1    3    3    0    0 -0.17251305666E+02 -0.25069715427E+01  0.30609943968E+02  0.35225858733E+02  0.51100000000E-03 0.  1.
         12    1    3    3    0    0  0.60294798451E+01  0.26756131966E+01  0.63374412405E+00  0.66268518012E+01  0.00000000000E+00 0. -1.
</event>
<event>
 7    1  0.2680581E-011  0.5052889E+02  0.7816164E-02  0.1300439E+00
        -11   -1    0    0    0    0  0.00000000000E+00  0.00000000000E+00  0.45593999997E+02  0.45594000000E+02  0.51100000000E-03 0. -1.
         11   -1    0    0    0    0 -0.00000000000E+00 -0.00000000000E+00 -0.45593999997E+02  0.45594000000E+02  0.51100000000E-03 0.  1.
    9900012    2    1    2    0    0 -0.23713398606E+01 -0.11111142196E+02 -0.39039497171E+02  0.50528891882E+02  0.30000097363E+02 0.  0.
         12    1    1    2    0    0  0.23713398606E+01  0.11111142196E+02  0.39039497171E+02  0.40659108118E+02  0.00000000000E+00 0. -1.
         11    1    3    3    0    0 -0.68845932969E+01 -0.82636482892E+01 -0.88109713882E+01  0.13903910420E+02  0.51100000000E-03 0. -1.
        -11    1    3    3    0    0  0.24685724414E+01 -0.11259259147E+02 -0.21108642213E+02  0.24050770108E+02  0.51100000000E-03 0.  1.
        -12    1    3    3    0    0  0.20446809949E+01  0.84117652406E+01 -0.91198835701E+01  0.12574211354E+02  0.00000000000E+00 0.  1.
</event>
<event>
 7    1  0.2680581E-011  0.5052886E+02  0.7816164E-02  0.1300439E+00
        -11   -1    0    0    0    0  0.00000000000E+00  0.00000000000E+00  0.45593999997E+02  0.45594000000E+02  0.51100000000E-03 0.  1.
         11   -1    0    0    0    0 -0.00000000000E+00 -0.00000000000E+00 -0.45593999997E+02  0.45594000000E+02  0.51100000000E-03 0. -1.
    9900012    2    1    2    0    0  0.68694875312E+01 -0.13478819085E+02  0.37739864007E+02  0.50528858861E+02  0.29999996994E+02 0.  0.
         12    1    1    2    0    0 -0.68694875312E+01  0.13478819085E+02 -0.37739864007E+02  0.40659141139E+02  0.00000000000E+00 0. -1.
         11    1    3    3    0    0 -0.14878807303E+00  0.50245450793E+01  0.84328357252E+01  0.98173779480E+01  0.51100000000E-03 0. -1.
        -11    1    3    3    0    0  0.82567139772E+01 -0.23537824909E+01  0.20610949001E+02  0.22327669755E+02  0.51100000000E-03 0.  1.
        -12    1    3    3    0    0 -0.12384383730E+01 -0.16149581674E+02  0.86960792814E+01  0.18383811158E+02  0.00000000000E+00 0.  1.
</event>
<event>
 7    1  0.2680581E-011  0.5052886E+02  0.7816164E-02  0.1300439E+00
        -11   -1    0    0    0    0  0.00000000000E+00  0.00000000000E+00  0.45593999997E+02  0.45594000000E+02  0.51100000000E-03 0.  1.
         11   -1    0    0    0    0 -0.00000000000E+00 -0.00000000000E+00 -0.45593999997E+02  0.45594000000E+02  0.51100000000E-03 0. -1.
    9900012    2    1    2    0    0  0.22046040010E+02 -0.29858704714E+02  0.16601071178E+02  0.50528859679E+02  0.29999999482E+02 0.  0.
         12    1    1    2    0    0 -0.22046040010E+02  0.29858704714E+02 -0.16601071178E+02  0.40659140321E+02  0.00000000000E+00 0. -1.
         11    1    3    3    0    0 -0.18099512961E+01 -0.58452885922E+01 -0.33430386708E+01  0.69727491161E+01  0.51100000000E-03 0. -1.
        -11    1    3    3    0    0  0.52082167368E+01  0.42488735877E-01  0.10444088869E+02  0.11670746310E+02  0.51100000000E-03 0.  1.
        -12    1    3    3    0    0  0.18647774569E+02 -0.24055904858E+02  0.95000209798E+01  0.31885364253E+02  0.00000000000E+00 0.  1.
</event>
<event>
 7    1  0.2680581E-011  0.5052884E+02  0.7816164E-02  0.1300439E+00
        -11   -1    0    0    0    0  0.00000000000E+00  0.00000000000E+00  0.45593999997E+02  0.45594000000E+02  0.51100000000E-03 0. -1.
         11   -1    0    0    0    0 -0.00000000000E+00 -0.00000000000E+00 -0.45593999997E+02  0.45594000000E+02  0.51100000000E-03 0.  1.
    9900012    2    1    2    0    0  0.26293135230E+02 -0.25651223634E+02 -0.17431392010E+02  0.50528835454E+02  0.29999925846E+02 0.  0.
         12    1    1    2    0    0 -0.26293135230E+02  0.25651223634E+02  0.17431392010E+02  0.40659164546E+02  0.00000000000E+00 0. -1.
         11    1    3    3    0    0  0.93082110297E+01 -0.36850579011E+01 -0.97923706442E+01  0.14004033969E+02  0.51100000000E-03 0. -1.
        -11    1    3    3    0    0  0.15347567016E+02 -0.32684843402E+01  0.12806719972E+01  0.15743917055E+02  0.51100000000E-03 0.  1.
        -12    1    3    3    0    0  0.16373571844E+01 -0.18697681393E+02 -0.89196933629E+01  0.20780884430E+02  0.00000000000E+00 0.  1.
</event>
<event>
 7    1  0.2680581E-011  0.5052885E+02  0.7816164E-02  0.1300439E+00
        -11   -1    0    0    0    0  0.00000000000E+00  0.00000000000E+00  0.45593999997E+02  0.45594000000E+02  0.51100000000E-03 0.  1.
         11   -1    0    0    0    0 -0.00000000000E+00 -0.00000000000E+00 -0.45593999997E+02  0.45594000000E+02  0.51100000000E-03 0. -1.
    9900012    2    1    2    0    0 -0.29229573735E+02 -0.23702149569E+02 -0.15395023498E+02  0.50528848220E+02  0.29999964650E+02 0.  0.
         12    1    1    2    0    0  0.29229573735E+02  0.23702149569E+02  0.15395023498E+02  0.40659151780E+02  0.00000000000E+00 0. -1.
         11    1    3    3    0    0 -0.12901744917E+02 -0.10908395406E+02 -0.15346332920E+02  0.22824505397E+02  0.51100000000E-03 0. -1.
        -11    1    3    3    0    0 -0.12403664906E+01 -0.11284129228E+02 -0.39982200526E+01  0.12035607393E+02  0.51100000000E-03 0.  1.
         12    1    3    3    0    0 -0.15087462327E+02 -0.15096249349E+01  0.39495294744E+01  0.15668735431E+02  0.00000000000E+00 0. -1.
</event>
<event>
 7    1  0.2680581E-011  0.5052888E+02  0.7816164E-02  0.1300439E+00
        -11   -1    0    0    0    0  0.00000000000E+00  0.00000000000E+00  0.45593999997E+02  0.45594000000E+02  0.51100000000E-03 0.  1.
         11   -1    0    0    0    0 -0.00000000000E+00 -0.00000000000E+00 -0.45593999997E+02  0.45594000000E+02  0.51100000000E-03 0. -1.
    9900012    2    1    2    0    0 -0.22323864855E+02  0.33351328064E+02 -0.65190201398E+01  0.50528884794E+02  0.30000075820E+02 0.  0.
         12    1    1    2    0    0  0.22323864855E+02 -0.33351328064E+02  0.65190201398E+01  0.40659115206E+02  0.00000000000E+00 0. -1.
         11    1    3    3    0    0 -0.79898532629E+01  0.23479536136E+01  0.67650448033E+01  0.10729234492E+02  0.51100000000E-03 0. -1.
        -11    1    3    3    0    0 -0.15504397793E+01  0.14965137073E+02  0.55872417685E+00  0.15055609058E+02  0.51100000000E-03 0.  1.
        -12    1    3    3    0    0 -0.12783571813E+02  0.16038237377E+02 -0.13842789120E+02  0.24744041244E+02  0.00000000000E+00 0.  1.
</event>
<event>
 7    1  0.2680581E-011  0.5052886E+02  0.7816164E-02  0.1300439E+00
        -11   -1    0    0    0    0  0.00000000000E+00  0.00000000000E+00  0.45593999997E+02  0.45594000000E+02  0.51100000000E-03 0.  1.
         11   -1    0    0    0    0 -0.00000000000E+00 -0.00000000000E+00 -0.45593999997E+02  0.45594000000E+02  0.51100000000E-03 0. -1.
    9900012    2    1    2    0    0  0.20795241191E+02  0.13090321449E+02  0.32393931818E+02  0.50528863383E+02  0.30000010738E+02 0.  0.
         12    1    1    2    0    0 -0.20795241191E+02 -0.13090321449E+02 -0.32393931818E+02  0.40659136617E+02  0.00000000000E+00 0. -1.
         11    1    3    3    0    0  0.99359550230E+01 -0.94822770943E+00  0.73329845910E+01  0.12385273565E+02  0.51100000000E-03 0.  1.
        -11    1    3    3    0    0 -0.57851465579E+01  0.93403603705E+01  0.13191375560E+02  0.17167487935E+02  0.51100000000E-03 0. -1.
         12    1    3    3    0    0  0.16644432726E+02  0.46981887876E+01  0.11869571667E+02  0.20976101883E+02  0.00000000000E+00 0. -1.
</event>
<event>
 7    1  0.2680581E-011  0.5052886E+02  0.7816164E-02  0.1300439E+00
        -11   -1    0    0    0    0  0.00000000000E+00  0.00000000000E+00  0.45593999997E+02  0.45594000000E+02  0.51100000000E-03 0.  1.
         11   -1    0    0    0    0 -0.00000000000E+00 -0.00000000000E+00 -0.45593999997E+02  0.45594000000E+02  0.51100000000E-03 0. -1.
    9900012    2    1    2    0    0  0.16818237961E+02  0.17961270672E+02  0.32368276459E+02  0.50528859660E+02  0.29999999424E+02 0.  0.
         12    1    1    2    0    0 -0.16818237961E+02 -0.17961270672E+02 -0.32368276459E+02  0.40659140340E+02  0.00000000000E+00 0. -1.
         11    1    3    3    0    0 -0.11385423745E+01  0.66189818696E+01  0.49607040438E+01  0.83495978705E+01  0.51100000000E-03 0. -1.
        -11    1    3    3    0    0 -0.54862735424E+01  0.38512821771E+01  0.99825927774E+01  0.12024297510E+02  0.51100000000E-03 0.  1.
        -12    1    3    3    0    0  0.23443053877E+02  0.74910066249E+01  0.17424979638E+02  0.30154964280E+02  0.00000000000E+00 0.  1.
</event>
<event>
 7    1  0.2680581E-011  0.5052874E+02  0.7816164E-02  0.1300439E+00
        -11   -1    0    0    0    0  0.00000000000E+00  0.00000000000E+00  0.45593999997E+02  0.45594000000E+02  0.51100000000E-03 0. -1.
         11   -1    0    0    0    0 -0.00000000000E+00 -0.00000000000E+00 -0.45593999997E+02  0.45594000000E+02  0.51100000000E-03 0.  1.
    9900012    2    1    2    0    0 -0.26448404888E+02  0.29613505898E+01 -0.30739019896E+02  0.50528744441E+02  0.29999649202E+02 0.  0.
         12    1    1    2    0    0  0.26448404888E+02 -0.29613505898E+01  0.30739019896E+02  0.40659255559E+02  0.00000000000E+00 0. -1.
         11    1    3    3    0    0 -0.45014609915E+01  0.20669348502E+01 -0.17268753271E+02  0.17965110924E+02  0.51100000000E-03 0. -1.
        -11    1    3    3    0    0 -0.62396531349E+01  0.79511238438E+01  0.88409041981E+00  0.10145701442E+02  0.51100000000E-03 0.  1.
        -12    1    3    3    0    0 -0.15707290762E+02 -0.70567081043E+01 -0.14354357045E+02  0.22417932075E+02  0.00000000000E+00 0.  1.
</event>
<event>
 7    1  0.2680581E-011  0.5052886E+02  0.7816164E-02  0.1300439E+00
        -11   -1    0    0    0    0  0.00000000000E+00  0.00000000000E+00  0.45593999997E+02  0.45594000000E+02  0.51100000000E-03 0. -1.
         11   -1    0    0    0    0 -0.00000000000E+00 -0.00000000000E+00 -0.45593999997E+02  0.45594000000E+02  0.51100000000E-03 0.  1.
    9900012    2    1    2    0    0 -0.31962642956E+02  0.24669430104E+02 -0.47931433765E+01  0.50528861423E+02  0.30000004782E+02 0.  0.
         12    1    1    2    0    0  0.31962642956E+02 -0.24669430104E+02  0.47931433765E+01  0.40659138577E+02  0.00000000000E+00 0. -1.
         11    1    3    3    0    0 -0.10574757274E+02  0.62092460470E+01 -0.13194949900E+02  0.18013520783E+02  0.51100000000E-03 0. -1.
        -11    1    3    3    0    0 -0.16599991490E+02  0.10093273441E+02 -0.44275683084E+00  0.19432702336E+02  0.51100000000E-03 0.  1.
         12    1    3    3    0    0 -0.47878941925E+01  0.83669106161E+01  0.88445633546E+01  0.13082638304E+02  0.00000000000E+00 0. -1.
</event>
<event>
 7    1  0.2680581E-011  0.5052886E+02  0.7816164E-02  0.1300439E+00
        -11   -1    0    0    0    0  0.00000000000E+00  0.00000000000E+00  0.45593999997E+02  0.45594000000E+02  0.51100000000E-03 0.  1.
         11   -1    0    0    0    0 -0.00000000000E+00 -0.00000000000E+00 -0.45593999997E+02  0.45594000000E+02  0.51100000000E-03 0. -1.
    9900012    2    1    2    0    0 -0.39321910771E+02  0.71977987626E+00  0.10316732531E+02  0.50528859332E+02  0.29999998424E+02 0.  0.
         12    1    1    2    0    0  0.39321910771E+02 -0.71977987626E+00 -0.10316732531E+02  0.40659140668E+02  0.00000000000E+00 0. -1.
         11    1    3    3    0    0 -0.17018504856E+02 -0.87395522769E+01  0.18698377538E+01  0.19222527800E+02  0.51100000000E-03 0.  1.
        -11    1    3    3    0    0 -0.24429173579E+02  0.56832041231E+01  0.95443965670E+01  0.26836147952E+02  0.51100000000E-03 0. -1.
        -12    1    3    3    0    0  0.21257676628E+01  0.37761280301E+01 -0.10975017901E+01  0.44701835796E+01  0.00000000000E+00 0.  1.
</event>
<event>
 7    1  0.2680581E-011  0.5052889E+02  0.7816164E-02  0.1300439E+00
        -11   -1    0    0    0    0  0.00000000000E+00  0.00000000000E+00  0.45593999997E+02  0.45594000000E+02  0.51100000000E-03 0.  1.
         11   -1    0    0    0    0 -0.00000000000E+00 -0.00000000000E+00 -0.45593999997E+02  0.45594000000E+02  0.51100000000E-03 0. -1.
    9900012    2    1    2    0    0 -0.14711174544E+02  0.89640932975E+01  0.36829198056E+02  0.50528887189E+02  0.30000083101E+02 0.  0.
         12    1    1    2    0    0  0.14711174544E+02 -0.89640932975E+01 -0.36829198056E+02  0.40659112811E+02  0.00000000000E+00 0. -1.
         11    1    3    3    0    0 -0.15226521264E+01  0.54510071724E+01  0.17229859088E+02  0.18135600159E+02  0.51100000000E-03 0.  1.
        -11    1    3    3    0    0 -0.54385312830E+01  0.12301719309E+02  0.69105361392E+01  0.15121687421E+02  0.51100000000E-03 0. -1.
        -12    1    3    3    0    0 -0.77499911348E+01 -0.87886331838E+01  0.12688802829E+02  0.17271599609E+02  0.00000000000E+00 0.  1.
</event>
<event>
 7    1  0.2680581E-011  0.5052886E+02  0.7816164E-02  0.1300439E+00
        -11   -1    0    0    0    0  0.00000000000E+00  0.00000000000E+00  0.45593999997E+02  0.45594000000E+02  0.51100000000E-03 0.  1.
         11   -1    0    0    0    0 -0.00000000000E+00 -0.00000000000E+00 -0.45593999997E+02  0.45594000000E+02  0.51100000000E-03 0. -1.
    9900012    2    1    2    0    0  0.32267696408E+02  0.22332342634E+02  0.10640843444E+02  0.50528864395E+02  0.30000013814E+02 0.  0.
         12    1    1    2    0    0 -0.32267696408E+02 -0.22332342634E+02 -0.10640843444E+02  0.40659135605E+02  0.00000000000E+00 0. -1.
         11    1    3    3    0    0  0.80903385854E+01  0.13380620083E+02 -0.72338491877E+01  0.17228556137E+02  0.51100000000E-03 0. -1.
        -11    1    3    3    0    0  0.56966271647E+01  0.75543701879E+01  0.47245269266E+01  0.10575501167E+02  0.51100000000E-03 0.  1.
        -12    1    3    3    0    0  0.18480730658E+02  0.13973523632E+01  0.13150165705E+02  0.22724807091E+02  0.00000000000E+00 0.  1.
</event>
<event>
 7    1  0.2680581E-011  0.5052886E+02  0.7816164E-02  0.1300439E+00
        -11   -1    0    0    0    0  0.00000000000E+00  0.00000000000E+00  0.45593999997E+02  0.45594000000E+02  0.51100000000E-03 0. -1.
         11   -1    0    0    0    0 -0.00000000000E+00 -0.00000000000E+00 -0.45593999997E+02  0.45594000000E+02  0.51100000000E-03 0.  1.
    9900012    2    1    2    0    0  0.10539597842E+02 -0.32730987680E+02 -0.21697125391E+02  0.50528856780E+02  0.29999990669E+02 0.  0.
         12    1    1    2    0    0 -0.10539597842E+02  0.32730987680E+02  0.21697125391E+02  0.40659143220E+02  0.00000000000E+00 0. -1.
         11    1    3    3    0    0  0.14345070747E+02 -0.27974146906E+02 -0.23062786505E+02  0.38990076577E+02  0.51100000000E-03 0. -1.
        -11    1    3    3    0    0 -0.12040639141E+01 -0.68558683907E+01 -0.15177432479E+01  0.71243418031E+01  0.51100000000E-03 0.  1.
         12    1    3    3    0    0 -0.26014089909E+01  0.20990276168E+01  0.28834043623E+01  0.44144384004E+01  0.00000000000E+00 0. -1.
</event>
<event>
 7    1  0.2680581E-011  0.5052886E+02  0.7816164E-02  0.1300439E+00
        -11   -1    0    0    0    0  0.00000000000E+00  0.00000000000E+00  0.45593999997E+02  0.45594000000E+02  0.51100000000E-03 0.  1.
         11   -1    0    0    0    0 -0.00000000000E+00 -0.00000000000E+00 -0.45593999997E+02  0.45594000000E+02  0.51100000000E-03 0. -1.
    9900012    2    1    2    0    0  0.93120888615E+01  0.30164679530E+02  0.25623092694E+02  0.50528858724E+02  0.29999996576E+02 0.  0.
         12    1    1    2    0    0 -0.93120888615E+01 -0.30164679530E+02 -0.25623092694E+02  0.40659141276E+02  0.00000000000E+00 0. -1.
         11    1    3    3    0    0  0.15342303694E+01  0.15196597295E+01 -0.39969311451E+01  0.45429822099E+01  0.51100000000E-03 0. -1.
        -11    1    3    3    0    0 -0.55190996252E+01  0.30073762755E+01  0.57200980375E+01  0.84984877805E+01  0.51100000000E-03 0.  1.
        -12    1    3    3    0    0  0.13296958117E+02  0.25637643525E+02  0.23899925802E+02  0.37487388733E+02  0.00000000000E+00 0.  1.
</event>
<event>
 7    1  0.2680581E-011  0.5052885E+02  0.7816164E-02  0.1300439E+00
        -11   -1    0    0    0    0  0.00000000000E+00  0.00000000000E+00  0.45593999997E+02  0.45594000000E+02  0.51100000000E-03 0.  1.
         11   -1    0    0    0    0 -0.00000000000E+00 -0.00000000000E+00 -0.45593999997E+02  0.45594000000E+02  0.51100000000E-03 0. -1.
    9900012    2    1    2    0    0 -0.48852427282E+01  0.14338886353E+02  0.37731910347E+02  0.50528851991E+02  0.29999976113E+02 0.  0.
         12    1    1    2    0    0  0.48852427282E+01 -0.14338886353E+02 -0.37731910347E+02  0.40659148009E+02  0.00000000000E+00 0. -1.
         11    1    3    3    0    0 -0.10231045461E+01  0.14214944982E+02  0.35034266747E+01  0.14676014530E+02  0.51100000000E-03 0. -1.
        -11    1    3    3    0    0 -0.22986389123E+01  0.48569240865E+01  0.13422642924E+02  0.14458243177E+02  0.51100000000E-03 0.  1.
        -12    1    3    3    0    0 -0.15634992699E+01 -0.47329827155E+01  0.20805840748E+02  0.21394594284E+02  0.00000000000E+00 0.  1.
</event>
<event>
 7    1  0.2680581E-011  0.5052886E+02  0.7816164E-02  0.1300439E+00
        -11   -1    0    0    0    0  0.00000000000E+00  0.00000000000E+00  0.45593999997E+02  0.45594000000E+02  0.51100000000E-03 0.  1.
         11   -1    0    0    0    0 -0.00000000000E+00 -0.00000000000E+00 -0.45593999997E+02  0.45594000000E+02  0.51100000000E-03 0. -1.
    9900012    2    1    2    0    0 -0.25630229854E+02  0.25652115794E+02  0.18390922766E+02  0.50528858749E+02  0.29999996654E+02 0.  0.
         12    1    1    2    0    0  0.25630229854E+02 -0.25652115794E+02 -0.18390922766E+02  0.40659141251E+02  0.00000000000E+00 0. -1.
         11    1    3    3    0    0 -0.34838798932E+01  0.13650023330E+02  0.12267205046E+02  0.18680066272E+02  0.51100000000E-03 0. -1.
        -11    1    3    3    0    0 -0.13233701193E+02  0.61467038561E+01  0.12679473499E+02  0.19330852646E+02  0.51100000000E-03 0.  1.
         12    1    3    3    0    0 -0.89126487681E+01  0.58553886071E+01 -0.65557557781E+01  0.12517939832E+02  0.00000000000E+00 0. -1.
</event>
<event>
 7    1  0.2680581E-011  0.5052885E+02  0.7816164E-02  0.1300439E+00
        -11   -1    0    0    0    0  0.00000000000E+00  0.00000000000E+00  0.45593999997E+02  0.45594000000E+02  0.51100000000E-03 0. -1.
         11   -1    0    0    0    0 -0.00000000000E+00 -0.00000000000E+00 -0.45593999997E+02  0.45594000000E+02  0.51100000000E-03 0.  1.
    9900012    2    1    2    0    0  0.22588278398E+02 -0.18412413024E+02  0.28353462519E+02  0.50528854519E+02  0.29999983797E+02 0.  0.
         12    1    1    2    0    0 -0.22588278398E+02  0.18412413024E+02 -0.28353462519E+02  0.40659145481E+02  0.00000000000E+00 0. -1.
         11    1    3    3    0    0 -0.13894213089E+01 -0.90668275906E+01  0.47848856909E+01  0.10345674723E+02  0.51100000000E-03 0. -1.
        -11    1    3    3    0    0  0.19710391196E+02 -0.72701372292E+01  0.58035457221E+01  0.21795310497E+02  0.51100000000E-03 0.  1.
         12    1    3    3    0    0  0.42673085107E+01 -0.20754482046E+01  0.17765031106E+02  0.18387869300E+02  0.00000000000E+00 0. -1.
</event>
<event>
 7    1  0.2680581E-011  0.5052886E+02  0.7816164E-02  0.1300439E+00
        -11   -1    0    0    0    0  0.00000000000E+00  0.00000000000E+00  0.45593999997E+02  0.45594000000E+02  0.51100000000E-03 0.  1.
         11   -1    0    0    0    0 -0.00000000000E+00 -0.00000000000E+00 -0.45593999997E+02  0.45594000000E+02  0.51100000000E-03 0. -1.
    9900012    2    1    2    0    0 -0.84070976421E+01  0.39646483435E+02  0.32623177649E+01  0.50528860108E+02  0.30000000785E+02 0.  0.
         12    1    1    2    0    0  0.84070976421E+01 -0.39646483435E+02 -0.32623177649E+01  0.40659139892E+02  0.00000000000E+00 0. -1.
         11    1    3    3    0    0 -0.23778269564E+01  0.23505162322E+02 -0.47963251440E+01  0.24107083025E+02  0.51100000000E-03 0. -1.
        -11    1    3    3    0    0 -0.94991524071E+01  0.11266279485E+02 -0.18442557095E+01  0.14851404960E+02  0.51100000000E-03 0.  1.
        -12    1    3    3    0    0  0.34698817214E+01  0.48750416276E+01  0.99028986184E+01  0.11570372124E+02  0.00000000000E+00 0.  1.
</event>
<event>
 7    1  0.2680581E-011  0.5052887E+02  0.7816164E-02  0.1300439E+00
        -11   -1    0    0    0    0  0.00000000000E+00  0.00000000000E+00  0.45593999997E+02  0.45594000000E+02  0.51100000000E-03 0.  1.
         11   -1    0    0    0    0 -0.00000000000E+00 -0.00000000000E+00 -0.45593999997E+02  0.45594000000E+02  0.51100000000E-03 0. -1.
    9900012    2    1    2    0    0  0.10268832880E+02  0.39247495941E+02  0.27111583289E+01  0.50528865161E+02  0.30000016143E+02 0.  0.
         12    1    1    2    0    0 -0.10268832880E+02 -0.39247495941E+02 -0.27111583289E+01  0.40659134839E+02  0.00000000000E+00 0. -1.
         11    1    3    3    0    0  0.68096989848E+01  0.19744089708E+02  0.10355175758E+02  0.23311601058E+02  0.51100000000E-03 0. -1.
        -11    1    3    3    0    0  0.40437833118E+01  0.63822568451E+01  0.49403835363E+01  0.90273349145E+01  0.51100000000E-03 0.  1.
         12    1    3    3    0    0 -0.58464941702E+00  0.13121149389E+02 -0.12584400965E+02  0.18189929188E+02  0.00000000000E+00 0. -1.
</event>
<event>
 7    1  0.2680581E-011  0.5052887E+02  0.7816164E-02  0.1300439E+00
        -11   -1    0    0    0    0  0.00000000000E+00  0.00000000000E+00  0.45593999997E+02  0.45594000000E+02  0.51100000000E-03 0. -1.
         11   -1    0    0    0    0 -0.00000000000E+00 -0.00000000000E+00 -0.45593999997E+02  0.45594000000E+02  0.51100000000E-03 0.  1.
    9900012    2    1    2    0    0 -0.13814655463E+02 -0.16097041650E+02 -0.34687247177E+02  0.50528873445E+02  0.30000041325E+02 0.  0.
         12    1    1    2    0    0  0.13814655463E+02  0.16097041650E+02  0.34687247177E+02  0.40659126555E+02  0.00000000000E+00 0. -1.
         11    1    3    3    0    0 -0.17920514392E+02 -0.62597947302E+01 -0.14464169063E+02  0.23865080203E+02  0.51100000000E-03 0. -1.
        -11    1    3    3    0    0  0.16307910679E+01 -0.71967777479E+01 -0.21573730533E+02  0.22800853905E+02  0.51100000000E-03 0.  1.
        -12    1    3    3    0    0  0.24750678611E+01 -0.26404691724E+01  0.13506524188E+01  0.38629393373E+01  0.00000000000E+00 0.  1.
</event>
<event>
 7    1  0.2680581E-011  0.5052886E+02  0.7816164E-02  0.1300439E+00
        -11   -1    0    0    0    0  0.00000000000E+00  0.00000000000E+00  0.45593999997E+02  0.45594000000E+02  0.51100000000E-03 0. -1.
         11   -1    0    0    0    0 -0.00000000000E+00 -0.00000000000E+00 -0.45593999997E+02  0.45594000000E+02  0.51100000000E-03 0.  1.
    9900012    2    1    2    0    0  0.27098485760E+02  0.30136867855E+02 -0.32567846773E+01  0.50528863499E+02  0.30000011091E+02 0.  0.
         12    1    1    2    0    0 -0.27098485760E+02 -0.30136867855E+02  0.32567846773E+01  0.40659136501E+02  0.00000000000E+00 0. -1.
         11    1    3    3    0    0 -0.31544928591E+01  0.15878447730E+02 -0.20927248017E+01  0.16323462405E+02  0.51100000000E-03 0. -1.
        -11    1    3    3    0    0  0.80241245973E+01  0.64735608755E+01 -0.25213369663E+01  0.10613703704E+02  0.51100000000E-03 0.  1.
        -12    1    3    3    0    0  0.22228854021E+02  0.77848592498E+01  0.13572770907E+01  0.23591697390E+02  0.00000000000E+00 0.  1.
</event>
<event>
 7    1  0.2680581E-011  0.5052886E+02  0.7816164E-02  0.1300439E+00
        -11   -1    0    0    0    0  0.00000000000E+00  0.00000000000E+00  0.45593999997E+02  0.45594000000E+02  0.51100000000E-03 0.  1.
         11   -1    0    0    0    0 -0.00000000000E+00 -0.00000000000E+00 -0.45593999997E+02  0.45594000000E+02  0.51100000000E-03 0. -1.
    9900012    2    1    2    0    0 -0.22113096957E+01  0.26041499726E+01  0.40515358126E+02  0.50528859186E+02  0.29999997982E+02 0.  0.
         12    1    1    2    0    0  0.22113096957E+01 -0.26041499726E+01 -0.40515358126E+02  0.40659140814E+02  0.00000000000E+00 0. -1.
         11    1    3    3    0    0 -0.13880371060E+01  0.43109829422E+01  0.51184221034E+00  0.45577630089E+01  0.51100000000E-03 0. -1.
        -11    1    3    3    0    0  0.63612389866E+01  0.64259345183E+01  0.76427742781E+01  0.11839340979E+02  0.51100000000E-03 0.  1.
        -12    1    3    3    0    0 -0.71845115763E+01 -0.81327674879E+01  0.32360741638E+02  0.34131755199E+02  0.00000000000E+00 0.  1.
</event>
<event>
 7    1  0.2680581E-011  0.5052886E+02  0.7816164E-02  0.1300439E+00
        -11   -1    0    0    0    0  0.00000000000E+00  0.00000000000E+00  0.45593999997E+02  0.45594000000E+02  0.51100000000E-03 0.  1.
         11   -1    0    0    0    0 -0.00000000000E+00 -0.00000000000E+00 -0.45593999997E+02  0.45594000000E+02  0.51100000000E-03 0. -1.
    9900012    2    1    2    0    0  0.85421707441E+01 -0.23884390371E+02  0.31776298201E+02  0.50528856972E+02  0.29999991252E+02 0.  0.
         12    1    1    2    0    0 -0.85421707441E+01  0.23884390371E+02 -0.31776298201E+02  0.40659143028E+02  0.00000000000E+00 0. -1.
         11    1    3    3    0    0 -0.40565059484E+00 -0.15334384844E+02  0.48468528018E+01  0.16087258725E+02  0.51100000000E-03 0. -1.
        -11    1    3    3    0    0 -0.53160104278E+01 -0.30127347484E+01  0.88830505856E+01  0.10781703275E+02  0.51100000000E-03 0.  1.
        -12    1    3    3    0    0  0.14263831767E+02 -0.55372707786E+01  0.18046394814E+02  0.23659894973E+02  0.00000000000E+00 0.  1.
</event>
<event>
 7    1  0.2680581E-011  0.5052887E+02  0.7816164E-02  0.1300439E+00
        -11   -1    0    0    0    0  0.00000000000E+00  0.00000000000E+00  0.45593999997E+02  0.45594000000E+02  0.51100000000E-03 0. -1.
         11   -1    0    0    0    0 -0.00000000000E+00 -0.00000000000E+00 -0.45593999997E+02  0.45594000000E+02  0.51100000000E-03 0.  1.
    9900012    2    1    2    0    0  0.78216533741E+01  0.30921627468E+02  0.25215863990E+02  0.50528866911E+02  0.30000021463E+02 0.  0.
         12    1    1    2    0    0 -0.78216533741E+01 -0.30921627468E+02 -0.25215863990E+02  0.40659133089E+02  0.00000000000E+00 0. -1.
         11    1    3    3    0    0  0.70355351200E+01  0.15381842012E+02  0.74778970917E+01  0.18493749303E+02  0.51100000000E-03 0. -1.
        -11    1    3    3    0    0 -0.73868545193E+01  0.12467422450E+02  0.28401116761E+01  0.14767141796E+02  0.51100000000E-03 0.  1.
        -12    1    3    3    0    0  0.81729727734E+01  0.30723630056E+01  0.14897855222E+02  0.17267975811E+02  0.00000000000E+00 0.  1.
</event>
<event>
 7    1  0.2680581E-011  0.5052886E+02  0.7816164E-02  0.1300439E+00
        -11   -1    0    0    0    0  0.00000000000E+00  0.00000000000E+00  0.45593999997E+02  0.45594000000E+02  0.51100000000E-03 0.  1.
         11   -1    0    0    0    0 -0.00000000000E+00 -0.00000000000E+00 -0.45593999997E+02  0.45594000000E+02  0.51100000000E-03 0. -1.
    9900012    2    1    2    0    0  0.29279835377E+01  0.30499459242E+02  0.26727806320E+02  0.50528859179E+02  0.29999997960E+02 0.  0.
         12    1    1    2    0    0 -0.29279835377E+01 -0.30499459242E+02 -0.26727806320E+02  0.40659140821E+02  0.00000000000E+00 0. -1.
         11    1    3    3    0    0 -0.28845072778E+01  0.11739012347E+02  0.96889701336E+01  0.15491963582E+02  0.51100000000E-03 0. -1.
        -11    1    3    3    0    0 -0.41501643972E+00  0.53925999419E+01  0.19366083016E+02  0.20107151574E+02  0.51100000000E-03 0.  1.
         12    1    3    3    0    0  0.62275072552E+01  0.13367846953E+02 -0.23272468298E+01  0.14929744022E+02  0.00000000000E+00 0. -1.
</event>
<event>
 7    1  0.2680581E-011  0.5052886E+02  0.7816164E-02  0.1300439E+00
        -11   -1    0    0    0    0  0.00000000000E+00  0.00000000000E+00  0.45593999997E+02  0.45594000000E+02  0.51100000000E-03 0.  1.
         11   -1    0    0    0    0 -0.00000000000E+00 -0.00000000000E+00 -0.45593999997E+02  0.45594000000E+02  0.51100000000E-03 0. -1.
    9900012    2    1    2    0    0 -0.39896106572E+01  0.12232453342E+02  0.38569620779E+02  0.50528861360E+02  0.30000004589E+02 0.  0.
         12    1    1    2    0    0  0.39896106572E+01 -0.12232453342E+02 -0.38569620779E+02  0.40659138640E+02  0.00000000000E+00 0. -1.
         11    1    3    3    0    0  0.59078465015E+01  0.11144763070E+02  0.12598399378E+02  0.17827732927E+02  0.51100000000E-03 0. -1.
        -11    1    3    3    0    0 -0.56324387398E+01  0.56852275346E+01  0.25130300590E+02  0.26373816301E+02  0.51100000000E-03 0.  1.
        -12    1    3    3    0    0 -0.42650184189E+01 -0.45975372625E+01  0.84092081004E+00  0.63273121309E+01  0.00000000000E+00 0.  1.
</event>
<event>
 7    1  0.2680581E-011  0.5052886E+02  0.7816164E-02  0.1300439E+00
        -11   -1    0    0    0    0  0.00000000000E+00  0.00000000000E+00  0.45593999997E+02  0.45594000000E+02  0.51100000000E-03 0.  1.
         11   -1    0    0    0    0 -0.00000000000E+00 -0.00000000000E+00 -0.45593999997E+02  0.45594000000E+02  0.51100000000E-03 0. -1.
    9900012    2    1    2    0    0  0.29315223936E+02 -0.15804496801E+01  0.28129797933E+02  0.50528859486E+02  0.29999998894E+02 0.  0.
         12    1    1    2    0    0 -0.29315223936E+02  0.15804496801E+01 -0.28129797933E+02  0.40659140514E+02  0.00000000000E+00 0. -1.
         11    1    3    3    0    0  0.28378219524E+01 -0.65551189107E+01  0.14610869712E+01  0.72909253710E+01  0.51100000000E-03 0. -1.
        -11    1    3    3    0    0  0.22096224641E+02  0.77509696022E+00  0.29230446453E+02  0.36650551411E+02  0.51100000000E-03 0.  1.
         12    1    3    3    0    0  0.43811773424E+01  0.41995722704E+01 -0.25617354908E+01  0.65873827036E+01  0.00000000000E+00 0. -1.
</event>
<event>
 7    1  0.2680581E-011  0.5052886E+02  0.7816164E-02  0.1300439E+00
        -11   -1    0    0    0    0  0.00000000000E+00  0.00000000000E+00  0.45593999997E+02  0.45594000000E+02  0.51100000000E-03 0. -1.
         11   -1    0    0    0    0 -0.00000000000E+00 -0.00000000000E+00 -0.45593999997E+02  0.45594000000E+02  0.51100000000E-03 0.  1.
    9900012    2    1    2    0    0  0.38867210869E+02 -0.93540891425E+01  0.74166406680E+01  0.50528860520E+02  0.30000002037E+02 0.  0.
         12    1    1    2    0    0 -0.38867210869E+02  0.93540891425E+01 -0.74166406680E+01  0.40659139480E+02  0.00000000000E+00 0. -1.
         11    1    3    3    0    0  0.20107017658E+02 -0.10832496484E+02 -0.15480595032E+01  0.22891737104E+02  0.51100000000E-03 0. -1.
        -11    1    3    3    0    0  0.19121780731E+02 -0.17287335240E+01  0.12102896483E+01  0.19237874603E+02  0.51100000000E-03 0.  1.
         12    1    3    3    0    0 -0.36158751967E+00  0.32071408654E+01  0.77544105230E+01  0.83992488130E+01  0.00000000000E+00 0. -1.
</event>
<event>
 7    1  0.2680581E-011  0.5052886E+02  0.7816164E-02  0.1300439E+00
        -11   -1    0    0    0    0  0.00000000000E+00  0.00000000000E+00  0.45593999997E+02  0.45594000000E+02  0.51100000000E-03 0.  1.
         11   -1    0    0    0    0 -0.00000000000E+00 -0.00000000000E+00 -0.45593999997E+02  0.45594000000E+02  0.51100000000E-03 0. -1.
    9900012    2    1    2    0    0 -0.22299011376E+02  0.32840265861E+02  0.87998173125E+01  0.50528858901E+02  0.29999997116E+02 0.  0.
         12    1    1    2    0    0  0.22299011376E+02 -0.32840265861E+02 -0.87998173125E+01  0.40659141099E+02  0.00000000000E+00 0. -1.
         11    1    3    3    0    0 -0.10852633702E+02  0.13496705855E+02  0.48295819882E+01  0.17979588139E+02  0.51100000000E-03 0. -1.
        -11    1    3    3    0    0 -0.83023952877E+01  0.20297607144E+02 -0.54293213237E+01  0.22592037394E+02  0.51100000000E-03 0.  1.
         12    1    3    3    0    0 -0.31439823861E+01 -0.95404713795E+00  0.93995566480E+01  0.99572333690E+01  0.00000000000E+00 0. -1.
</event>
<event>
 7    1  0.2680581E-011  0.5052886E+02  0.7816164E-02  0.1300439E+00
        -11   -1    0    0    0    0  0.00000000000E+00  0.00000000000E+00  0.45593999997E+02  0.45594000000E+02  0.51100000000E-03 0. -1.
         11   -1    0    0    0    0 -0.00000000000E+00 -0.00000000000E+00 -0.45593999997E+02  0.45594000000E+02  0.51100000000E-03 0.  1.
    9900012    2    1    2    0    0 -0.41130221337E+01 -0.23664014435E+02 -0.32806453911E+02  0.50528856521E+02  0.29999989880E+02 0.  0.
         12    1    1    2    0    0  0.41130221337E+01  0.23664014435E+02  0.32806453911E+02  0.40659143479E+02  0.00000000000E+00 0. -1.
         11    1    3    3    0    0  0.57948431457E+01 -0.87243629301E+01 -0.13594788193E+00  0.10474406795E+02  0.51100000000E-03 0. -1.
        -11    1    3    3    0    0 -0.45699592425E+01 -0.14814913176E+02 -0.14914357991E+02  0.21512885777E+02  0.51100000000E-03 0.  1.
         12    1    3    3    0    0 -0.53379060369E+01 -0.12473832855E+00 -0.17756148038E+02  0.18541563948E+02  0.00000000000E+00 0. -1.
</event>
<event>
 7    1  0.2680581E-011  0.5052886E+02  0.7816164E-02  0.1300439E+00
        -11   -1    0    0    0    0  0.00000000000E+00  0.00000000000E+00  0.45593999997E+02  0.45594000000E+02  0.51100000000E-03 0. -1.
         11   -1    0    0    0    0 -0.00000000000E+00 -0.00000000000E+00 -0.45593999997E+02  0.45594000000E+02  0.51100000000E-03 0.  1.
    9900012    2    1    2    0    0  0.32249168605E+02  0.24760999466E+02  0.22372497586E+00  0.50528855602E+02  0.29999987089E+02 0.  0.
         12    1    1    2    0    0 -0.32249168605E+02 -0.24760999466E+02 -0.22372497586E+00  0.40659144398E+02  0.00000000000E+00 0. -1.
         11    1    3    3    0    0  0.15100817972E+02  0.97659439372E+01  0.85487865993E+01  0.19912059587E+02  0.51100000000E-03 0. -1.
        -11    1    3    3    0    0  0.20526193670E+01  0.13996681678E+02 -0.57508361248E+01  0.15270640480E+02  0.51100000000E-03 0.  1.
         12    1    3    3    0    0  0.15095731266E+02  0.99837385075E+00 -0.25742254987E+01  0.15346155536E+02  0.00000000000E+00 0. -1.
</event>
<event>
 7    1  0.2680581E-011  0.5052886E+02  0.7816164E-02  0.1300439E+00
        -11   -1    0    0    0    0  0.00000000000E+00  0.00000000000E+00  0.45593999997E+02  0.45594000000E+02  0.51100000000E-03 0.  1.
         11   -1    0    0    0    0 -0.00000000000E+00 -0.00000000000E+00 -0.45593999997E+02  0.45594000000E+02  0.51100000000E-03 0. -1.
    9900012    2    1    2    0    0 -0.20094961313E+02  0.31868844885E+02  0.15288392215E+02  0.50528859810E+02  0.29999999879E+02 0.  0.
         12    1    1    2    0    0  0.20094961313E+02 -0.31868844885E+02 -0.15288392215E+02  0.40659140190E+02  0.00000000000E+00 0. -1.
         11    1    3    3    0    0 -0.10099622849E+02 -0.13222194637E+01  0.87723823076E+01  0.13442668545E+02  0.51100000000E-03 0. -1.
        -11    1    3    3    0    0 -0.80213691817E+01  0.83520630952E+01  0.25076983988E+01  0.11848538856E+02  0.51100000000E-03 0.  1.
        -12    1    3    3    0    0 -0.19739692826E+01  0.24839001253E+02  0.40083115085E+01  0.25237652409E+02  0.00000000000E+00 0.  1.
</event>
<event>
 7    1  0.2680581E-011  0.5052886E+02  0.7816164E-02  0.1300439E+00
        -11   -1    0    0    0    0  0.00000000000E+00  0.00000000000E+00  0.45593999997E+02  0.45594000000E+02  0.51100000000E-03 0. -1.
         11   -1    0    0    0    0 -0.00000000000E+00 -0.00000000000E+00 -0.45593999997E+02  0.45594000000E+02  0.51100000000E-03 0.  1.
    9900012    2    1    2    0    0 -0.11829423780E+02 -0.22171358653E+02 -0.31963432989E+02  0.50528862529E+02  0.30000008142E+02 0.  0.
         12    1    1    2    0    0  0.11829423780E+02  0.22171358653E+02  0.31963432989E+02  0.40659137471E+02  0.00000000000E+00 0. -1.
         11    1    3    3    0    0 -0.76754038301E+01  0.22773995657E+01 -0.32313422559E+01  0.86336519372E+01  0.51100000000E-03 0.  1.
        -11    1    3    3    0    0 -0.19742269529E+01  0.23390499484E+01 -0.58295039349E+01  0.65842116544E+01  0.51100000000E-03 0. -1.
        -12    1    3    3    0    0 -0.21797929971E+01 -0.26787808167E+02 -0.22902586798E+02  0.35310998937E+02  0.00000000000E+00 0.  1.
</event>
<event>
 7    1  0.2680581E-011  0.5052873E+02  0.7816164E-02  0.1300439E+00
        -11   -1    0    0    0    0  0.00000000000E+00  0.00000000000E+00  0.45593999997E+02  0.45594000000E+02  0.51100000000E-03 0.  1.
         11   -1    0    0    0    0 -0.00000000000E+00 -0.00000000000E+00 -0.45593999997E+02  0.45594000000E+02  0.51100000000E-03 0. -1.
    9900012    2    1    2    0    0  0.27410052946E+02 -0.21348687215E+02  0.21121052051E+02  0.50528729371E+02  0.29999603395E+02 0.  0.
         12    1    1    2    0    0 -0.27410052946E+02  0.21348687215E+02 -0.21121052051E+02  0.40659270629E+02  0.00000000000E+00 0. -1.
         11    1    3    3    0    0  0.83307451369E+01 -0.19865742409E+00  0.15889569759E+02  0.17942107086E+02  0.51100000000E-03 0. -1.
        -11    1    3    3    0    0  0.30164402318E+01 -0.19413191638E+01  0.65974773454E+01  0.75096164584E+01  0.51100000000E-03 0.  1.
         12    1    3    3    0    0  0.16062867577E+02 -0.19208710627E+02 -0.13659950530E+01  0.25077005827E+02  0.00000000000E+00 0. -1.
</event>
<event>
 7    1  0.2680581E-011  0.5052886E+02  0.7816164E-02  0.1300439E+00
        -11   -1    0    0    0    0  0.00000000000E+00  0.00000000000E+00  0.45593999997E+02  0.45594000000E+02  0.51100000000E-03 0. -1.
         11   -1    0    0    0    0 -0.00000000000E+00 -0.00000000000E+00 -0.45593999997E+02  0.45594000000E+02  0.51100000000E-03 0.  1.
    9900012    2    1    2    0    0  0.28802450773E+01  0.10869144792E+01 -0.40542424127E+02  0.50528863894E+02  0.30000012292E+02 0.  0.
         12    1    1    2    0    0 -0.28802450773E+01 -0.10869144792E+01  0.40542424127E+02  0.40659136106E+02  0.00000000000E+00 0. -1.
         11    1    3    3    0    0  0.10990881126E+02 -0.11314830151E+01 -0.25128887085E+02  0.27450695585E+02  0.51100000000E-03 0. -1.
        -11    1    3    3    0    0  0.96159200835E+00  0.68368687681E+01 -0.50741465925E+01  0.85682202146E+01  0.51100000000E-03 0.  1.
        -12    1    3    3    0    0 -0.90722280569E+01 -0.46184712738E+01 -0.10339390450E+02  0.14509948094E+02  0.00000000000E+00 0.  1.
</event>
<event>
 7    1  0.2680581E-011  0.5052886E+02  0.7816164E-02  0.1300439E+00
        -11   -1    0    0    0    0  0.00000000000E+00  0.00000000000E+00  0.45593999997E+02  0.45594000000E+02  0.51100000000E-03 0.  1.
         11   -1    0    0    0    0 -0.00000000000E+00 -0.00000000000E+00 -0.45593999997E+02  0.45594000000E+02  0.51100000000E-03 0. -1.
    9900012    2    1    2    0    0 -0.39269539554E+02 -0.41658537230E+01  0.96806446743E+01  0.50528856436E+02  0.29999989624E+02 0.  0.
         12    1    1    2    0    0  0.39269539554E+02  0.41658537230E+01 -0.96806446743E+01  0.40659143564E+02  0.00000000000E+00 0. -1.
         11    1    3    3    0    0  0.83154237134E+00  0.26829540982E+00 -0.25578528981E+01  0.27029718556E+01  0.51100000000E-03 0. -1.
        -11    1    3    3    0    0 -0.14388246110E+02 -0.12307364434E+02  0.19514530165E+01  0.19034206434E+02  0.51100000000E-03 0.  1.
        -12    1    3    3    0    0 -0.25712835815E+02  0.78732153009E+01  0.10287044556E+02  0.28791678147E+02  0.00000000000E+00 0.  1.
</event>
<event>
 7    1  0.2680581E-011  0.5052886E+02  0.7816164E-02  0.1300439E+00
        -11   -1    0    0    0    0  0.00000000000E+00  0.00000000000E+00  0.45593999997E+02  0.45594000000E+02  0.51100000000E-03 0.  1.
         11   -1    0    0    0    0 -0.00000000000E+00 -0.00000000000E+00 -0.45593999997E+02  0.45594000000E+02  0.51100000000E-03 0. -1.
    9900012    2    1    2    0    0  0.23224325413E+02  0.26084869250E+02  0.20817682085E+02  0.50528861026E+02  0.30000003575E+02 0.  0.
         12    1    1    2    0    0 -0.23224325413E+02 -0.26084869250E+02 -0.20817682085E+02  0.40659138974E+02  0.00000000000E+00 0. -1.
         11    1    3    3    0    0  0.70864231117E+01  0.92094307760E+01 -0.29475574377E+01  0.11988290239E+02  0.51100000000E-03 0. -1.
        -11    1    3    3    0    0 -0.40576425351E+01  0.29362485884E+01  0.77848727922E+01  0.92569035518E+01  0.51100000000E-03 0.  1.
        -12    1    3    3    0    0  0.20195544837E+02  0.13939189886E+02  0.15980366730E+02  0.29283667236E+02  0.00000000000E+00 0.  1.
</event>
<event>
 7    1  0.2680581E-011  0.5052887E+02  0.7816164E-02  0.1300439E+00
        -11   -1    0    0    0    0  0.00000000000E+00  0.00000000000E+00  0.45593999997E+02  0.45594000000E+02  0.51100000000E-03 0. -1.
         11   -1    0    0    0    0 -0.00000000000E+00 -0.00000000000E+00 -0.45593999997E+02  0.45594000000E+02  0.51100000000E-03 0.  1.
    9900012    2    1    2    0    0  0.38339623949E+02  0.72528417619E+01  0.11429535610E+02  0.50528871106E+02  0.30000034214E+02 0.  0.
         12    1    1    2    0    0 -0.38339623949E+02 -0.72528417619E+01 -0.11429535610E+02  0.40659128894E+02  0.00000000000E+00 0. -1.
         11    1    3    3    0    0 -0.24546007283E+00  0.23571331699E+01 -0.21873396605E+01  0.32250244154E+01  0.51100000000E-03 0. -1.
        -11    1    3    3    0    0  0.35740535665E+02  0.11938846277E+02  0.10753712879E+02  0.39186276692E+02  0.51100000000E-03 0.  1.
         12    1    3    3    0    0  0.28445483565E+01 -0.70431376849E+01  0.28631623913E+01  0.81175699985E+01  0.00000000000E+00 0. -1.
</event>
<event>
 7    1  0.2680581E-011  0.5052886E+02  0.7816164E-02  0.1300439E+00
        -11   -1    0    0    0    0  0.00000000000E+00  0.00000000000E+00  0.45593999997E+02  0.45594000000E+02  0.51100000000E-03 0.  1.
         11   -1    0    0    0    0 -0.00000000000E+00 -0.00000000000E+00 -0.45593999997E+02  0.45594000000E+02  0.51100000000E-03 0. -1.
    9900012    2    1    2    0    0  0.36780295527E+02 -0.16757014039E+02  0.44246946104E+01  0.50528861040E+02  0.30000003617E+02 0.  0.
         12    1    1    2    0    0 -0.36780295527E+02  0.16757014039E+02 -0.44246946104E+01  0.40659138960E+02  0.00000000000E+00 0. -1.
         11    1    3    3    0    0  0.83948076662E+01 -0.43858423979E+01  0.10545290358E+02  0.14174327437E+02  0.51100000000E-03 0. -1.
        -11    1    3    3    0    0  0.12885289194E+02 -0.12521630394E+02  0.32248590395E+01  0.18254358971E+02  0.51100000000E-03 0.  1.
         12    1    3    3    0    0  0.15500198667E+02  0.15045875286E+00 -0.93454547872E+01  0.18100174633E+02  0.00000000000E+00 0. -1.
</event>
<event>
 7    1  0.2680581E-011  0.5052886E+02  0.7816164E-02  0.1300439E+00
        -11   -1    0    0    0    0  0.00000000000E+00  0.00000000000E+00  0.45593999997E+02  0.45594000000E+02  0.51100000000E-03 0.  1.
         11   -1    0    0    0    0 -0.00000000000E+00 -0.00000000000E+00 -0.45593999997E+02  0.45594000000E+02  0.51100000000E-03 0. -1.
    9900012    2    1    2    0    0 -0.29279057546E+02  0.27248542594E+02  0.73088570224E+01  0.50528859881E+02  0.30000000094E+02 0.  0.
         12    1    1    2    0    0  0.29279057546E+02 -0.27248542594E+02 -0.73088570224E+01  0.40659140119E+02  0.00000000000E+00 0. -1.
         11    1    3    3    0    0  0.91014823992E+00  0.11696543051E+02 -0.19400956521E+01  0.11891234610E+02  0.51100000000E-03 0. -1.
        -11    1    3    3    0    0 -0.13069398903E+02  0.14653330724E+02  0.11259420426E+01  0.19667156244E+02  0.51100000000E-03 0.  1.
        -12    1    3    3    0    0 -0.17119806883E+02  0.89866881912E+00  0.81230106320E+01  0.18970469027E+02  0.00000000000E+00 0.  1.
</event>
<event>
 7    1  0.2680581E-011  0.5052886E+02  0.7816164E-02  0.1300439E+00
        -11   -1    0    0    0    0  0.00000000000E+00  0.00000000000E+00  0.45593999997E+02  0.45594000000E+02  0.51100000000E-03 0. -1.
         11   -1    0    0    0    0 -0.00000000000E+00 -0.00000000000E+00 -0.45593999997E+02  0.45594000000E+02  0.51100000000E-03 0.  1.
    9900012    2    1    2    0    0  0.37308867709E+02 -0.28175389317E+01 -0.15914629699E+02  0.50528861128E+02  0.30000003885E+02 0.  0.
         12    1    1    2    0    0 -0.37308867709E+02  0.28175389317E+01  0.15914629699E+02  0.40659138872E+02  0.00000000000E+00 0. -1.
         11    1    3    3    0    0  0.11742476685E+02  0.61514314468E+01  0.43335984174E+01  0.13946538748E+02  0.51100000000E-03 0. -1.
        -11    1    3    3    0    0  0.14406335530E+02 -0.37410210413E+01 -0.26814428288E+01  0.15123752105E+02  0.51100000000E-03 0.  1.
        -12    1    3    3    0    0  0.11160055494E+02 -0.52279493372E+01 -0.17566785287E+02  0.21458570275E+02  0.00000000000E+00 0.  1.
</event>
<event>
 7    1  0.2680581E-011  0.5052888E+02  0.7816164E-02  0.1300439E+00
        -11   -1    0    0    0    0  0.00000000000E+00  0.00000000000E+00  0.45593999997E+02  0.45594000000E+02  0.51100000000E-03 0.  1.
         11   -1    0    0    0    0 -0.00000000000E+00 -0.00000000000E+00 -0.45593999997E+02  0.45594000000E+02  0.51100000000E-03 0. -1.
    9900012    2    1    2    0    0 -0.34624738673E+02  0.19438456110E+02  0.87428920806E+01  0.50528877210E+02  0.30000052768E+02 0.  0.
         12    1    1    2    0    0  0.34624738673E+02 -0.19438456110E+02 -0.87428920806E+01  0.40659122790E+02  0.00000000000E+00 0. -1.
         11    1    3    3    0    0 -0.13251578767E+02  0.31748516440E+01 -0.12708054094E+01  0.13685721371E+02  0.51100000000E-03 0. -1.
        -11    1    3    3    0    0 -0.55098999631E+01  0.10297535272E+02 -0.63422537660E+01  0.13289936545E+02  0.51100000000E-03 0.  1.
        -12    1    3    3    0    0 -0.15863259942E+02  0.59660691942E+01  0.16355951256E+02  0.23553219294E+02  0.00000000000E+00 0.  1.
</event>
<event>
 7    1  0.2680581E-011  0.5052886E+02  0.7816164E-02  0.1300439E+00
        -11   -1    0    0    0    0  0.00000000000E+00  0.00000000000E+00  0.45593999997E+02  0.45594000000E+02  0.51100000000E-03 0.  1.
         11   -1    0    0    0    0 -0.00000000000E+00 -0.00000000000E+00 -0.45593999997E+02  0.45594000000E+02  0.51100000000E-03 0. -1.
    9900012    2    1    2    0    0  0.37335235350E+02 -0.24608222413E+01  0.15911956080E+02  0.50528858456E+02  0.29999995764E+02 0.  0.
         12    1    1    2    0    0 -0.37335235350E+02  0.24608222413E+01 -0.15911956080E+02  0.40659141544E+02  0.00000000000E+00 0. -1.
         11    1    3    3    0    0  0.28548216367E+02 -0.44716951845E+00  0.18199824287E+02  0.33859034580E+02  0.51100000000E-03 0.  1.
        -11    1    3    3    0    0  0.42064480358E+01 -0.71469272609E+01  0.20422970679E+01  0.85407114414E+01  0.51100000000E-03 0. -1.
        -12    1    3    3    0    0  0.45805709470E+01  0.51332745381E+01 -0.43301652742E+01  0.81291124353E+01  0.00000000000E+00 0.  1.
</event>
<event>
 7    1  0.2680581E-011  0.5052886E+02  0.7816164E-02  0.1300439E+00
        -11   -1    0    0    0    0  0.00000000000E+00  0.00000000000E+00  0.45593999997E+02  0.45594000000E+02  0.51100000000E-03 0. -1.
         11   -1    0    0    0    0 -0.00000000000E+00 -0.00000000000E+00 -0.45593999997E+02  0.45594000000E+02  0.51100000000E-03 0.  1.
    9900012    2    1    2    0    0  0.24912627027E+02 -0.26605648842E+02 -0.18018498830E+02  0.50528857907E+02  0.29999994093E+02 0.  0.
         12    1    1    2    0    0 -0.24912627027E+02  0.26605648842E+02  0.18018498830E+02  0.40659142093E+02  0.00000000000E+00 0. -1.
         11    1    3    3    0    0  0.92431903677E+01 -0.37066603053E+01  0.31099110007E+01  0.10432997915E+02  0.51100000000E-03 0. -1.
        -11    1    3    3    0    0  0.13413290470E+02 -0.18286862224E+02 -0.50726582690E+01  0.23239138397E+02  0.51100000000E-03 0.  1.
         12    1    3    3    0    0  0.22561461890E+01 -0.46121263127E+01 -0.16055751561E+02  0.16856721595E+02  0.00000000000E+00 0. -1.
</event>
<event>
 7    1  0.2680581E-011  0.5052885E+02  0.7816164E-02  0.1300439E+00
        -11   -1    0    0    0    0  0.00000000000E+00  0.00000000000E+00  0.45593999997E+02  0.45594000000E+02  0.51100000000E-03 0.  1.
         11   -1    0    0    0    0 -0.00000000000E+00 -0.00000000000E+00 -0.45593999997E+02  0.45594000000E+02  0.51100000000E-03 0. -1.
    9900012    2    1    2    0    0 -0.18470258541E+02  0.11479248657E+02  0.34354659036E+02  0.50528853455E+02  0.29999980561E+02 0.  0.
         12    1    1    2    0    0  0.18470258541E+02 -0.11479248657E+02 -0.34354659036E+02  0.40659146545E+02  0.00000000000E+00 0. -1.
         11    1    3    3    0    0  0.18030435989E+01 -0.10702395943E+01 -0.32381054811E+01  0.38576814768E+01  0.51100000000E-03 0. -1.
        -11    1    3    3    0    0 -0.23388088948E+00 -0.22228655377E+00  0.11012321619E+02  0.11017047667E+02  0.51100000000E-03 0.  1.
        -12    1    3    3    0    0 -0.20039421251E+02  0.12771774805E+02  0.26580442898E+02  0.35654124311E+02  0.00000000000E+00 0.  1.
</event>
<event>
 7    1  0.2680581E-011  0.5052886E+02  0.7816164E-02  0.1300439E+00
        -11   -1    0    0    0    0  0.00000000000E+00  0.00000000000E+00  0.45593999997E+02  0.45594000000E+02  0.51100000000E-03 0.  1.
         11   -1    0    0    0    0 -0.00000000000E+00 -0.00000000000E+00 -0.45593999997E+02  0.45594000000E+02  0.51100000000E-03 0. -1.
    9900012    2    1    2    0    0  0.80957435147E+01  0.27625988981E+02  0.28712873966E+02  0.50528862508E+02  0.30000008078E+02 0.  0.
         12    1    1    2    0    0 -0.80957435147E+01 -0.27625988981E+02 -0.28712873966E+02  0.40659137492E+02  0.00000000000E+00 0. -1.
         11    1    3    3    0    0 -0.80033097992E+01  0.20667039934E+01  0.80103453347E+01  0.11510424222E+02  0.51100000000E-03 0. -1.
        -11    1    3    3    0    0 -0.21925552609E+01  0.54451482468E+01  0.41432605048E+01  0.71849527398E+01  0.51100000000E-03 0.  1.
        -12    1    3    3    0    0  0.18291608575E+02  0.20114136741E+02  0.16559268126E+02  0.31833485545E+02  0.00000000000E+00 0.  1.
</event>
<event>
 7    1  0.2680581E-011  0.5052886E+02  0.7816164E-02  0.1300439E+00
        -11   -1    0    0    0    0  0.00000000000E+00  0.00000000000E+00  0.45593999997E+02  0.45594000000E+02  0.51100000000E-03 0.  1.
         11   -1    0    0    0    0 -0.00000000000E+00 -0.00000000000E+00 -0.45593999997E+02  0.45594000000E+02  0.51100000000E-03 0. -1.
    9900012    2    1    2    0    0 -0.24510309800E+02  0.27395404751E+02  0.17375332968E+02  0.50528859776E+02  0.29999999776E+02 0.  0.
         12    1    1    2    0    0  0.24510309800E+02 -0.27395404751E+02 -0.17375332968E+02  0.40659140224E+02  0.00000000000E+00 0. -1.
         11    1    3    3    0    0  0.10014065989E+01  0.37531886260E+01  0.32058561078E+00  0.38976936044E+01  0.51100000000E-03 0. -1.
        -11    1    3    3    0    0 -0.12756934294E+02  0.84447201312E+01  0.21413823478E+02  0.26317380319E+02  0.51100000000E-03 0.  1.
         12    1    3    3    0    0 -0.12754782105E+02  0.15197495994E+02 -0.43590761204E+01  0.20313785853E+02  0.00000000000E+00 0. -1.
</event>
<event>
 7    1  0.2680581E-011  0.5052885E+02  0.7816164E-02  0.1300439E+00
        -11   -1    0    0    0    0  0.00000000000E+00  0.00000000000E+00  0.45593999997E+02  0.45594000000E+02  0.51100000000E-03 0. -1.
         11   -1    0    0    0    0 -0.00000000000E+00 -0.00000000000E+00 -0.45593999997E+02  0.45594000000E+02  0.51100000000E-03 0.  1.
    9900012    2    1    2    0    0  0.39165610207E+02 -0.93108556303E+01  0.57034677922E+01  0.50528848505E+02  0.29999965516E+02 0.  0.
         12    1    1    2    0    0 -0.39165610207E+02  0.93108556303E+01 -0.57034677922E+01  0.40659151495E+02  0.00000000000E+00 0. -1.
         11    1    3    3    0    0  0.53686942067E+01  0.80995967580E+01  0.56659793085E+01  0.11248540657E+02  0.51100000000E-03 0. -1.
        -11    1    3    3    0    0  0.30379809157E+01 -0.51297297569E+01  0.14307473081E+01  0.61311086716E+01  0.51100000000E-03 0.  1.
        -12    1    3    3    0    0  0.30758935084E+02 -0.12280722631E+02 -0.13932588245E+01  0.33149199176E+02  0.00000000000E+00 0.  1.
</event>
<event>
 7    1  0.2680581E-011  0.5052887E+02  0.7816164E-02  0.1300439E+00
        -11   -1    0    0    0    0  0.00000000000E+00  0.00000000000E+00  0.45593999997E+02  0.45594000000E+02  0.51100000000E-03 0.  1.
         11   -1    0    0    0    0 -0.00000000000E+00 -0.00000000000E+00 -0.45593999997E+02  0.45594000000E+02  0.51100000000E-03 0. -1.
    9900012    2    1    2    0    0  0.16429527094E+02  0.13755213721E+02  0.34554733084E+02  0.50528870109E+02  0.30000031182E+02 0.  0.
         12    1    1    2    0    0 -0.16429527094E+02 -0.13755213721E+02 -0.34554733084E+02  0.40659129891E+02  0.00000000000E+00 0. -1.
         11    1    3    3    0    0  0.99558924635E+01 -0.63184846256E+01  0.55922158076E+01  0.13050514189E+02  0.51100000000E-03 0. -1.
        -11    1    3    3    0    0  0.23057385975E+01  0.11143288060E+02  0.23736780921E+02  0.26323450914E+02  0.51100000000E-03 0.  1.
        -12    1    3    3    0    0  0.41678960331E+01  0.89304102861E+01  0.52257363548E+01  0.11154905005E+02  0.00000000000E+00 0.  1.
</event>
<event>
 7    1  0.2680581E-011  0.5052887E+02  0.7816164E-02  0.1300439E+00
        -11   -1    0    0    0    0  0.00000000000E+00  0.00000000000E+00  0.45593999997E+02  0.45594000000E+02  0.51100000000E-03 0.  1.
         11   -1    0    0    0    0 -0.00000000000E+00 -0.00000000000E+00 -0.45593999997E+02  0.45594000000E+02  0.51100000000E-03 0. -1.
    9900012    2    1    2    0    0 -0.29100018031E+02 -0.28044051978E+02 -0.44592298237E+01  0.50528872718E+02  0.30000039113E+02 0.  0.
         12    1    1    2    0    0  0.29100018031E+02  0.28044051978E+02  0.44592298237E+01  0.40659127282E+02  0.00000000000E+00 0. -1.
         11    1    3    3    0    0 -0.79128212897E+01 -0.11297018641E+02  0.53261558666E+01  0.14785239515E+02  0.51100000000E-03 0. -1.
        -11    1    3    3    0    0 -0.23033956298E+02 -0.19822694255E+02 -0.69572014525E+01  0.31175390978E+02  0.51100000000E-03 0.  1.
         12    1    3    3    0    0  0.18467595572E+01  0.30756609182E+01 -0.28281842378E+01  0.45682422253E+01  0.00000000000E+00 0. -1.
</event>
<event>
 7    1  0.2680581E-011  0.5052886E+02  0.7816164E-02  0.1300439E+00
        -11   -1    0    0    0    0  0.00000000000E+00  0.00000000000E+00  0.45593999997E+02  0.45594000000E+02  0.51100000000E-03 0.  1.
         11   -1    0    0    0    0 -0.00000000000E+00 -0.00000000000E+00 -0.45593999997E+02  0.45594000000E+02  0.51100000000E-03 0. -1.
    9900012    2    1    2    0    0  0.78920946168E+01 -0.39318777371E+02  0.67018095172E+01  0.50528860041E+02  0.30000000580E+02 0.  0.
         12    1    1    2    0    0 -0.78920946168E+01  0.39318777371E+02 -0.67018095172E+01  0.40659139959E+02  0.00000000000E+00 0. -1.
         11    1    3    3    0    0  0.88080458222E+01 -0.66298957731E+01  0.72520927872E+00  0.11048217862E+02  0.51100000000E-03 0. -1.
        -11    1    3    3    0    0  0.73256097301E+01 -0.26732047313E+02  0.63939070096E-01  0.27717701923E+02  0.51100000000E-03 0.  1.
        -12    1    3    3    0    0 -0.82415609355E+01 -0.59568342858E+01  0.59126611684E+01  0.11762940255E+02  0.00000000000E+00 0.  1.
</event>
<event>
 7    1  0.2680581E-011  0.5052886E+02  0.7816164E-02  0.1300439E+00
        -11   -1    0    0    0    0  0.00000000000E+00  0.00000000000E+00  0.45593999997E+02  0.45594000000E+02  0.51100000000E-03 0.  1.
         11   -1    0    0    0    0 -0.00000000000E+00 -0.00000000000E+00 -0.45593999997E+02  0.45594000000E+02  0.51100000000E-03 0. -1.
    9900012    2    1    2    0    0  0.76521908315E+01 -0.23476868219E+02  0.32302417631E+02  0.50528861413E+02  0.30000004750E+02 0.  0.
         12    1    1    2    0    0 -0.76521908315E+01  0.23476868219E+02 -0.32302417631E+02  0.40659138587E+02  0.00000000000E+00 0. -1.
         11    1    3    3    0    0  0.49779688203E+01 -0.11044503045E+01  0.10802298074E+02  0.11945276388E+02  0.51100000000E-03 0. -1.
        -11    1    3    3    0    0  0.86147024028E+01 -0.31654535708E+01  0.40990066877E-01  0.91779558859E+01  0.51100000000E-03 0.  1.
        -12    1    3    3    0    0 -0.59404803916E+01 -0.19206964344E+02  0.21459129490E+02  0.29405629139E+02  0.00000000000E+00 0.  1.
</event>
<event>
 7    1  0.2680581E-011  0.5052886E+02  0.7816164E-02  0.1300439E+00
        -11   -1    0    0    0    0  0.00000000000E+00  0.00000000000E+00  0.45593999997E+02  0.45594000000E+02  0.51100000000E-03 0. -1.
         11   -1    0    0    0    0 -0.00000000000E+00 -0.00000000000E+00 -0.45593999997E+02  0.45594000000E+02  0.51100000000E-03 0.  1.
    9900012    2    1    2    0    0  0.15100487907E+02 -0.37619927752E+02 -0.31435766862E+01  0.50528858673E+02  0.29999996421E+02 0.  0.
         12    1    1    2    0    0 -0.15100487907E+02  0.37619927752E+02  0.31435766862E+01  0.40659141327E+02  0.00000000000E+00 0. -1.
         11    1    3    3    0    0  0.70246611919E+01 -0.91801858809E+01  0.58025580833E+01  0.12934116059E+02  0.51100000000E-03 0. -1.
        -11    1    3    3    0    0  0.49922651968E+01 -0.31155005201E+02 -0.50907793915E+01  0.31960492736E+02  0.51100000000E-03 0.  1.
         12    1    3    3    0    0  0.30835615188E+01  0.27152633295E+01 -0.38553553780E+01  0.56342498773E+01  0.00000000000E+00 0. -1.
</event>
<event>
 7    1  0.2680581E-011  0.5052886E+02  0.7816164E-02  0.1300439E+00
        -11   -1    0    0    0    0  0.00000000000E+00  0.00000000000E+00  0.45593999997E+02  0.45594000000E+02  0.51100000000E-03 0. -1.
         11   -1    0    0    0    0 -0.00000000000E+00 -0.00000000000E+00 -0.45593999997E+02  0.45594000000E+02  0.51100000000E-03 0.  1.
    9900012    2    1    2    0    0 -0.17382825893E+02  0.34720542184E+02 -0.12061808654E+02  0.50528856950E+02  0.29999991185E+02 0.  0.
         12    1    1    2    0    0  0.17382825893E+02 -0.34720542184E+02  0.12061808654E+02  0.40659143050E+02  0.00000000000E+00 0. -1.
         11    1    3    3    0    0 -0.13658952835E+02  0.22792469434E+02 -0.10307444312E+01  0.26591842543E+02  0.51100000000E-03 0. -1.
        -11    1    3    3    0    0 -0.43455192419E+01  0.15191984560E+02 -0.42142666711E+01  0.16353592149E+02  0.51100000000E-03 0.  1.
         12    1    3    3    0    0  0.62164618443E+00 -0.32639118103E+01 -0.68167975517E+01  0.75834222581E+01  0.00000000000E+00 0. -1.
</event>
<event>
 7    1  0.2680581E-011  0.5052886E+02  0.7816164E-02  0.1300439E+00
        -11   -1    0    0    0    0  0.00000000000E+00  0.00000000000E+00  0.45593999997E+02  0.45594000000E+02  0.51100000000E-03 0. -1.
         11   -1    0    0    0    0 -0.00000000000E+00 -0.00000000000E+00 -0.45593999997E+02  0.45594000000E+02  0.51100000000E-03 0.  1.
    9900012    2    1    2    0    0  0.19088776730E+02 -0.34121128273E+02 -0.11159441207E+02  0.50528856874E+02  0.29999990955E+02 0.  0.
         12    1    1    2    0    0 -0.19088776730E+02  0.34121128273E+02  0.11159441207E+02  0.40659143126E+02  0.00000000000E+00 0. -1.
         11    1    3    3    0    0  0.10955997191E+01  0.15312581698E+01  0.21472780154E+01  0.28558524933E+01  0.51100000000E-03 0. -1.
        -11    1    3    3    0    0  0.98373231542E+01 -0.63262735928E+01 -0.12647807711E+02  0.17226772900E+02  0.51100000000E-03 0.  1.
         12    1    3    3    0    0  0.81558538569E+01 -0.29326112850E+02 -0.65891151192E+00  0.30446231481E+02  0.00000000000E+00 0. -1.
</event>
<event>
 7    1  0.2680581E-011  0.5052886E+02  0.7816164E-02  0.1300439E+00
        -11   -1    0    0    0    0  0.00000000000E+00  0.00000000000E+00  0.45593999997E+02  0.45594000000E+02  0.51100000000E-03 0.  1.
         11   -1    0    0    0    0 -0.00000000000E+00 -0.00000000000E+00 -0.45593999997E+02  0.45594000000E+02  0.51100000000E-03 0. -1.
    9900012    2    1    2    0    0 -0.39149340385E+02  0.19779988346E+01  0.10797346742E+02  0.50528855535E+02  0.29999986883E+02 0.  0.
         12    1    1    2    0    0  0.39149340385E+02 -0.19779988346E+01 -0.10797346742E+02  0.40659144465E+02  0.00000000000E+00 0. -1.
         11    1    3    3    0    0 -0.19871628265E+01  0.93677590160E+01  0.23311496255E+01  0.98558603845E+01  0.51100000000E-03 0. -1.
        -11    1    3    3    0    0 -0.11619228204E+02  0.24468860890E+01  0.56718861225E+01  0.13159179611E+02  0.51100000000E-03 0.  1.
         12    1    3    3    0    0 -0.25542949355E+02 -0.98366462704E+01  0.27943109945E+01  0.27513815539E+02  0.00000000000E+00 0. -1.
</event>
<event>
 7    1  0.2680581E-011  0.5052886E+02  0.7816164E-02  0.1300439E+00
        -11   -1    0    0    0    0  0.00000000000E+00  0.00000000000E+00  0.45593999997E+02  0.45594000000E+02  0.51100000000E-03 0.  1.
         11   -1    0    0    0    0 -0.00000000000E+00 -0.00000000000E+00 -0.45593999997E+02  0.45594000000E+02  0.51100000000E-03 0. -1.
    9900012    2    1    2    0    0  0.21768211225E+02  0.75073817242E+01  0.33510444347E+02  0.50528859815E+02  0.29999999894E+02 0.  0.
         12    1    1    2    0    0 -0.21768211225E+02 -0.75073817242E+01 -0.33510444347E+02  0.40659140185E+02  0.00000000000E+00 0. -1.
         11    1    3    3    0    0  0.10491759115E+02  0.41873480400E+01 -0.17277569455E+00  0.11297820349E+02  0.51100000000E-03 0. -1.
        -11    1    3    3    0    0  0.39967091525E+01  0.93351687091E+01  0.13016584973E+02  0.16509104867E+02  0.51100000000E-03 0.  1.
        -12    1    3    3    0    0  0.72797429569E+01 -0.60151350250E+01  0.20666635068E+02  0.22721934599E+02  0.00000000000E+00 0.  1.
</event>
<event>
 7    1  0.2680581E-011  0.5052886E+02  0.7816164E-02  0.1300439E+00
        -11   -1    0    0    0    0  0.00000000000E+00  0.00000000000E+00  0.45593999997E+02  0.45594000000E+02  0.51100000000E-03 0. -1.
         11   -1    0    0    0    0 -0.00000000000E+00 -0.00000000000E+00 -0.45593999997E+02  0.45594000000E+02  0.51100000000E-03 0.  1.
    9900012    2    1    2    0    0  0.35963185714E+02  0.47591310262E+01  0.18362063574E+02  0.50528862853E+02  0.30000009129E+02 0.  0.
         12    1    1    2    0    0 -0.35963185714E+02 -0.47591310262E+01 -0.18362063574E+02  0.40659137147E+02  0.00000000000E+00 0. -1.
         11    1    3    3    0    0  0.18908805769E+01  0.10747144461E+00  0.64040001478E+01  0.66781881990E+01  0.51100000000E-03 0. -1.
        -11    1    3    3    0    0  0.17567102272E+02  0.13957281573E+02  0.10710034600E+02  0.24861891170E+02  0.51100000000E-03 0.  1.
        -12    1    3    3    0    0  0.16505202865E+02 -0.93056219914E+01  0.12480288258E+01  0.18988783485E+02  0.00000000000E+00 0.  1.
</event>
<event>
 7    1  0.2680581E-011  0.5052888E+02  0.7816164E-02  0.1300439E+00
        -11   -1    0    0    0    0  0.00000000000E+00  0.00000000000E+00  0.45593999997E+02  0.45594000000E+02  0.51100000000E-03 0.  1.
         11   -1    0    0    0    0 -0.00000000000E+00 -0.00000000000E+00 -0.45593999997E+02  0.45594000000E+02  0.51100000000E-03 0. -1.
    9900012    2    1    2    0    0 -0.71476592892E+00  0.16830163161E+02  0.37005382770E+02  0.50528884954E+02  0.30000076306E+02 0.  0.
         12    1    1    2    0    0  0.71476592892E+00 -0.16830163161E+02 -0.37005382770E+02  0.40659115046E+02  0.00000000000E+00 0. -1.
         11    1    3    3    0    0  0.40888525413E+01 -0.27698740139E+01  0.43189819927E+01  0.65608324832E+01  0.51100000000E-03 0. -1.
        -11    1    3    3    0    0  0.39645501705E+01  0.16938065061E+02  0.29536237326E+02  0.34278346251E+02  0.51100000000E-03 0.  1.
         12    1    3    3    0    0 -0.87681686408E+01  0.26619721144E+01  0.31501634510E+01  0.96897062194E+01  0.00000000000E+00 0. -1.
</event>
<event>
 7    1  0.2680581E-011  0.5052886E+02  0.7816164E-02  0.1300439E+00
        -11   -1    0    0    0    0  0.00000000000E+00  0.00000000000E+00  0.45593999997E+02  0.45594000000E+02  0.51100000000E-03 0.  1.
         11   -1    0    0    0    0 -0.00000000000E+00 -0.00000000000E+00 -0.45593999997E+02  0.45594000000E+02  0.51100000000E-03 0. -1.
    9900012    2    1    2    0    0 -0.17204246672E+02 -0.36839715946E+02 -0.12256147895E+00  0.50528858397E+02  0.29999995584E+02 0.  0.
         12    1    1    2    0    0  0.17204246672E+02  0.36839715946E+02  0.12256147895E+00  0.40659141603E+02  0.00000000000E+00 0. -1.
         11    1    3    3    0    0  0.25269325400E+01 -0.11156377571E+02 -0.59944671355E+01  0.12914479667E+02  0.51100000000E-03 0. -1.
        -11    1    3    3    0    0 -0.52906457577E+00 -0.14595141859E+02  0.49529356819E+01  0.15421726471E+02  0.51100000000E-03 0.  1.
        -12    1    3    3    0    0 -0.19202114636E+02 -0.11088196516E+02  0.91896997468E+00  0.22192652259E+02  0.00000000000E+00 0.  1.
</event>
<event>
 7    1  0.2680581E-011  0.5052886E+02  0.7816164E-02  0.1300439E+00
        -11   -1    0    0    0    0  0.00000000000E+00  0.00000000000E+00  0.45593999997E+02  0.45594000000E+02  0.51100000000E-03 0.  1.
         11   -1    0    0    0    0 -0.00000000000E+00 -0.00000000000E+00 -0.45593999997E+02  0.45594000000E+02  0.51100000000E-03 0. -1.
    9900012    2    1    2    0    0  0.29845771936E+01  0.22316770143E+02  0.33855870279E+02  0.50528857326E+02  0.29999992327E+02 0.  0.
         12    1    1    2    0    0 -0.29845771936E+01 -0.22316770143E+02 -0.33855870279E+02  0.40659142674E+02  0.00000000000E+00 0. -1.
         11    1    3    3    0    0  0.16011608909E+01  0.13497435210E+02  0.15239458821E+02  0.20420224751E+02  0.51100000000E-03 0. -1.
        -11    1    3    3    0    0 -0.98557647890E+01  0.66907882934E+01  0.70551067378E+01  0.13844756369E+02  0.51100000000E-03 0.  1.
         12    1    3    3    0    0  0.11239181092E+02  0.21285466394E+01  0.11561304721E+02  0.16263876206E+02  0.00000000000E+00 0. -1.
</event>
<event>
 7    1  0.2680581E-011  0.5052886E+02  0.7816164E-02  0.1300439E+00
        -11   -1    0    0    0    0  0.00000000000E+00  0.00000000000E+00  0.45593999997E+02  0.45594000000E+02  0.51100000000E-03 0.  1.
         11   -1    0    0    0    0 -0.00000000000E+00 -0.00000000000E+00 -0.45593999997E+02  0.45594000000E+02  0.51100000000E-03 0. -1.
    9900012    2    1    2    0    0 -0.19314152596E+02 -0.45207139582E+01  0.35492144715E+02  0.50528859802E+02  0.29999999853E+02 0.  0.
         12    1    1    2    0    0  0.19314152596E+02  0.45207139582E+01 -0.35492144715E+02  0.40659140198E+02  0.00000000000E+00 0. -1.
         11    1    3    3    0    0 -0.16533376059E+02 -0.40146307703E+01  0.19496960423E+02  0.25876654539E+02  0.51100000000E-03 0. -1.
        -11    1    3    3    0    0 -0.19498213337E+01  0.22460850963E+01  0.19722207753E+02  0.19945229515E+02  0.51100000000E-03 0.  1.
         12    1    3    3    0    0 -0.83095520313E+00 -0.27521682842E+01 -0.37270234607E+01  0.47069757479E+01  0.00000000000E+00 0. -1.
</event>
<event>
 7    1  0.2680581E-011  0.5052885E+02  0.7816164E-02  0.1300439E+00
        -11   -1    0    0    0    0  0.00000000000E+00  0.00000000000E+00  0.45593999997E+02  0.45594000000E+02  0.51100000000E-03 0.  1.
         11   -1    0    0    0    0 -0.00000000000E+00 -0.00000000000E+00 -0.45593999997E+02  0.45594000000E+02  0.51100000000E-03 0. -1.
    9900012    2    1    2    0    0 -0.20972318349E+02 -0.33892618096E+02  0.80385613689E+01  0.50528853831E+02  0.29999981703E+02 0.  0.
         12    1    1    2    0    0  0.20972318349E+02  0.33892618096E+02 -0.80385613689E+01  0.40659146169E+02  0.00000000000E+00 0. -1.
         11    1    3    3    0    0 -0.67555870907E+01 -0.23657387111E+02 -0.21740076727E+01  0.24698911545E+02  0.51100000000E-03 0. -1.
        -11    1    3    3    0    0  0.15559917792E+01 -0.74377619728E+01  0.44510757119E+01  0.88064458685E+01  0.51100000000E-03 0.  1.
        -12    1    3    3    0    0 -0.15772723037E+02 -0.27974690124E+01  0.57614933298E+01  0.17023496418E+02  0.00000000000E+00 0.  1.
</event>
<event>
 7    1  0.2680581E-011  0.5052884E+02  0.7816164E-02  0.1300439E+00
        -11   -1    0    0    0    0  0.00000000000E+00  0.00000000000E+00  0.45593999997E+02  0.45594000000E+02  0.51100000000E-03 0. -1.
         11   -1    0    0    0    0 -0.00000000000E+00 -0.00000000000E+00 -0.45593999997E+02  0.45594000000E+02  0.51100000000E-03 0.  1.
    9900012    2    1    2    0    0 -0.97868776001E+01 -0.24916559570E+02 -0.30603094959E+02  0.50528839470E+02  0.29999938053E+02 0.  0.
         12    1    1    2    0    0  0.97868776001E+01  0.24916559570E+02  0.30603094959E+02  0.40659160530E+02  0.00000000000E+00 0. -1.
         11    1    3    3    0    0  0.29084654267E+01 -0.23793144932E+01 -0.10364817352E+02  0.11024960208E+02  0.51100000000E-03 0. -1.
        -11    1    3    3    0    0 -0.10536897594E+02 -0.12327314037E+02 -0.23516073932E+02  0.28565619470E+02  0.51100000000E-03 0.  1.
        -12    1    3    3    0    0 -0.21584454331E+01 -0.10209931040E+02  0.32777963252E+01  0.10938259792E+02  0.00000000000E+00 0.  1.
</event>
<event>
 7    1  0.2680581E-011  0.5052889E+02  0.7816164E-02  0.1300439E+00
        -11   -1    0    0    0    0  0.00000000000E+00  0.00000000000E+00  0.45593999997E+02  0.45594000000E+02  0.51100000000E-03 0.  1.
         11   -1    0    0    0    0 -0.00000000000E+00 -0.00000000000E+00 -0.45593999997E+02  0.45594000000E+02  0.51100000000E-03 0. -1.
    9900012    2    1    2    0    0  0.19090378553E+02  0.16703901862E+01  0.35859869799E+02  0.50528892549E+02  0.30000099393E+02 0.  0.
         12    1    1    2    0    0 -0.19090378553E+02 -0.16703901862E+01 -0.35859869799E+02  0.40659107451E+02  0.00000000000E+00 0. -1.
         11    1    3    3    0    0  0.47612447685E+01 -0.33855201806E+01 -0.12333114594E+00  0.58434929171E+01  0.51100000000E-03 0. -1.
        -11    1    3    3    0    0  0.24965704693E+01  0.10511270303E+02  0.69059917132E+01  0.12822339463E+02  0.51100000000E-03 0.  1.
        -12    1    3    3    0    0  0.11832563315E+02 -0.54553599363E+01  0.29077209232E+02  0.31863060169E+02  0.00000000000E+00 0.  1.
</event>
<event>
 7    1  0.2680581E-011  0.5052887E+02  0.7816164E-02  0.1300439E+00
        -11   -1    0    0    0    0  0.00000000000E+00  0.00000000000E+00  0.45593999997E+02  0.45594000000E+02  0.51100000000E-03 0.  1.
         11   -1    0    0    0    0 -0.00000000000E+00 -0.00000000000E+00 -0.45593999997E+02  0.45594000000E+02  0.51100000000E-03 0. -1.
    9900012    2    1    2    0    0 -0.38597166181E+02 -0.12571391528E+02  0.23203456984E+01  0.50528866631E+02  0.30000020611E+02 0.  0.
         12    1    1    2    0    0  0.38597166181E+02  0.12571391528E+02 -0.23203456984E+01  0.40659133369E+02  0.00000000000E+00 0. -1.
         11    1    3    3    0    0  0.12705513643E+01 -0.50881404839E+01  0.14279899346E+01  0.54353132263E+01  0.51100000000E-03 0. -1.
        -11    1    3    3    0    0 -0.19023658311E+02  0.43396293706E+01  0.63437741851E+01  0.20517685780E+02  0.51100000000E-03 0.  1.
         12    1    3    3    0    0 -0.20844059235E+02 -0.11822880415E+02 -0.54514184214E+01  0.24575867625E+02  0.00000000000E+00 0. -1.
</event>
<event>
 7    1  0.2680581E-011  0.5052886E+02  0.7816164E-02  0.1300439E+00
        -11   -1    0    0    0    0  0.00000000000E+00  0.00000000000E+00  0.45593999997E+02  0.45594000000E+02  0.51100000000E-03 0.  1.
         11   -1    0    0    0    0 -0.00000000000E+00 -0.00000000000E+00 -0.45593999997E+02  0.45594000000E+02  0.51100000000E-03 0. -1.
    9900012    2    1    2    0    0  0.19399565395E+02 -0.11685607265E+02  0.33767873435E+02  0.50528857965E+02  0.29999994271E+02 0.  0.
         12    1    1    2    0    0 -0.19399565395E+02  0.11685607265E+02 -0.33767873435E+02  0.40659142035E+02  0.00000000000E+00 0. -1.
         11    1    3    3    0    0  0.97057367490E+01 -0.98569141506E+00 -0.18990986838E+01  0.99387871231E+01  0.51100000000E-03 0. -1.
        -11    1    3    3    0    0  0.82938073664E+01 -0.42545790527E+01  0.84368941140E+01  0.12572583907E+02  0.51100000000E-03 0.  1.
         12    1    3    3    0    0  0.14000212794E+01 -0.64453367975E+01  0.27230078005E+02  0.28017486935E+02  0.00000000000E+00 0. -1.
</event>
<event>
 7    1  0.2680581E-011  0.5052887E+02  0.7816164E-02  0.1300439E+00
        -11   -1    0    0    0    0  0.00000000000E+00  0.00000000000E+00  0.45593999997E+02  0.45594000000E+02  0.51100000000E-03 0.  1.
         11   -1    0    0    0    0 -0.00000000000E+00 -0.00000000000E+00 -0.45593999997E+02  0.45594000000E+02  0.51100000000E-03 0. -1.
    9900012    2    1    2    0    0 -0.20156913194E+02  0.32326639550E+02  0.14207474346E+02  0.50528866937E+02  0.30000021542E+02 0.  0.
         12    1    1    2    0    0  0.20156913194E+02 -0.32326639550E+02 -0.14207474346E+02  0.40659133063E+02  0.00000000000E+00 0. -1.
         11    1    3    3    0    0 -0.15121885890E+02  0.51192600108E+01  0.61028114188E+01  0.17091593354E+02  0.51100000000E-03 0. -1.
        -11    1    3    3    0    0  0.46681712617E+01  0.27997679616E+01  0.42164215165E+01  0.68854000779E+01  0.51100000000E-03 0.  1.
        -12    1    3    3    0    0 -0.97031985659E+01  0.24407611578E+02  0.38882414103E+01  0.26551873505E+02  0.00000000000E+00 0.  1.
</event>
<event>
 7    1  0.2680581E-011  0.5052886E+02  0.7816164E-02  0.1300439E+00
        -11   -1    0    0    0    0  0.00000000000E+00  0.00000000000E+00  0.45593999997E+02  0.45594000000E+02  0.51100000000E-03 0.  1.
         11   -1    0    0    0    0 -0.00000000000E+00 -0.00000000000E+00 -0.45593999997E+02  0.45594000000E+02  0.51100000000E-03 0. -1.
    9900012    2    1    2    0    0 -0.39112625573E+02  0.10985742866E+02 -0.16375980690E+01  0.50528858925E+02  0.29999997188E+02 0.  0.
         12    1    1    2    0    0  0.39112625573E+02 -0.10985742866E+02  0.16375980690E+01  0.40659141075E+02  0.00000000000E+00 0. -1.
         11    1    3    3    0    0 -0.56246128713E+01 -0.27534947523E+01 -0.41411787444E+01  0.75078202533E+01  0.51100000000E-03 0. -1.
        -11    1    3    3    0    0 -0.97253944081E+01  0.11368749046E+01  0.11082515192E+02  0.14788438869E+02  0.51100000000E-03 0.  1.
         12    1    3    3    0    0 -0.23762618294E+02  0.12602362714E+02 -0.85789345168E+01  0.28232599802E+02  0.00000000000E+00 0. -1.
</event>
<event>
 7    1  0.2680581E-011  0.5052885E+02  0.7816164E-02  0.1300439E+00
        -11   -1    0    0    0    0  0.00000000000E+00  0.00000000000E+00  0.45593999997E+02  0.45594000000E+02  0.51100000000E-03 0.  1.
         11   -1    0    0    0    0 -0.00000000000E+00 -0.00000000000E+00 -0.45593999997E+02  0.45594000000E+02  0.51100000000E-03 0. -1.
    9900012    2    1    2    0    0  0.38716549930E+02  0.87900486747E+01 -0.87710042310E+01  0.50528847163E+02  0.29999961437E+02 0.  0.
         12    1    1    2    0    0 -0.38716549930E+02 -0.87900486747E+01  0.87710042310E+01  0.40659152837E+02  0.00000000000E+00 0. -1.
         11    1    3    3    0    0  0.23603119415E+01  0.72514244840E+01  0.12370074121E+01  0.77255690474E+01  0.51100000000E-03 0. -1.
        -11    1    3    3    0    0  0.16601777237E+02 -0.34935857432E+00  0.56340077358E+01  0.17535196100E+02  0.51100000000E-03 0.  1.
        -12    1    3    3    0    0  0.19754460751E+02  0.18879827650E+01 -0.15642019379E+02  0.25268082016E+02  0.00000000000E+00 0.  1.
</event>
<event>
 7    1  0.2680581E-011  0.5052886E+02  0.7816164E-02  0.1300439E+00
        -11   -1    0    0    0    0  0.00000000000E+00  0.00000000000E+00  0.45593999997E+02  0.45594000000E+02  0.51100000000E-03 0. -1.
         11   -1    0    0    0    0 -0.00000000000E+00 -0.00000000000E+00 -0.45593999997E+02  0.45594000000E+02  0.51100000000E-03 0.  1.
    9900012    2    1    2    0    0 -0.33634415384E+02 -0.18825986363E+02  0.12941174256E+02  0.50528860168E+02  0.30000000967E+02 0.  0.
         12    1    1    2    0    0  0.33634415384E+02  0.18825986363E+02 -0.12941174256E+02  0.40659139832E+02  0.00000000000E+00 0. -1.
         11    1    3    3    0    0 -0.14143797615E+02 -0.31259221020E+01  0.55585424294E+01  0.15515018343E+02  0.51100000000E-03 0. -1.
        -11    1    3    3    0    0 -0.23884604366E+02 -0.10716684947E+02  0.16363992462E+01  0.26229743894E+02  0.51100000000E-03 0.  1.
        -12    1    3    3    0    0  0.43939865976E+01 -0.49833793142E+01  0.57462325800E+01  0.87840979316E+01  0.00000000000E+00 0.  1.
</event>
<event>
 7    1  0.2680581E-011  0.5052886E+02  0.7816164E-02  0.1300439E+00
        -11   -1    0    0    0    0  0.00000000000E+00  0.00000000000E+00  0.45593999997E+02  0.45594000000E+02  0.51100000000E-03 0. -1.
         11   -1    0    0    0    0 -0.00000000000E+00 -0.00000000000E+00 -0.45593999997E+02  0.45594000000E+02  0.51100000000E-03 0.  1.
    9900012    2    1    2    0    0 -0.54687408031E+01 -0.16068209272E+02 -0.36946868361E+02  0.50528861336E+02  0.30000004518E+02 0.  0.
         12    1    1    2    0    0  0.54687408031E+01  0.16068209272E+02  0.36946868361E+02  0.40659138664E+02  0.00000000000E+00 0. -1.
         11    1    3    3    0    0 -0.17331709878E+00  0.65335299545E+01 -0.11543525342E+01  0.66369859513E+01  0.51100000000E-03 0. -1.
        -11    1    3    3    0    0 -0.54054867452E+01 -0.44257840702E+01 -0.73749833836E+01  0.10158603829E+02  0.51100000000E-03 0.  1.
        -12    1    3    3    0    0  0.11006304091E+00 -0.18175955156E+02 -0.28417532443E+02  0.33733271556E+02  0.00000000000E+00 0.  1.
</event>
<event>
 7    1  0.2680581E-011  0.5052886E+02  0.7816164E-02  0.1300439E+00
        -11   -1    0    0    0    0  0.00000000000E+00  0.00000000000E+00  0.45593999997E+02  0.45594000000E+02  0.51100000000E-03 0.  1.
         11   -1    0    0    0    0 -0.00000000000E+00 -0.00000000000E+00 -0.45593999997E+02  0.45594000000E+02  0.51100000000E-03 0. -1.
    9900012    2    1    2    0    0 -0.11600408745E+02 -0.17292966938E+00  0.38968787017E+02  0.50528858970E+02  0.29999997326E+02 0.  0.
         12    1    1    2    0    0  0.11600408745E+02  0.17292966938E+00 -0.38968787017E+02  0.40659141030E+02  0.00000000000E+00 0. -1.
         11    1    3    3    0    0  0.18182857620E+01  0.10535929810E+01  0.17595015502E+02  0.17720067496E+02  0.51100000000E-03 0. -1.
        -11    1    3    3    0    0 -0.45146140577E+01 -0.10607538094E+02  0.13121909699E+02  0.17466714600E+02  0.51100000000E-03 0.  1.
         12    1    3    3    0    0 -0.89040804495E+01  0.93810154433E+01  0.82518618154E+01  0.15342076874E+02  0.00000000000E+00 0. -1.
</event>
<event>
 7    1  0.2680581E-011  0.5052885E+02  0.7816164E-02  0.1300439E+00
        -11   -1    0    0    0    0  0.00000000000E+00  0.00000000000E+00  0.45593999997E+02  0.45594000000E+02  0.51100000000E-03 0.  1.
         11   -1    0    0    0    0 -0.00000000000E+00 -0.00000000000E+00 -0.45593999997E+02  0.45594000000E+02  0.51100000000E-03 0. -1.
    9900012    2    1    2    0    0 -0.28444777185E+02  0.22833103779E+01  0.28962860407E+02  0.50528854186E+02  0.29999982784E+02 0.  0.
         12    1    1    2    0    0  0.28444777185E+02 -0.22833103779E+01 -0.28962860407E+02  0.40659145814E+02  0.00000000000E+00 0. -1.
         11    1    3    3    0    0 -0.95501017738E+01  0.30226995097E+01  0.30148254934E+01  0.10460895240E+02  0.51100000000E-03 0. -1.
        -11    1    3    3    0    0 -0.24042499708E+02 -0.32506464881E+01  0.23696537569E+02  0.33913631298E+02  0.51100000000E-03 0.  1.
         12    1    3    3    0    0  0.51478242970E+01  0.25112573563E+01  0.22514973444E+01  0.61543276476E+01  0.00000000000E+00 0. -1.
</event>
<event>
 7    1  0.2680581E-011  0.5052888E+02  0.7816164E-02  0.1300439E+00
        -11   -1    0    0    0    0  0.00000000000E+00  0.00000000000E+00  0.45593999997E+02  0.45594000000E+02  0.51100000000E-03 0.  1.
         11   -1    0    0    0    0 -0.00000000000E+00 -0.00000000000E+00 -0.45593999997E+02  0.45594000000E+02  0.51100000000E-03 0. -1.
    9900012    2    1    2    0    0 -0.14057626785E+02  0.38095504541E+02 -0.20687505958E+01  0.50528879669E+02  0.30000060243E+02 0.  0.
         12    1    1    2    0    0  0.14057626785E+02 -0.38095504541E+02  0.20687505958E+01  0.40659120331E+02  0.00000000000E+00 0. -1.
         11    1    3    3    0    0 -0.16310338521E+01 -0.21950621256E+01 -0.57080121093E+01  0.63292947208E+01  0.51100000000E-03 0. -1.
        -11    1    3    3    0    0  0.50946758937E+00  0.19767035145E+02  0.22215403896E+01  0.19898001849E+02  0.51100000000E-03 0.  1.
        -12    1    3    3    0    0 -0.12936060522E+02  0.20523531521E+02  0.14177211239E+01  0.24301583099E+02  0.00000000000E+00 0.  1.
</event>
<event>
 7    1  0.2680581E-011  0.5052886E+02  0.7816164E-02  0.1300439E+00
        -11   -1    0    0    0    0  0.00000000000E+00  0.00000000000E+00  0.45593999997E+02  0.45594000000E+02  0.51100000000E-03 0.  1.
         11   -1    0    0    0    0 -0.00000000000E+00 -0.00000000000E+00 -0.45593999997E+02  0.45594000000E+02  0.51100000000E-03 0. -1.
    9900012    2    1    2    0    0 -0.14129050470E+02 -0.25444914214E+02  0.28391758458E+02  0.50528859885E+02  0.30000000105E+02 0.  0.
         12    1    1    2    0    0  0.14129050470E+02  0.25444914214E+02 -0.28391758458E+02  0.40659140115E+02  0.00000000000E+00 0. -1.
         11    1    3    3    0    0  0.45215429130E+01 -0.10902178425E+02  0.24880389533E+01  0.12062014045E+02  0.51100000000E-03 0.  1.
        -11    1    3    3    0    0 -0.15198536231E+01  0.32607683965E+01  0.21369158347E+01  0.41843727268E+01  0.51100000000E-03 0. -1.
        -12    1    3    3    0    0 -0.17130739760E+02 -0.17803504185E+02  0.23766803670E+02  0.34282473113E+02  0.00000000000E+00 0.  1.
</event>
<event>
 7    1  0.2680581E-011  0.5052886E+02  0.7816164E-02  0.1300439E+00
        -11   -1    0    0    0    0  0.00000000000E+00  0.00000000000E+00  0.45593999997E+02  0.45594000000E+02  0.51100000000E-03 0. -1.
         11   -1    0    0    0    0 -0.00000000000E+00 -0.00000000000E+00 -0.45593999997E+02  0.45594000000E+02  0.51100000000E-03 0.  1.
    9900012    2    1    2    0    0  0.32756208167E+02 -0.13391864259E+02 -0.20021352895E+02  0.50528858671E+02  0.29999996417E+02 0.  0.
         12    1    1    2    0    0 -0.32756208167E+02  0.13391864259E+02  0.20021352895E+02  0.40659141329E+02  0.00000000000E+00 0. -1.
         11    1    3    3    0    0 -0.63620519161E+00 -0.45446030134E+01 -0.77716487992E+01  0.90253364987E+01  0.51100000000E-03 0. -1.
        -11    1    3    3    0    0  0.18545648910E+02 -0.38403059237E+01 -0.16662627505E+02  0.25225625834E+02  0.51100000000E-03 0.  1.
         12    1    3    3    0    0  0.14846764449E+02 -0.50069553219E+01  0.44129234092E+01  0.16277896338E+02  0.00000000000E+00 0. -1.
</event>
<event>
 7    1  0.2680581E-011  0.5052885E+02  0.7816164E-02  0.1300439E+00
        -11   -1    0    0    0    0  0.00000000000E+00  0.00000000000E+00  0.45593999997E+02  0.45594000000E+02  0.51100000000E-03 0.  1.
         11   -1    0    0    0    0 -0.00000000000E+00 -0.00000000000E+00 -0.45593999997E+02  0.45594000000E+02  0.51100000000E-03 0. -1.
    9900012    2    1    2    0    0 -0.36528141820E+02  0.68865504601E+00  0.17843400055E+02  0.50528852000E+02  0.29999976139E+02 0.  0.
         12    1    1    2    0    0  0.36528141820E+02 -0.68865504601E+00 -0.17843400055E+02  0.40659148000E+02  0.00000000000E+00 0. -1.
         11    1    3    3    0    0 -0.83939884817E+01 -0.96086098460E+01  0.10882010510E+02  0.16769095945E+02  0.51100000000E-03 0. -1.
        -11    1    3    3    0    0 -0.12266282159E+02  0.78929074764E+00  0.88776489497E+01  0.15162364889E+02  0.51100000000E-03 0.  1.
        -12    1    3    3    0    0 -0.15867871179E+02  0.95079741444E+01 -0.19162594049E+01  0.18597391166E+02  0.00000000000E+00 0.  1.
</event>
<event>
 7    1  0.2680581E-011  0.5052885E+02  0.7816164E-02  0.1300439E+00
        -11   -1    0    0    0    0  0.00000000000E+00  0.00000000000E+00  0.45593999997E+02  0.45594000000E+02  0.51100000000E-03 0. -1.
         11   -1    0    0    0    0 -0.00000000000E+00 -0.00000000000E+00 -0.45593999997E+02  0.45594000000E+02  0.51100000000E-03 0.  1.
    9900012    2    1    2    0    0  0.22719268794E+02 -0.33559553076E+02  0.32799059803E+01  0.50528848995E+02  0.29999967005E+02 0.  0.
         12    1    1    2    0    0 -0.22719268794E+02  0.33559553076E+02 -0.32799059803E+01  0.40659151005E+02  0.00000000000E+00 0. -1.
         11    1    3    3    0    0  0.20677492964E+01 -0.15944796905E+02  0.25834087143E+01  0.16284536725E+02  0.51100000000E-03 0. -1.
        -11    1    3    3    0    0  0.14634152427E+02 -0.20501472939E+02 -0.47468067169E+01  0.25632030435E+02  0.51100000000E-03 0.  1.
         12    1    3    3    0    0  0.60173670705E+01  0.28867167679E+01  0.54433039829E+01  0.86122818353E+01  0.00000000000E+00 0. -1.
</event>
<event>
 7    1  0.2680581E-011  0.5052885E+02  0.7816164E-02  0.1300439E+00
        -11   -1    0    0    0    0  0.00000000000E+00  0.00000000000E+00  0.45593999997E+02  0.45594000000E+02  0.51100000000E-03 0. -1.
         11   -1    0    0    0    0 -0.00000000000E+00 -0.00000000000E+00 -0.45593999997E+02  0.45594000000E+02  0.51100000000E-03 0.  1.
    9900012    2    1    2    0    0  0.30666751947E+02 -0.23649290349E+02 -0.12386604233E+02  0.50528848835E+02  0.29999966520E+02 0.  0.
         12    1    1    2    0    0 -0.30666751947E+02  0.23649290349E+02  0.12386604233E+02  0.40659151165E+02  0.00000000000E+00 0. -1.
         11    1    3    3    0    0  0.75328871532E+01 -0.15598280824E+02 -0.38237746979E+01  0.17738996779E+02  0.51100000000E-03 0. -1.
        -11    1    3    3    0    0  0.25111324196E+02 -0.11543576305E+02 -0.75637053260E+01  0.28653837357E+02  0.51100000000E-03 0.  1.
         12    1    3    3    0    0 -0.19774594016E+01  0.34925667807E+01 -0.99912420945E+00  0.41360146988E+01  0.00000000000E+00 0. -1.
</event>
<event>
 7    1  0.2680581E-011  0.5052885E+02  0.7816164E-02  0.1300439E+00
        -11   -1    0    0    0    0  0.00000000000E+00  0.00000000000E+00  0.45593999997E+02  0.45594000000E+02  0.51100000000E-03 0.  1.
         11   -1    0    0    0    0 -0.00000000000E+00 -0.00000000000E+00 -0.45593999997E+02  0.45594000000E+02  0.51100000000E-03 0. -1.
    9900012    2    1    2    0    0 -0.35314843173E+02 -0.47982519778E+01  0.19570509529E+02  0.50528853260E+02  0.29999979970E+02 0.  0.
         12    1    1    2    0    0  0.35314843173E+02  0.47982519778E+01 -0.19570509529E+02  0.40659146740E+02  0.00000000000E+00 0. -1.
         11    1    3    3    0    0 -0.21096817411E+02  0.39109901965E+00  0.27904564806E+01  0.21284156337E+02  0.51100000000E-03 0. -1.
        -11    1    3    3    0    0 -0.98748256452E+01  0.50778826124E+01  0.13785708386E+02  0.17701492290E+02  0.51100000000E-03 0.  1.
        -12    1    3    3    0    0 -0.43432001163E+01 -0.10267233610E+02  0.29943446624E+01  0.11543204633E+02  0.00000000000E+00 0.  1.
</event>
<event>
 7    1  0.2680581E-011  0.5052887E+02  0.7816164E-02  0.1300439E+00
        -11   -1    0    0    0    0  0.00000000000E+00  0.00000000000E+00  0.45593999997E+02  0.45594000000E+02  0.51100000000E-03 0. -1.
         11   -1    0    0    0    0 -0.00000000000E+00 -0.00000000000E+00 -0.45593999997E+02  0.45594000000E+02  0.51100000000E-03 0.  1.
    9900012    2    1    2    0    0  0.32447995785E+02  0.17326587930E+02 -0.17322869636E+02  0.50528869511E+02  0.30000029364E+02 0.  0.
         12    1    1    2    0    0 -0.32447995785E+02 -0.17326587930E+02  0.17322869636E+02  0.40659130489E+02  0.00000000000E+00 0. -1.
         11    1    3    3    0    0  0.12247998000E+02  0.35795126211E+01 -0.28886499150E+01  0.13083220713E+02  0.51100000000E-03 0. -1.
        -11    1    3    3    0    0 -0.21954434257E+01  0.10109160308E+02  0.37449416679E+00  0.10351586357E+02  0.51100000000E-03 0.  1.
         12    1    3    3    0    0  0.22395441210E+02  0.36379150008E+01 -0.14808713887E+02  0.27094062441E+02  0.00000000000E+00 0. -1.
</event>
<event>
 7    1  0.2680581E-011  0.5052889E+02  0.7816164E-02  0.1300439E+00
        -11   -1    0    0    0    0  0.00000000000E+00  0.00000000000E+00  0.45593999997E+02  0.45594000000E+02  0.51100000000E-03 0.  1.
         11   -1    0    0    0    0 -0.00000000000E+00 -0.00000000000E+00 -0.45593999997E+02  0.45594000000E+02  0.51100000000E-03 0. -1.
    9900012    2    1    2    0    0 -0.24116425494E+01 -0.40161334435E+02  0.58663782474E+01  0.50528890355E+02  0.30000092722E+02 0.  0.
         12    1    1    2    0    0  0.24116425494E+01  0.40161334435E+02 -0.58663782474E+01  0.40659109645E+02  0.00000000000E+00 0. -1.
         11    1    3    3    0    0  0.65890629346E+01 -0.10773520337E+02  0.11324855125E+02  0.16962807394E+02  0.51100000000E-03 0. -1.
        -11    1    3    3    0    0 -0.60635271854E+01 -0.19493478099E+02  0.24530155786E+01  0.20561598577E+02  0.51100000000E-03 0.  1.
        -12    1    3    3    0    0 -0.29371782986E+01 -0.98943359987E+01 -0.79114924562E+01  0.13004484384E+02  0.00000000000E+00 0.  1.
</event>
<event>
 7    1  0.2680581E-011  0.5052886E+02  0.7816164E-02  0.1300439E+00
        -11   -1    0    0    0    0  0.00000000000E+00  0.00000000000E+00  0.45593999997E+02  0.45594000000E+02  0.51100000000E-03 0. -1.
         11   -1    0    0    0    0 -0.00000000000E+00 -0.00000000000E+00 -0.45593999997E+02  0.45594000000E+02  0.51100000000E-03 0.  1.
    9900012    2    1    2    0    0  0.12396121465E+02 -0.37577776742E+02 -0.93494521614E+01  0.50528863413E+02  0.30000010831E+02 0.  0.
         12    1    1    2    0    0 -0.12396121465E+02  0.37577776742E+02  0.93494521614E+01  0.40659136587E+02  0.00000000000E+00 0. -1.
         11    1    3    3    0    0  0.72259771102E+01 -0.49163765903E+01 -0.34742344800E+01  0.94050948670E+01  0.51100000000E-03 0. -1.
        -11    1    3    3    0    0 -0.14890099730E-01 -0.13816589582E+02 -0.14260375183E+02  0.19855897613E+02  0.51100000000E-03 0.  1.
         12    1    3    3    0    0  0.51850344541E+01 -0.18844810570E+02  0.83851575016E+01  0.21267870933E+02  0.00000000000E+00 0. -1.
</event>
<event>
 7    1  0.2680581E-011  0.5052887E+02  0.7816164E-02  0.1300439E+00
        -11   -1    0    0    0    0  0.00000000000E+00  0.00000000000E+00  0.45593999997E+02  0.45594000000E+02  0.51100000000E-03 0.  1.
         11   -1    0    0    0    0 -0.00000000000E+00 -0.00000000000E+00 -0.45593999997E+02  0.45594000000E+02  0.51100000000E-03 0. -1.
    9900012    2    1    2    0    0 -0.37633866929E+02 -0.42708788288E+01 -0.14785697264E+02  0.50528865853E+02  0.30000018246E+02 0.  0.
         12    1    1    2    0    0  0.37633866929E+02  0.42708788288E+01  0.14785697264E+02  0.40659134147E+02  0.00000000000E+00 0. -1.
         11    1    3    3    0    0 -0.35392009419E+00  0.50927536361E+01 -0.78384418813E+01  0.93542808606E+01  0.51100000000E-03 0. -1.
        -11    1    3    3    0    0 -0.12514543960E+02  0.11296295914E+01  0.22169814670E+01  0.12759501582E+02  0.51100000000E-03 0.  1.
        -12    1    3    3    0    0 -0.24765402875E+02 -0.10493262056E+02 -0.91642368501E+01  0.28415083410E+02  0.00000000000E+00 0.  1.
</event>
<event>
 7    1  0.2680581E-011  0.5052886E+02  0.7816164E-02  0.1300439E+00
        -11   -1    0    0    0    0  0.00000000000E+00  0.00000000000E+00  0.45593999997E+02  0.45594000000E+02  0.51100000000E-03 0.  1.
         11   -1    0    0    0    0 -0.00000000000E+00 -0.00000000000E+00 -0.45593999997E+02  0.45594000000E+02  0.51100000000E-03 0. -1.
    9900012    2    1    2    0    0  0.12003324365E+02  0.13746717180E+02  0.36333367624E+02  0.50528860413E+02  0.30000001710E+02 0.  0.
         12    1    1    2    0    0 -0.12003324365E+02 -0.13746717180E+02 -0.36333367624E+02  0.40659139587E+02  0.00000000000E+00 0. -1.
         11    1    3    3    0    0  0.12444697581E+02  0.80884904197E+01  0.15706478987E+02  0.21609897213E+02  0.51100000000E-03 0. -1.
        -11    1    3    3    0    0  0.93858548254E+00  0.10134375379E+02  0.21827300931E+02  0.24083553999E+02  0.51100000000E-03 0.  1.
         12    1    3    3    0    0 -0.13799586982E+01 -0.44761486188E+01 -0.12004122927E+01  0.48354092008E+01  0.00000000000E+00 0. -1.
</event>
<event>
 7    1  0.2680581E-011  0.5052886E+02  0.7816164E-02  0.1300439E+00
        -11   -1    0    0    0    0  0.00000000000E+00  0.00000000000E+00  0.45593999997E+02  0.45594000000E+02  0.51100000000E-03 0. -1.
         11   -1    0    0    0    0 -0.00000000000E+00 -0.00000000000E+00 -0.45593999997E+02  0.45594000000E+02  0.51100000000E-03 0.  1.
    9900012    2    1    2    0    0  0.13348155454E+02  0.27774228131E+02 -0.26525177908E+02  0.50528855084E+02  0.29999985512E+02 0.  0.
         12    1    1    2    0    0 -0.13348155454E+02 -0.27774228131E+02  0.26525177908E+02  0.40659144916E+02  0.00000000000E+00 0. -1.
         11    1    3    3    0    0  0.97780202637E+01  0.37310213643E+00 -0.19362830527E+01  0.99748723201E+01  0.51100000000E-03 0. -1.
        -11    1    3    3    0    0  0.49068399115E+01  0.21439599652E+01 -0.11048389595E+00  0.53559172139E+01  0.51100000000E-03 0.  1.
        -12    1    3    3    0    0 -0.13367047213E+01  0.25257166029E+02 -0.24478410959E+02  0.35198065550E+02  0.00000000000E+00 0.  1.
</event>
<event>
 7    1  0.2680581E-011  0.5052886E+02  0.7816164E-02  0.1300439E+00
        -11   -1    0    0    0    0  0.00000000000E+00  0.00000000000E+00  0.45593999997E+02  0.45594000000E+02  0.51100000000E-03 0.  1.
         11   -1    0    0    0    0 -0.00000000000E+00 -0.00000000000E+00 -0.45593999997E+02  0.45594000000E+02  0.51100000000E-03 0. -1.
    9900012    2    1    2    0    0 -0.22805385811E+02  0.43989776335E+01  0.33372578400E+02  0.50528860618E+02  0.30000002336E+02 0.  0.
         12    1    1    2    0    0  0.22805385811E+02 -0.43989776335E+01 -0.33372578400E+02  0.40659139382E+02  0.00000000000E+00 0. -1.
         11    1    3    3    0    0  0.44434002381E+01  0.35444964200E+01  0.13603779865E+02  0.14743476097E+02  0.51100000000E-03 0. -1.
        -11    1    3    3    0    0 -0.13588791477E+02  0.63303947828E+01  0.11589185081E+02  0.18948307656E+02  0.51100000000E-03 0.  1.
        -12    1    3    3    0    0 -0.13659994572E+02 -0.54759135693E+01  0.81796134537E+01  0.16837076866E+02  0.00000000000E+00 0.  1.
</event>
<event>
 7    1  0.2680581E-011  0.5052885E+02  0.7816164E-02  0.1300439E+00
        -11   -1    0    0    0    0  0.00000000000E+00  0.00000000000E+00  0.45593999997E+02  0.45594000000E+02  0.51100000000E-03 0. -1.
         11   -1    0    0    0    0 -0.00000000000E+00 -0.00000000000E+00 -0.45593999997E+02  0.45594000000E+02  0.51100000000E-03 0.  1.
    9900012    2    1    2    0    0  0.10284380024E+02 -0.37200295620E+02 -0.12788117746E+02  0.50528850695E+02  0.29999972173E+02 0.  0.
         12    1    1    2    0    0 -0.10284380024E+02  0.37200295620E+02  0.12788117746E+02  0.40659149305E+02  0.00000000000E+00 0. -1.
         11    1    3    3    0    0 -0.62955676730E+01 -0.13161100162E+02 -0.28798553688E+01  0.14870853944E+02  0.51100000000E-03 0. -1.
        -11    1    3    3    0    0  0.90894913527E+01 -0.25007122114E+02 -0.66103344937E+01  0.27416628747E+02  0.51100000000E-03 0.  1.
         12    1    3    3    0    0  0.74904563445E+01  0.96792665578E+00 -0.32979278833E+01  0.82413680044E+01  0.00000000000E+00 0. -1.
</event>
<event>
 7    1  0.2680581E-011  0.5052894E+02  0.7816164E-02  0.1300439E+00
        -11   -1    0    0    0    0  0.00000000000E+00  0.00000000000E+00  0.45593999997E+02  0.45594000000E+02  0.51100000000E-03 0.  1.
         11   -1    0    0    0    0 -0.00000000000E+00 -0.00000000000E+00 -0.45593999997E+02  0.45594000000E+02  0.51100000000E-03 0. -1.
    9900012    2    1    2    0    0 -0.37631382799E+02  0.10845660998E+02  0.10927479765E+02  0.50528940150E+02  0.30000244079E+02 0.  0.
         12    1    1    2    0    0  0.37631382799E+02 -0.10845660998E+02 -0.10927479765E+02  0.40659059850E+02  0.00000000000E+00 0. -1.
         11    1    3    3    0    0 -0.28667759019E+01  0.11190044366E+02  0.50163381800E+01  0.12593615286E+02  0.51100000000E-03 0.  1.
        -11    1    3    3    0    0 -0.15187560279E+02  0.45423225730E+01 -0.25487641974E+01  0.16055867488E+02  0.51100000000E-03 0. -1.
        -12    1    3    3    0    0 -0.19577046618E+02 -0.48867059403E+01  0.84599057827E+01  0.21879457376E+02  0.00000000000E+00 0.  1.
</event>
<event>
 7    1  0.2680581E-011  0.5052886E+02  0.7816164E-02  0.1300439E+00
        -11   -1    0    0    0    0  0.00000000000E+00  0.00000000000E+00  0.45593999997E+02  0.45594000000E+02  0.51100000000E-03 0.  1.
         11   -1    0    0    0    0 -0.00000000000E+00 -0.00000000000E+00 -0.45593999997E+02  0.45594000000E+02  0.51100000000E-03 0. -1.
    9900012    2    1    2    0    0  0.38682244179E+02  0.43676443697E+01  0.11737694277E+02  0.50528858358E+02  0.29999995466E+02 0.  0.
         12    1    1    2    0    0 -0.38682244179E+02 -0.43676443697E+01 -0.11737694277E+02  0.40659141642E+02  0.00000000000E+00 0. -1.
         11    1    3    3    0    0  0.12911836675E+02  0.65096585308E+01  0.67513680597E+01  0.15958450785E+02  0.51100000000E-03 0.  1.
        -11    1    3    3    0    0  0.24272545403E+02 -0.96923279156E+01  0.59730112446E+01  0.26809970987E+02  0.51100000000E-03 0. -1.
         12    1    3    3    0    0  0.14978621012E+01  0.75503137544E+01 -0.98668502675E+00  0.77604365861E+01  0.00000000000E+00 0. -1.
</event>
<event>
 7    1  0.2680581E-011  0.5052874E+02  0.7816164E-02  0.1300439E+00
        -11   -1    0    0    0    0  0.00000000000E+00  0.00000000000E+00  0.45593999997E+02  0.45594000000E+02  0.51100000000E-03 0. -1.
         11   -1    0    0    0    0 -0.00000000000E+00 -0.00000000000E+00 -0.45593999997E+02  0.45594000000E+02  0.51100000000E-03 0.  1.
    9900012    2    1    2    0    0 -0.92145204103E+01 -0.19042566021E+02 -0.34722448950E+02  0.50528743143E+02  0.29999645255E+02 0.  0.
         12    1    1    2    0    0  0.92145204103E+01  0.19042566021E+02  0.34722448950E+02  0.40659256857E+02  0.00000000000E+00 0. -1.
         11    1    3    3    0    0  0.30270437891E+01 -0.10283893198E+02 -0.26381484901E+02  0.28476379672E+02  0.51100000000E-03 0. -1.
        -11    1    3    3    0    0 -0.55581411918E+01 -0.16092033501E+01 -0.10537786444E+02  0.12021955429E+02  0.51100000000E-03 0.  1.
         12    1    3    3    0    0 -0.66834230077E+01 -0.71494694733E+01  0.21968223947E+01  0.10030408042E+02  0.00000000000E+00 0. -1.
</event>
<event>
 7    1  0.2680581E-011  0.5052887E+02  0.7816164E-02  0.1300439E+00
        -11   -1    0    0    0    0  0.00000000000E+00  0.00000000000E+00  0.45593999997E+02  0.45594000000E+02  0.51100000000E-03 0.  1.
         11   -1    0    0    0    0 -0.00000000000E+00 -0.00000000000E+00 -0.45593999997E+02  0.45594000000E+02  0.51100000000E-03 0. -1.
    9900012    2    1    2    0    0  0.37976058090E+02 -0.13129395714E+02  0.62131010894E+01  0.50528872550E+02  0.30000038602E+02 0.  0.
         12    1    1    2    0    0 -0.37976058090E+02  0.13129395714E+02 -0.62131010894E+01  0.40659127450E+02  0.00000000000E+00 0. -1.
         11    1    3    3    0    0  0.12318063126E+02  0.52409417715E+01  0.28189368686E+01  0.13680224968E+02  0.51100000000E-03 0. -1.
        -11    1    3    3    0    0  0.19920644096E+02 -0.89791338110E+01  0.99815658035E+01  0.24022667656E+02  0.51100000000E-03 0.  1.
        -12    1    3    3    0    0  0.57373508683E+01 -0.93912036748E+01 -0.65874015827E+01  0.12825979926E+02  0.00000000000E+00 0.  1.
</event>
<event>
 7    1  0.2680581E-011  0.5052886E+02  0.7816164E-02  0.1300439E+00
        -11   -1    0    0    0    0  0.00000000000E+00  0.00000000000E+00  0.45593999997E+02  0.45594000000E+02  0.51100000000E-03 0.  1.
         11   -1    0    0    0    0 -0.00000000000E+00 -0.00000000000E+00 -0.45593999997E+02  0.45594000000E+02  0.51100000000E-03 0. -1.
    9900012    2    1    2    0    0 -0.20082185592E+02  0.97057586478E+01  0.33995145360E+02  0.50528857890E+02  0.29999994042E+02 0.  0.
         12    1    1    2    0    0  0.20082185592E+02 -0.97057586478E+01 -0.33995145360E+02  0.40659142110E+02  0.00000000000E+00 0. -1.
         11    1    3    3    0    0  0.61795574970E+01 -0.55867779114E-01  0.37560399427E+01  0.72317278972E+01  0.51100000000E-03 0. -1.
        -11    1    3    3    0    0 -0.85541884023E+01  0.31180669827E+01  0.19565753981E+02  0.21580435816E+02  0.51100000000E-03 0.  1.
        -12    1    3    3    0    0 -0.17707554687E+02  0.66435594441E+01  0.10673351437E+02  0.21716694176E+02  0.00000000000E+00 0.  1.
</event>
<event>
 7    1  0.2680581E-011  0.5052885E+02  0.7816164E-02  0.1300439E+00
        -11   -1    0    0    0    0  0.00000000000E+00  0.00000000000E+00  0.45593999997E+02  0.45594000000E+02  0.51100000000E-03 0.  1.
         11   -1    0    0    0    0 -0.00000000000E+00 -0.00000000000E+00 -0.45593999997E+02  0.45594000000E+02  0.51100000000E-03 0. -1.
    9900012    2    1    2    0    0 -0.36977564209E+02  0.71163506211E+01  0.15335692655E+02  0.50528853794E+02  0.29999981593E+02 0.  0.
         12    1    1    2    0    0  0.36977564209E+02 -0.71163506211E+01 -0.15335692655E+02  0.40659146206E+02  0.00000000000E+00 0. -1.
         11    1    3    3    0    0  0.22236386302E+00 -0.44558485706E+01  0.74497324646E+01  0.86834639532E+01  0.51100000000E-03 0. -1.
        -11    1    3    3    0    0 -0.33680297325E+01  0.54788631751E+01 -0.53264260931E+00  0.64533149916E+01  0.51100000000E-03 0.  1.
        -12    1    3    3    0    0 -0.33831898339E+02  0.60933360167E+01  0.84186027994E+01  0.35392074849E+02  0.00000000000E+00 0.  1.
</event>
<event>
 7    1  0.2680581E-011  0.5052886E+02  0.7816164E-02  0.1300439E+00
        -11   -1    0    0    0    0  0.00000000000E+00  0.00000000000E+00  0.45593999997E+02  0.45594000000E+02  0.51100000000E-03 0. -1.
         11   -1    0    0    0    0 -0.00000000000E+00 -0.00000000000E+00 -0.45593999997E+02  0.45594000000E+02  0.51100000000E-03 0.  1.
    9900012    2    1    2    0    0 -0.38294475071E+01  0.40382219176E+02 -0.27888071248E+01  0.50528859097E+02  0.29999997710E+02 0.  0.
         12    1    1    2    0    0  0.38294475071E+01 -0.40382219176E+02  0.27888071248E+01  0.40659140903E+02  0.00000000000E+00 0. -1.
         11    1    3    3    0    0  0.57727662169E+01 -0.32396121139E+00  0.23715082452E+01  0.62493065439E+01  0.51100000000E-03 0. -1.
        -11    1    3    3    0    0 -0.61677341763E+01  0.45656187933E+01 -0.80309402006E+00  0.77156192300E+01  0.51100000000E-03 0.  1.
         12    1    3    3    0    0 -0.34344795477E+01  0.36140561595E+02 -0.43572213499E+01  0.36563933323E+02  0.00000000000E+00 0. -1.
</event>
<event>
 7    1  0.2680581E-011  0.5052880E+02  0.7816164E-02  0.1300439E+00
        -11   -1    0    0    0    0  0.00000000000E+00  0.00000000000E+00  0.45593999997E+02  0.45594000000E+02  0.51100000000E-03 0.  1.
         11   -1    0    0    0    0 -0.00000000000E+00 -0.00000000000E+00 -0.45593999997E+02  0.45594000000E+02  0.51100000000E-03 0. -1.
    9900012    2    1    2    0    0  0.38430892087E+02  0.12994433355E+02 -0.27168799821E+01  0.50528804218E+02  0.29999830901E+02 0.  0.
         12    1    1    2    0    0 -0.38430892087E+02 -0.12994433355E+02  0.27168799821E+01  0.40659195782E+02  0.00000000000E+00 0. -1.
         11    1    3    3    0    0  0.22048627601E+01 -0.16440104933E+01  0.81469516787E+01  0.85986633966E+01  0.51100000000E-03 0. -1.
        -11    1    3    3    0    0  0.24298471569E+02  0.48522699653E+01 -0.42330928976E+01  0.25137209872E+02  0.51100000000E-03 0.  1.
        -12    1    3    3    0    0  0.11927557758E+02  0.97861738830E+01 -0.66307387632E+01  0.16792930949E+02  0.00000000000E+00 0.  1.
</event>
<event>
 7    1  0.2680581E-011  0.5052886E+02  0.7816164E-02  0.1300439E+00
        -11   -1    0    0    0    0  0.00000000000E+00  0.00000000000E+00  0.45593999997E+02  0.45594000000E+02  0.51100000000E-03 0. -1.
         11   -1    0    0    0    0 -0.00000000000E+00 -0.00000000000E+00 -0.45593999997E+02  0.45594000000E+02  0.51100000000E-03 0.  1.
    9900012    2    1    2    0    0  0.33722492697E+02  0.22289632528E+02  0.43739854732E+01  0.50528856122E+02  0.29999988669E+02 0.  0.
         12    1    1    2    0    0 -0.33722492697E+02 -0.22289632528E+02 -0.43739854732E+01  0.40659143878E+02  0.00000000000E+00 0. -1.
         11    1    3    3    0    0  0.29402772973E+00 -0.46830813692E+00  0.81343868338E+01  0.81531597702E+01  0.51100000000E-03 0. -1.
        -11    1    3    3    0    0  0.51011820056E+01  0.59141456906E+00 -0.38300582228E+01  0.64063386812E+01  0.51100000000E-03 0.  1.
        -12    1    3    3    0    0  0.28327282962E+02  0.22166526096E+02  0.69656862284E-01  0.35969357671E+02  0.00000000000E+00 0.  1.
</event>
<event>
 7    1  0.2680581E-011  0.5052886E+02  0.7816164E-02  0.1300439E+00
        -11   -1    0    0    0    0  0.00000000000E+00  0.00000000000E+00  0.45593999997E+02  0.45594000000E+02  0.51100000000E-03 0. -1.
         11   -1    0    0    0    0 -0.00000000000E+00 -0.00000000000E+00 -0.45593999997E+02  0.45594000000E+02  0.51100000000E-03 0.  1.
    9900012    2    1    2    0    0  0.29149410172E+02 -0.15699347817E+02 -0.23601025075E+02  0.50528855643E+02  0.29999987212E+02 0.  0.
         12    1    1    2    0    0 -0.29149410172E+02  0.15699347817E+02  0.23601025075E+02  0.40659144357E+02  0.00000000000E+00 0. -1.
         11    1    3    3    0    0  0.25365995862E+01 -0.38375008346E+01 -0.13638410490E+02  0.14393296741E+02  0.51100000000E-03 0. -1.
        -11    1    3    3    0    0  0.40348098425E+01 -0.70481159777E+01 -0.10213426741E+02  0.13048743823E+02  0.51100000000E-03 0.  1.
        -12    1    3    3    0    0  0.22578000743E+02 -0.48137310050E+01  0.25081215628E+00  0.23086815079E+02  0.00000000000E+00 0.  1.
</event>
<event>
 7    1  0.2680581E-011  0.5052886E+02  0.7816164E-02  0.1300439E+00
        -11   -1    0    0    0    0  0.00000000000E+00  0.00000000000E+00  0.45593999997E+02  0.45594000000E+02  0.51100000000E-03 0. -1.
         11   -1    0    0    0    0 -0.00000000000E+00 -0.00000000000E+00 -0.45593999997E+02  0.45594000000E+02  0.51100000000E-03 0.  1.
    9900012    2    1    2    0    0  0.34697997965E+02  0.21080968173E+02  0.21926041506E+01  0.50528858410E+02  0.29999995622E+02 0.  0.
         12    1    1    2    0    0 -0.34697997965E+02 -0.21080968173E+02 -0.21926041506E+01  0.40659141590E+02  0.00000000000E+00 0. -1.
         11    1    3    3    0    0  0.16222822448E+02  0.12330553103E+02 -0.81705385760E+01  0.21954047666E+02  0.51100000000E-03 0.  1.
        -11    1    3    3    0    0  0.83373361887E+01  0.12839300960E+02  0.36200455778E+01  0.15730974354E+02  0.51100000000E-03 0. -1.
         12    1    3    3    0    0  0.10137839328E+02 -0.40888858902E+01  0.67430971488E+01  0.12843836391E+02  0.00000000000E+00 0. -1.
</event>
<event>
 7    1  0.2680581E-011  0.5052886E+02  0.7816164E-02  0.1300439E+00
        -11   -1    0    0    0    0  0.00000000000E+00  0.00000000000E+00  0.45593999997E+02  0.45594000000E+02  0.51100000000E-03 0.  1.
         11   -1    0    0    0    0 -0.00000000000E+00 -0.00000000000E+00 -0.45593999997E+02  0.45594000000E+02  0.51100000000E-03 0. -1.
    9900012    2    1    2    0    0 -0.15047381027E+01  0.32531378932E+02  0.24343604238E+02  0.50528856880E+02  0.29999990971E+02 0.  0.
         12    1    1    2    0    0  0.15047381027E+01 -0.32531378932E+02 -0.24343604238E+02  0.40659143120E+02  0.00000000000E+00 0. -1.
         11    1    3    3    0    0 -0.22984984214E+01  0.34340350265E+01 -0.55887211773E+01  0.69505033066E+01  0.51100000000E-03 0. -1.
        -11    1    3    3    0    0  0.50408876145E+00  0.26147923195E+01  0.10225924722E+02  0.10566966501E+02  0.51100000000E-03 0.  1.
         12    1    3    3    0    0  0.28967155732E+00  0.26482551586E+02  0.19706400693E+02  0.33011387072E+02  0.00000000000E+00 0. -1.
</event>
<event>
 7    1  0.2743913E-011  0.5052886E+02  0.7816164E-02  0.1300439E+00
        -11   -1    0    0    0    0  0.00000000000E+00  0.00000000000E+00  0.45593999997E+02  0.45594000000E+02  0.51100000000E-03 0.  1.
         11   -1    0    0    0    0 -0.00000000000E+00 -0.00000000000E+00 -0.45593999997E+02  0.45594000000E+02  0.51100000000E-03 0. -1.
    9900012    2    1    2    0    0  0.15559499756E+02 -0.24770824843E+02  0.28239579431E+02  0.50528860283E+02  0.30000001316E+02 0.  0.
         12    1    1    2    0    0 -0.15559499756E+02  0.24770824843E+02 -0.28239579431E+02  0.40659139717E+02  0.00000000000E+00 0. -1.
         11    1    3    3    0    0  0.47254535523E+00  0.25629969993E+01 -0.10989235098E+01  0.28284069496E+01  0.51100000000E-03 0. -1.
        -11    1    3    3    0    0  0.14930575688E+02 -0.68310053572E+01  0.85895666692E+01  0.18530120895E+02  0.51100000000E-03 0.  1.
        -12    1    3    3    0    0  0.15637871291E+00 -0.20502816485E+02  0.20748936272E+02  0.29170332438E+02  0.00000000000E+00 0.  1.
</event>
<event>
 7    1  0.2680581E-011  0.5052887E+02  0.7816164E-02  0.1300439E+00
        -11   -1    0    0    0    0  0.00000000000E+00  0.00000000000E+00  0.45593999997E+02  0.45594000000E+02  0.51100000000E-03 0.  1.
         11   -1    0    0    0    0 -0.00000000000E+00 -0.00000000000E+00 -0.45593999997E+02  0.45594000000E+02  0.51100000000E-03 0. -1.
    9900012    2    1    2    0    0 -0.40045765706E+02 -0.68253336161E+01 -0.17077968661E+01  0.50528866953E+02  0.30000021591E+02 0.  0.
         12    1    1    2    0    0  0.40045765706E+02  0.68253336161E+01  0.17077968661E+01  0.40659133047E+02  0.00000000000E+00 0. -1.
         11    1    3    3    0    0 -0.46177459463E+01  0.15862941632E+01  0.11372166547E+01  0.50132991909E+01  0.51100000000E-03 0. -1.
        -11    1    3    3    0    0 -0.36581439192E+02 -0.17064251574E+01 -0.73554497132E+01  0.37352593229E+02  0.51100000000E-03 0.  1.
         12    1    3    3    0    0  0.11534194321E+01 -0.67052026220E+01  0.45104361924E+01  0.81629745335E+01  0.00000000000E+00 0. -1.
</event>
<event>
 7    1  0.2680581E-011  0.5052889E+02  0.7816164E-02  0.1300439E+00
        -11   -1    0    0    0    0  0.00000000000E+00  0.00000000000E+00  0.45593999997E+02  0.45594000000E+02  0.51100000000E-03 0. -1.
         11   -1    0    0    0    0 -0.00000000000E+00 -0.00000000000E+00 -0.45593999997E+02  0.45594000000E+02  0.51100000000E-03 0.  1.
    9900012    2    1    2    0    0 -0.38145821538E+02 -0.11228621091E+02 -0.84839769206E+01  0.50528886670E+02  0.30000081522E+02 0.  0.
         12    1    1    2    0    0  0.38145821538E+02  0.11228621091E+02  0.84839769206E+01  0.40659113330E+02  0.00000000000E+00 0. -1.
         11    1    3    3    0    0 -0.18002649170E+02 -0.13657458363E+01 -0.40001684060E+01  0.18492214209E+02  0.51100000000E-03 0. -1.
        -11    1    3    3    0    0 -0.10535291554E+02  0.15197987067E+01 -0.11414703995E+02  0.15607614289E+02  0.51100000000E-03 0.  1.
         12    1    3    3    0    0 -0.96078808142E+01 -0.11382673961E+02  0.69308954806E+01  0.16429058172E+02  0.00000000000E+00 0. -1.
</event>
<event>
 7    1  0.2680581E-011  0.5052888E+02  0.7816164E-02  0.1300439E+00
        -11   -1    0    0    0    0  0.00000000000E+00  0.00000000000E+00  0.45593999997E+02  0.45594000000E+02  0.51100000000E-03 0.  1.
         11   -1    0    0    0    0 -0.00000000000E+00 -0.00000000000E+00 -0.45593999997E+02  0.45594000000E+02  0.51100000000E-03 0. -1.
    9900012    2    1    2    0    0  0.36570470683E+02 -0.72276369121E+01  0.16233495617E+02  0.50528875055E+02  0.30000046218E+02 0.  0.
         12    1    1    2    0    0 -0.36570470683E+02  0.72276369121E+01 -0.16233495617E+02  0.40659124945E+02  0.00000000000E+00 0. -1.
         11    1    3    3    0    0  0.10404416791E+01 -0.67649844923E+00 -0.41193231580E+01  0.43022078728E+01  0.51100000000E-03 0. -1.
        -11    1    3    3    0    0  0.91250925508E+01  0.34637031265E+01  0.14351022237E+02  0.17355586793E+02  0.51100000000E-03 0.  1.
         12    1    3    3    0    0  0.26404936453E+02 -0.10014841589E+02  0.60017965378E+01  0.28871080389E+02  0.00000000000E+00 0. -1.
</event>
<event>
 7    1  0.2680581E-011  0.5052886E+02  0.7816164E-02  0.1300439E+00
        -11   -1    0    0    0    0  0.00000000000E+00  0.00000000000E+00  0.45593999997E+02  0.45594000000E+02  0.51100000000E-03 0.  1.
         11   -1    0    0    0    0 -0.00000000000E+00 -0.00000000000E+00 -0.45593999997E+02  0.45594000000E+02  0.51100000000E-03 0. -1.
    9900012    2    1    2    0    0  0.33159297729E+02 -0.65267940621E+01  0.22605923189E+02  0.50528857979E+02  0.29999994314E+02 0.  0.
         12    1    1    2    0    0 -0.33159297729E+02  0.65267940621E+01 -0.22605923189E+02  0.40659142021E+02  0.00000000000E+00 0. -1.
         11    1    3    3    0    0 -0.20197391572E+01  0.73928285876E+00 -0.41320443372E+00  0.21901195341E+01  0.51100000000E-03 0. -1.
        -11    1    3    3    0    0  0.36130132563E+02 -0.12195876667E+01  0.21389902713E+02  0.42004783197E+02  0.51100000000E-03 0.  1.
         12    1    3    3    0    0 -0.95109567621E+00 -0.60464892541E+01  0.16292249098E+01  0.63339552487E+01  0.00000000000E+00 0. -1.
</event>
<event>
 7    1  0.2680581E-011  0.5052886E+02  0.7816164E-02  0.1300439E+00
        -11   -1    0    0    0    0  0.00000000000E+00  0.00000000000E+00  0.45593999997E+02  0.45594000000E+02  0.51100000000E-03 0.  1.
         11   -1    0    0    0    0 -0.00000000000E+00 -0.00000000000E+00 -0.45593999997E+02  0.45594000000E+02  0.51100000000E-03 0. -1.
    9900012    2    1    2    0    0  0.13850058748E+02  0.88151695988E+01  0.37197240634E+02  0.50528855233E+02  0.29999985967E+02 0.  0.
         12    1    1    2    0    0 -0.13850058748E+02 -0.88151695988E+01 -0.37197240634E+02  0.40659144767E+02  0.00000000000E+00 0. -1.
         11    1    3    3    0    0  0.59428663315E+01  0.67986819246E+01  0.10778753131E+02  0.14061339035E+02  0.51100000000E-03 0. -1.
        -11    1    3    3    0    0  0.54278361865E+01  0.21537021499E+01  0.30844560752E+02  0.31392463536E+02  0.51100000000E-03 0.  1.
         12    1    3    3    0    0  0.24793562299E+01 -0.13721447565E+00 -0.44260732483E+01  0.50750526624E+01  0.00000000000E+00 0. -1.
</event>
<event>
 7    1  0.2680581E-011  0.5052886E+02  0.7816164E-02  0.1300439E+00
        -11   -1    0    0    0    0  0.00000000000E+00  0.00000000000E+00  0.45593999997E+02  0.45594000000E+02  0.51100000000E-03 0.  1.
         11   -1    0    0    0    0 -0.00000000000E+00 -0.00000000000E+00 -0.45593999997E+02  0.45594000000E+02  0.51100000000E-03 0. -1.
    9900012    2    1    2    0    0  0.17224041960E+01  0.38713796297E+02 -0.12306123603E+02  0.50528863535E+02  0.30000011201E+02 0.  0.
         12    1    1    2    0    0 -0.17224041960E+01 -0.38713796297E+02  0.12306123603E+02  0.40659136465E+02  0.00000000000E+00 0. -1.
         11    1    3    3    0    0  0.44892122022E+01  0.15741051811E+00 -0.52020070129E+00  0.45219921825E+01  0.51100000000E-03 0.  1.
        -11    1    3    3    0    0  0.53966605938E+01  0.27576828125E+02 -0.15141210815E+02  0.31919612469E+02  0.51100000000E-03 0. -1.
        -12    1    3    3    0    0 -0.81634686000E+01  0.10979557654E+02  0.33552879130E+01  0.14087258883E+02  0.00000000000E+00 0.  1.
</event>
<event>
 7    1  0.2680581E-011  0.5052885E+02  0.7816164E-02  0.1300439E+00
        -11   -1    0    0    0    0  0.00000000000E+00  0.00000000000E+00  0.45593999997E+02  0.45594000000E+02  0.51100000000E-03 0.  1.
         11   -1    0    0    0    0 -0.00000000000E+00 -0.00000000000E+00 -0.45593999997E+02  0.45594000000E+02  0.51100000000E-03 0. -1.
    9900012    2    1    2    0    0 -0.33393973030E+02  0.22728268455E+02  0.46297554909E+01  0.50528852719E+02  0.29999978326E+02 0.  0.
         12    1    1    2    0    0  0.33393973030E+02 -0.22728268455E+02 -0.46297554909E+01  0.40659147281E+02  0.00000000000E+00 0. -1.
         11    1    3    3    0    0 -0.23783960913E+01  0.12035147158E+02  0.86473173610E+00  0.12298345267E+02  0.51100000000E-03 0.  1.
        -11    1    3    3    0    0 -0.17127590015E+02 -0.27725306976E+01 -0.32524067712E+01  0.17652745289E+02  0.51100000000E-03 0. -1.
         12    1    3    3    0    0 -0.13887986924E+02  0.13465651995E+02  0.70174305260E+01  0.20577762163E+02  0.00000000000E+00 0. -1.
</event>
<event>
 7    1  0.2680581E-011  0.5052886E+02  0.7816164E-02  0.1300439E+00
        -11   -1    0    0    0    0  0.00000000000E+00  0.00000000000E+00  0.45593999997E+02  0.45594000000E+02  0.51100000000E-03 0.  1.
         11   -1    0    0    0    0 -0.00000000000E+00 -0.00000000000E+00 -0.45593999997E+02  0.45594000000E+02  0.51100000000E-03 0. -1.
    9900012    2    1    2    0    0  0.48080907585E+01 -0.17364381014E+02  0.36448951737E+02  0.50528861452E+02  0.30000004869E+02 0.  0.
         12    1    1    2    0    0 -0.48080907585E+01  0.17364381014E+02 -0.36448951737E+02  0.40659138548E+02  0.00000000000E+00 0. -1.
         11    1    3    3    0    0 -0.71098111438E+01 -0.85599243065E+01  0.17949232749E+02  0.21118633364E+02  0.51100000000E-03 0. -1.
        -11    1    3    3    0    0  0.22916271563E+01 -0.12360876379E+02  0.10924352638E+02  0.16654858172E+02  0.51100000000E-03 0.  1.
         12    1    3    3    0    0  0.96262747459E+01  0.35564196721E+01  0.75753663502E+01  0.12755369917E+02  0.00000000000E+00 0. -1.
</event>
<event>
 7    1  0.2680581E-011  0.5052886E+02  0.7816164E-02  0.1300439E+00
        -11   -1    0    0    0    0  0.00000000000E+00  0.00000000000E+00  0.45593999997E+02  0.45594000000E+02  0.51100000000E-03 0.  1.
         11   -1    0    0    0    0 -0.00000000000E+00 -0.00000000000E+00 -0.45593999997E+02  0.45594000000E+02  0.51100000000E-03 0. -1.
    9900012    2    1    2    0    0 -0.14769754966E+02 -0.35638870995E+02  0.12840969224E+02  0.50528864764E+02  0.30000014936E+02 0.  0.
         12    1    1    2    0    0  0.14769754966E+02  0.35638870995E+02 -0.12840969224E+02  0.40659135236E+02  0.00000000000E+00 0. -1.
         11    1    3    3    0    0  0.26764891648E+01 -0.10426643853E+01 -0.52870100198E+01  0.60169110414E+01  0.51100000000E-03 0. -1.
        -11    1    3    3    0    0 -0.98884157289E+01 -0.13870454710E+02  0.14042048679E+02  0.22075991729E+02  0.51100000000E-03 0.  1.
        -12    1    3    3    0    0 -0.75578284022E+01 -0.20725751900E+02  0.40859305652E+01  0.22435961993E+02  0.00000000000E+00 0.  1.
</event>
<event>
 7    1  0.2680581E-011  0.5052887E+02  0.7816164E-02  0.1300439E+00
        -11   -1    0    0    0    0  0.00000000000E+00  0.00000000000E+00  0.45593999997E+02  0.45594000000E+02  0.51100000000E-03 0.  1.
         11   -1    0    0    0    0 -0.00000000000E+00 -0.00000000000E+00 -0.45593999997E+02  0.45594000000E+02  0.51100000000E-03 0. -1.
    9900012    2    1    2    0    0 -0.14685559938E+01  0.16633508119E+02  0.37072022292E+02  0.50528867128E+02  0.30000022123E+02 0.  0.
         12    1    1    2    0    0  0.14685559938E+01 -0.16633508119E+02 -0.37072022292E+02  0.40659132872E+02  0.00000000000E+00 0. -1.
         11    1    3    3    0    0 -0.88461180132E+00  0.12161548663E+02  0.18197679544E+02  0.21905281212E+02  0.51100000000E-03 0.  1.
        -11    1    3    3    0    0  0.77633110755E+01  0.27566867116E+01  0.18316254380E+02  0.20083662396E+02  0.51100000000E-03 0. -1.
         12    1    3    3    0    0 -0.83472552680E+01  0.17152727446E+01  0.55808836812E+00  0.85399235198E+01  0.00000000000E+00 0. -1.
</event>
<event>
 7    1  0.2680581E-011  0.5052886E+02  0.7816164E-02  0.1300439E+00
        -11   -1    0    0    0    0  0.00000000000E+00  0.00000000000E+00  0.45593999997E+02  0.45594000000E+02  0.51100000000E-03 0.  1.
         11   -1    0    0    0    0 -0.00000000000E+00 -0.00000000000E+00 -0.45593999997E+02  0.45594000000E+02  0.51100000000E-03 0. -1.
    9900012    2    1    2    0    0  0.17009557697E+02  0.36587016840E+02  0.50230137244E+01  0.50528861776E+02  0.30000005853E+02 0.  0.
         12    1    1    2    0    0 -0.17009557697E+02 -0.36587016840E+02 -0.50230137244E+01  0.40659138224E+02  0.00000000000E+00 0. -1.
         11    1    3    3    0    0 -0.39952647771E+01  0.11532303523E+02  0.11286813286E+01  0.12256838377E+02  0.51100000000E-03 0. -1.
        -11    1    3    3    0    0  0.55771590031E+01  0.14722441863E+02  0.10088129813E+02  0.18698271587E+02  0.51100000000E-03 0.  1.
         12    1    3    3    0    0  0.15427663471E+02  0.10332271454E+02 -0.61937974170E+01  0.19573751812E+02  0.00000000000E+00 0. -1.
</event>
<event>
 7    1  0.2680581E-011  0.5052892E+02  0.7816164E-02  0.1300439E+00
        -11   -1    0    0    0    0  0.00000000000E+00  0.00000000000E+00  0.45593999997E+02  0.45594000000E+02  0.51100000000E-03 0.  1.
         11   -1    0    0    0    0 -0.00000000000E+00 -0.00000000000E+00 -0.45593999997E+02  0.45594000000E+02  0.51100000000E-03 0. -1.
    9900012    2    1    2    0    0  0.27715298442E+02  0.12684880017E+02  0.26909424304E+02  0.50528916572E+02  0.30000172413E+02 0.  0.
         12    1    1    2    0    0 -0.27715298442E+02 -0.12684880017E+02 -0.26909424304E+02  0.40659083428E+02  0.00000000000E+00 0. -1.
         11    1    3    3    0    0  0.12481797496E+01  0.51993734320E+01 -0.29736482418E+01  0.61183348143E+01  0.51100000000E-03 0. -1.
        -11    1    3    3    0    0  0.19625904569E+02  0.13404762577E+02  0.22599451081E+02  0.32796325698E+02  0.51100000000E-03 0.  1.
        -12    1    3    3    0    0  0.68412141239E+01 -0.59192559917E+01  0.72836214648E+01  0.11614256060E+02  0.00000000000E+00 0.  1.
</event>
<event>
 7    1  0.2680581E-011  0.5052885E+02  0.7816164E-02  0.1300439E+00
        -11   -1    0    0    0    0  0.00000000000E+00  0.00000000000E+00  0.45593999997E+02  0.45594000000E+02  0.51100000000E-03 0.  1.
         11   -1    0    0    0    0 -0.00000000000E+00 -0.00000000000E+00 -0.45593999997E+02  0.45594000000E+02  0.51100000000E-03 0. -1.
    9900012    2    1    2    0    0 -0.30851290724E+02  0.24509547072E+02  0.10032284851E+02  0.50528846340E+02  0.29999958934E+02 0.  0.
         12    1    1    2    0    0  0.30851290724E+02 -0.24509547072E+02 -0.10032284851E+02  0.40659153660E+02  0.00000000000E+00 0. -1.
         11    1    3    3    0    0 -0.53258294719E+00 -0.20775235059E+01  0.25541222120E+00  0.21598574437E+01  0.51100000000E-03 0. -1.
        -11    1    3    3    0    0 -0.31793072510E+01  0.12635904989E+02 -0.56191662750E+01  0.14189754028E+02  0.51100000000E-03 0.  1.
        -12    1    3    3    0    0 -0.27139400526E+02  0.13951165589E+02  0.15396038905E+02  0.34179234868E+02  0.00000000000E+00 0.  1.
</event>
<event>
 7    1  0.2680581E-011  0.5052886E+02  0.7816164E-02  0.1300439E+00
        -11   -1    0    0    0    0  0.00000000000E+00  0.00000000000E+00  0.45593999997E+02  0.45594000000E+02  0.51100000000E-03 0.  1.
         11   -1    0    0    0    0 -0.00000000000E+00 -0.00000000000E+00 -0.45593999997E+02  0.45594000000E+02  0.51100000000E-03 0. -1.
    9900012    2    1    2    0    0 -0.91812794492E+00 -0.39371623689E+02  0.10109280924E+02  0.50528864844E+02  0.30000015180E+02 0.  0.
         12    1    1    2    0    0  0.91812794492E+00  0.39371623689E+02 -0.10109280924E+02  0.40659135156E+02  0.00000000000E+00 0. -1.
         11    1    3    3    0    0  0.51318118020E+01 -0.20196774042E+02  0.99402019422E+01  0.23087936005E+02  0.51100000000E-03 0. -1.
        -11    1    3    3    0    0  0.11395352434E+01  0.35426739976E+00  0.57682467347E+01  0.58903918898E+01  0.51100000000E-03 0.  1.
         12    1    3    3    0    0 -0.71894749904E+01 -0.19529117047E+02 -0.55991677525E+01  0.21550536949E+02  0.00000000000E+00 0. -1.
</event>
<event>
 7    1  0.2680581E-011  0.5052886E+02  0.7816164E-02  0.1300439E+00
        -11   -1    0    0    0    0  0.00000000000E+00  0.00000000000E+00  0.45593999997E+02  0.45594000000E+02  0.51100000000E-03 0.  1.
         11   -1    0    0    0    0 -0.00000000000E+00 -0.00000000000E+00 -0.45593999997E+02  0.45594000000E+02  0.51100000000E-03 0. -1.
    9900012    2    1    2    0    0  0.23455423525E+02 -0.99134662400E+01  0.31697503827E+02  0.50528862595E+02  0.30000008345E+02 0.  0.
         12    1    1    2    0    0 -0.23455423525E+02  0.99134662400E+01 -0.31697503827E+02  0.40659137405E+02  0.00000000000E+00 0. -1.
         11    1    3    3    0    0  0.18161236582E+01 -0.88011894029E+01 -0.21404754360E+01  0.92380125244E+01  0.51100000000E-03 0. -1.
        -11    1    3    3    0    0  0.41537173895E+01 -0.10270215002E+01  0.15109202376E+01  0.45377330838E+01  0.51100000000E-03 0.  1.
        -12    1    3    3    0    0  0.17485582477E+02 -0.85255336926E-01  0.32327059026E+02  0.36753116987E+02  0.00000000000E+00 0.  1.
</event>
<event>
 7    1  0.2680581E-011  0.5052885E+02  0.7816164E-02  0.1300439E+00
        -11   -1    0    0    0    0  0.00000000000E+00  0.00000000000E+00  0.45593999997E+02  0.45594000000E+02  0.51100000000E-03 0.  1.
         11   -1    0    0    0    0 -0.00000000000E+00 -0.00000000000E+00 -0.45593999997E+02  0.45594000000E+02  0.51100000000E-03 0. -1.
    9900012    2    1    2    0    0 -0.89414989359E+01 -0.38155342642E+01  0.39479838934E+02  0.50528851126E+02  0.29999973482E+02 0.  0.
         12    1    1    2    0    0  0.89414989359E+01  0.38155342642E+01 -0.39479838934E+02  0.40659148874E+02  0.00000000000E+00 0. -1.
         11    1    3    3    0    0  0.92117120288E+00  0.74087556653E+01  0.11920930402E+02  0.14065802458E+02  0.51100000000E-03 0.  1.
        -11    1    3    3    0    0 -0.12841891512E+02 -0.17199067438E+01  0.10364390394E+02  0.16591951221E+02  0.51100000000E-03 0. -1.
         12    1    3    3    0    0  0.29792213735E+01 -0.95043831857E+01  0.17194518138E+02  0.19871097446E+02  0.00000000000E+00 0. -1.
</event>
<event>
 7    1  0.2680581E-011  0.5052887E+02  0.7816164E-02  0.1300439E+00
        -11   -1    0    0    0    0  0.00000000000E+00  0.00000000000E+00  0.45593999997E+02  0.45594000000E+02  0.51100000000E-03 0.  1.
         11   -1    0    0    0    0 -0.00000000000E+00 -0.00000000000E+00 -0.45593999997E+02  0.45594000000E+02  0.51100000000E-03 0. -1.
    9900012    2    1    2    0    0  0.26996225096E+01  0.20580310646E+02  0.34961805745E+02  0.50528868074E+02  0.30000024999E+02 0.  0.
         12    1    1    2    0    0 -0.26996225096E+01 -0.20580310646E+02 -0.34961805745E+02  0.40659131926E+02  0.00000000000E+00 0. -1.
         11    1    3    3    0    0  0.37805099634E+01  0.10295227346E+02  0.19851295203E+01  0.11145613539E+02  0.51100000000E-03 0. -1.
        -11    1    3    3    0    0  0.12823980925E+01  0.40076604587E+01 -0.13408908155E+01  0.44163192435E+01  0.51100000000E-03 0.  1.
         12    1    3    3    0    0 -0.23632855463E+01  0.62774228412E+01  0.34317567040E+02  0.34966935291E+02  0.00000000000E+00 0. -1.
</event>
<event>
 7    1  0.2680581E-011  0.5052886E+02  0.7816164E-02  0.1300439E+00
        -11   -1    0    0    0    0  0.00000000000E+00  0.00000000000E+00  0.45593999997E+02  0.45594000000E+02  0.51100000000E-03 0. -1.
         11   -1    0    0    0    0 -0.00000000000E+00 -0.00000000000E+00 -0.45593999997E+02  0.45594000000E+02  0.51100000000E-03 0.  1.
    9900012    2    1    2    0    0 -0.33595854163E+02  0.19253846634E+02  0.12400551974E+02  0.50528859375E+02  0.29999998555E+02 0.  0.
         12    1    1    2    0    0  0.33595854163E+02 -0.19253846634E+02 -0.12400551974E+02  0.40659140625E+02  0.00000000000E+00 0. -1.
         11    1    3    3    0    0 -0.44152773492E+01  0.80481272050E+00 -0.27230042382E+01  0.52494904446E+01  0.51100000000E-03 0. -1.
        -11    1    3    3    0    0 -0.10824507433E+02  0.60067979945E+01 -0.67762954801E+01  0.14112751822E+02  0.51100000000E-03 0.  1.
         12    1    3    3    0    0 -0.18356069381E+02  0.12442235919E+02  0.21899851692E+02  0.31166617108E+02  0.00000000000E+00 0. -1.
</event>
<event>
 7    1  0.2680581E-011  0.5052885E+02  0.7816164E-02  0.1300439E+00
        -11   -1    0    0    0    0  0.00000000000E+00  0.00000000000E+00  0.45593999997E+02  0.45594000000E+02  0.51100000000E-03 0.  1.
         11   -1    0    0    0    0 -0.00000000000E+00 -0.00000000000E+00 -0.45593999997E+02  0.45594000000E+02  0.51100000000E-03 0. -1.
    9900012    2    1    2    0    0 -0.17769077248E+02 -0.19490571865E+02  0.30944205463E+02  0.50528851588E+02  0.29999974886E+02 0.  0.
         12    1    1    2    0    0  0.17769077248E+02  0.19490571865E+02 -0.30944205463E+02  0.40659148412E+02  0.00000000000E+00 0. -1.
         11    1    3    3    0    0 -0.13468212652E+02 -0.75887356847E+01  0.10684248830E+02  0.18791882148E+02  0.51100000000E-03 0.  1.
        -11    1    3    3    0    0 -0.89479101905E+01 -0.10638787190E+02  0.22482531223E+02  0.26433181801E+02  0.51100000000E-03 0. -1.
         12    1    3    3    0    0  0.46470455946E+01 -0.12630489907E+01 -0.22225745905E+01  0.53037876392E+01  0.00000000000E+00 0. -1.
</event>
<event>
 7    1  0.2680581E-011  0.5052887E+02  0.7816164E-02  0.1300439E+00
        -11   -1    0    0    0    0  0.00000000000E+00  0.00000000000E+00  0.45593999997E+02  0.45594000000E+02  0.51100000000E-03 0.  1.
         11   -1    0    0    0    0 -0.00000000000E+00 -0.00000000000E+00 -0.45593999997E+02  0.45594000000E+02  0.51100000000E-03 0. -1.
    9900012    2    1    2    0    0 -0.37282090572E+02 -0.10535023981E+02  0.12337900343E+02  0.50528870735E+02  0.30000033087E+02 0.  0.
         12    1    1    2    0    0  0.37282090572E+02  0.10535023981E+02 -0.12337900343E+02  0.40659129265E+02  0.00000000000E+00 0. -1.
         11    1    3    3    0    0 -0.10756761604E+02 -0.88543085602E+01 -0.39148305925E+01  0.14471786314E+02  0.51100000000E-03 0. -1.
        -11    1    3    3    0    0 -0.16838835645E+02  0.24477534861E+00 -0.22988852668E+00  0.16842183642E+02  0.51100000000E-03 0.  1.
         12    1    3    3    0    0 -0.96864933230E+01 -0.19254907691E+01  0.16482619463E+02  0.19214900779E+02  0.00000000000E+00 0. -1.
</event>
<event>
 7    1  0.2680581E-011  0.5052886E+02  0.7816164E-02  0.1300439E+00
        -11   -1    0    0    0    0  0.00000000000E+00  0.00000000000E+00  0.45593999997E+02  0.45594000000E+02  0.51100000000E-03 0.  1.
         11   -1    0    0    0    0 -0.00000000000E+00 -0.00000000000E+00 -0.45593999997E+02  0.45594000000E+02  0.51100000000E-03 0. -1.
    9900012    2    1    2    0    0 -0.39988798214E+02 -0.57406398407E+01  0.45942096857E+01  0.50528859687E+02  0.29999999505E+02 0.  0.
         12    1    1    2    0    0  0.39988798214E+02  0.57406398407E+01 -0.45942096857E+01  0.40659140313E+02  0.00000000000E+00 0. -1.
         11    1    3    3    0    0 -0.44137091204E+01 -0.74302120541E+01  0.39185121809E+00  0.86511517734E+01  0.51100000000E-03 0. -1.
        -11    1    3    3    0    0 -0.34038570195E+02 -0.53538136516E+01  0.35302011373E+01  0.34637406108E+02  0.51100000000E-03 0.  1.
        -12    1    3    3    0    0 -0.15365188983E+01  0.70433858650E+01  0.67215733037E+00  0.72403018062E+01  0.00000000000E+00 0.  1.
</event>
<event>
 7    1  0.2680581E-011  0.5052885E+02  0.7816164E-02  0.1300439E+00
        -11   -1    0    0    0    0  0.00000000000E+00  0.00000000000E+00  0.45593999997E+02  0.45594000000E+02  0.51100000000E-03 0.  1.
         11   -1    0    0    0    0 -0.00000000000E+00 -0.00000000000E+00 -0.45593999997E+02  0.45594000000E+02  0.51100000000E-03 0. -1.
    9900012    2    1    2    0    0 -0.27698768026E+02 -0.15685468460E+02  0.25296455494E+02  0.50528851810E+02  0.29999975562E+02 0.  0.
         12    1    1    2    0    0  0.27698768026E+02  0.15685468460E+02 -0.25296455494E+02  0.40659148190E+02  0.00000000000E+00 0. -1.
         11    1    3    3    0    0 -0.14247501040E+02  0.22897669905E+01  0.17696822675E+02  0.22834444416E+02  0.51100000000E-03 0. -1.
        -11    1    3    3    0    0 -0.43490557197E+01 -0.10386306776E+01 -0.33322212290E+01  0.55764449175E+01  0.51100000000E-03 0.  1.
        -12    1    3    3    0    0 -0.91022112664E+01 -0.16936604773E+02  0.10931854049E+02  0.22117962477E+02  0.00000000000E+00 0.  1.
</event>
<event>
 7    1  0.2680581E-011  0.5052886E+02  0.7816164E-02  0.1300439E+00
        -11   -1    0    0    0    0  0.00000000000E+00  0.00000000000E+00  0.45593999997E+02  0.45594000000E+02  0.51100000000E-03 0. -1.
         11   -1    0    0    0    0 -0.00000000000E+00 -0.00000000000E+00 -0.45593999997E+02  0.45594000000E+02  0.51100000000E-03 0.  1.
    9900012    2    1    2    0    0 -0.23120654214E+02  0.29511966550E+02 -0.15736728246E+02  0.50528862812E+02  0.30000009004E+02 0.  0.
         12    1    1    2    0    0  0.23120654214E+02 -0.29511966550E+02  0.15736728246E+02  0.40659137188E+02  0.00000000000E+00 0. -1.
         11    1    3    3    0    0  0.17425480776E+01 -0.16776985762E+01  0.17009844457E+00  0.24248876381E+01  0.51100000000E-03 0. -1.
        -11    1    3    3    0    0 -0.14220881908E+02  0.20408157708E+01 -0.49376356887E+01  0.15191400782E+02  0.51100000000E-03 0.  1.
        -12    1    3    3    0    0 -0.10642320384E+02  0.29148849356E+02 -0.10969191002E+02  0.32912574393E+02  0.00000000000E+00 0.  1.
</event>
<event>
 7    1  0.2680581E-011  0.5052883E+02  0.7816164E-02  0.1300439E+00
        -11   -1    0    0    0    0  0.00000000000E+00  0.00000000000E+00  0.45593999997E+02  0.45594000000E+02  0.51100000000E-03 0. -1.
         11   -1    0    0    0    0 -0.00000000000E+00 -0.00000000000E+00 -0.45593999997E+02  0.45594000000E+02  0.51100000000E-03 0.  1.
    9900012    2    1    2    0    0  0.79401372248E+01 -0.35074632597E+02 -0.18970835732E+02  0.50528828349E+02  0.29999904249E+02 0.  0.
         12    1    1    2    0    0 -0.79401372248E+01  0.35074632597E+02  0.18970835732E+02  0.40659171651E+02  0.00000000000E+00 0. -1.
         11    1    3    3    0    0  0.75070182213E+01 -0.45016884015E+01 -0.83241814592E+01  0.12079425411E+02  0.51100000000E-03 0. -1.
        -11    1    3    3    0    0  0.56346026511E+01 -0.31034183603E+02 -0.10436315586E+02  0.33223274706E+02  0.51100000000E-03 0.  1.
         12    1    3    3    0    0 -0.52014836476E+01  0.46123940753E+00 -0.21033868727E+00  0.52261282314E+01  0.00000000000E+00 0. -1.
</event>
<event>
 7    1  0.2680581E-011  0.5052886E+02  0.7816164E-02  0.1300439E+00
        -11   -1    0    0    0    0  0.00000000000E+00  0.00000000000E+00  0.45593999997E+02  0.45594000000E+02  0.51100000000E-03 0.  1.
         11   -1    0    0    0    0 -0.00000000000E+00 -0.00000000000E+00 -0.45593999997E+02  0.45594000000E+02  0.51100000000E-03 0. -1.
    9900012    2    1    2    0    0 -0.20274216791E+02  0.49360347311E+01  0.34896382687E+02  0.50528857977E+02  0.29999994308E+02 0.  0.
         12    1    1    2    0    0  0.20274216791E+02 -0.49360347311E+01 -0.34896382687E+02  0.40659142023E+02  0.00000000000E+00 0. -1.
         11    1    3    3    0    0 -0.94064094823E+01  0.88289609734E+01  0.41030649732E+01  0.13537585961E+02  0.51100000000E-03 0. -1.
        -11    1    3    3    0    0 -0.24998559235E+00  0.58340307969E+01  0.11704660220E+02  0.13080423512E+02  0.51100000000E-03 0.  1.
        -12    1    3    3    0    0 -0.10617821716E+02 -0.97269570393E+01  0.19088657494E+02  0.23910848504E+02  0.00000000000E+00 0.  1.
</event>
<event>
 7    1  0.2680581E-011  0.5052887E+02  0.7816164E-02  0.1300439E+00
        -11   -1    0    0    0    0  0.00000000000E+00  0.00000000000E+00  0.45593999997E+02  0.45594000000E+02  0.51100000000E-03 0. -1.
         11   -1    0    0    0    0 -0.00000000000E+00 -0.00000000000E+00 -0.45593999997E+02  0.45594000000E+02  0.51100000000E-03 0.  1.
    9900012    2    1    2    0    0  0.21886143958E+02  0.32640925907E+02 -0.10427431448E+02  0.50528872266E+02  0.30000037741E+02 0.  0.
         12    1    1    2    0    0 -0.21886143958E+02 -0.32640925907E+02  0.10427431448E+02  0.40659127734E+02  0.00000000000E+00 0. -1.
         11    1    3    3    0    0  0.50603253831E+00  0.12162698355E+02  0.48902129752E+01  0.13118745497E+02  0.51100000000E-03 0. -1.
        -11    1    3    3    0    0  0.11047732973E+02  0.33159968575E+01  0.99291064438E+00  0.11577310171E+02  0.51100000000E-03 0.  1.
         12    1    3    3    0    0  0.10332378447E+02  0.17162230695E+02 -0.16310555067E+02  0.25832816599E+02  0.00000000000E+00 0. -1.
</event>
<event>
 7    1  0.2680581E-011  0.5052885E+02  0.7816164E-02  0.1300439E+00
        -11   -1    0    0    0    0  0.00000000000E+00  0.00000000000E+00  0.45593999997E+02  0.45594000000E+02  0.51100000000E-03 0. -1.
         11   -1    0    0    0    0 -0.00000000000E+00 -0.00000000000E+00 -0.45593999997E+02  0.45594000000E+02  0.51100000000E-03 0.  1.
    9900012    2    1    2    0    0  0.40036925800E+02 -0.14966788242E+01 -0.69261033251E+01  0.50528851186E+02  0.29999973665E+02 0.  0.
         12    1    1    2    0    0 -0.40036925800E+02  0.14966788242E+01  0.69261033251E+01  0.40659148814E+02  0.00000000000E+00 0. -1.
         11    1    3    3    0    0  0.35699478402E+01 -0.91892625703E+01 -0.14111431076E+01  0.99588352381E+01  0.51100000000E-03 0. -1.
        -11    1    3    3    0    0  0.41790754760E+01  0.40416210388E+01 -0.56058932375E+01  0.80762250901E+01  0.51100000000E-03 0.  1.
         12    1    3    3    0    0  0.32287902484E+02  0.36509627073E+01  0.90933019972E-01  0.32493790858E+02  0.00000000000E+00 0. -1.
</event>
<event>
 7    1  0.2680581E-011  0.5052886E+02  0.7816164E-02  0.1300439E+00
        -11   -1    0    0    0    0  0.00000000000E+00  0.00000000000E+00  0.45593999997E+02  0.45594000000E+02  0.51100000000E-03 0.  1.
         11   -1    0    0    0    0 -0.00000000000E+00 -0.00000000000E+00 -0.45593999997E+02  0.45594000000E+02  0.51100000000E-03 0. -1.
    9900012    2    1    2    0    0 -0.39743502721E+02  0.40449457124E+01 -0.75669027942E+01  0.50528860656E+02  0.30000002449E+02 0.  0.
         12    1    1    2    0    0  0.39743502721E+02 -0.40449457124E+01  0.75669027942E+01  0.40659139344E+02  0.00000000000E+00 0. -1.
         11    1    3    3    0    0 -0.16114893552E+02  0.51353467933E+01  0.82376808098E+01  0.18812787307E+02  0.51100000000E-03 0. -1.
        -11    1    3    3    0    0 -0.24424122858E+01 -0.46071009081E+01 -0.29059715480E+00  0.52225667558E+01  0.51100000000E-03 0.  1.
        -12    1    3    3    0    0 -0.21186196883E+02  0.35166998272E+01 -0.15513986449E+02  0.26493506592E+02  0.00000000000E+00 0.  1.
</event>
<event>
 7    1  0.2680581E-011  0.5052887E+02  0.7816164E-02  0.1300439E+00
        -11   -1    0    0    0    0  0.00000000000E+00  0.00000000000E+00  0.45593999997E+02  0.45594000000E+02  0.51100000000E-03 0. -1.
         11   -1    0    0    0    0 -0.00000000000E+00 -0.00000000000E+00 -0.45593999997E+02  0.45594000000E+02  0.51100000000E-03 0.  1.
    9900012    2    1    2    0    0  0.18691554386E+02  0.50443687113E+00 -0.36104522833E+02  0.50528865345E+02  0.30000016703E+02 0.  0.
         12    1    1    2    0    0 -0.18691554386E+02 -0.50443687113E+00  0.36104522833E+02  0.40659134655E+02  0.00000000000E+00 0. -1.
         11    1    3    3    0    0  0.75860340735E+01  0.82669586852E+01 -0.42768190926E+00  0.11228242558E+02  0.51100000000E-03 0. -1.
        -11    1    3    3    0    0 -0.92682852714E+00 -0.27061753146E+01 -0.31608773026E+01  0.42630436938E+01  0.51100000000E-03 0.  1.
        -12    1    3    3    0    0  0.12032348839E+02 -0.50563464995E+01 -0.32515963621E+02  0.35037579093E+02  0.00000000000E+00 0.  1.
</event>
<event>
 7    1  0.2680581E-011  0.5052882E+02  0.7816164E-02  0.1300439E+00
        -11   -1    0    0    0    0  0.00000000000E+00  0.00000000000E+00  0.45593999997E+02  0.45594000000E+02  0.51100000000E-03 0.  1.
         11   -1    0    0    0    0 -0.00000000000E+00 -0.00000000000E+00 -0.45593999997E+02  0.45594000000E+02  0.51100000000E-03 0. -1.
    9900012    2    1    2    0    0  0.17703922281E+02  0.42335966468E+01  0.36356791908E+02  0.50528824866E+02  0.29999893663E+02 0.  0.
         12    1    1    2    0    0 -0.17703922281E+02 -0.42335966468E+01 -0.36356791908E+02  0.40659175134E+02  0.00000000000E+00 0. -1.
         11    1    3    3    0    0  0.21245168010E+02  0.40082630438E+01  0.12884212142E+02  0.25167960966E+02  0.51100000000E-03 0.  1.
        -11    1    3    3    0    0 -0.19474211509E+01  0.34909706196E+01  0.43978852871E+01  0.59431237801E+01  0.51100000000E-03 0. -1.
        -12    1    3    3    0    0 -0.15938245779E+01 -0.32656370167E+01  0.19074694479E+02  0.19417740120E+02  0.00000000000E+00 0.  1.
</event>
<event>
 7    1  0.2680581E-011  0.5052886E+02  0.7816164E-02  0.1300439E+00
        -11   -1    0    0    0    0  0.00000000000E+00  0.00000000000E+00  0.45593999997E+02  0.45594000000E+02  0.51100000000E-03 0. -1.
         11   -1    0    0    0    0 -0.00000000000E+00 -0.00000000000E+00 -0.45593999997E+02  0.45594000000E+02  0.51100000000E-03 0.  1.
    9900012    2    1    2    0    0 -0.46387551999E+01 -0.36917386914E+02  0.16393720688E+02  0.50528860998E+02  0.30000003490E+02 0.  0.
         12    1    1    2    0    0  0.46387551999E+01  0.36917386914E+02 -0.16393720688E+02  0.40659139002E+02  0.00000000000E+00 0. -1.
         11    1    3    3    0    0 -0.43533262091E+01 -0.26300270411E+02  0.54945034755E+01  0.27218472431E+02  0.51100000000E-03 0. -1.
        -11    1    3    3    0    0 -0.28675495242E+01 -0.12494608687E+02  0.94213849267E+00  0.12854015392E+02  0.51100000000E-03 0.  1.
         12    1    3    3    0    0  0.25821205333E+01  0.18774921829E+01  0.99570787196E+01  0.10456373175E+02  0.00000000000E+00 0. -1.
</event>
<event>
 7    1  0.2680581E-011  0.5052885E+02  0.7816164E-02  0.1300439E+00
        -11   -1    0    0    0    0  0.00000000000E+00  0.00000000000E+00  0.45593999997E+02  0.45594000000E+02  0.51100000000E-03 0.  1.
         11   -1    0    0    0    0 -0.00000000000E+00 -0.00000000000E+00 -0.45593999997E+02  0.45594000000E+02  0.51100000000E-03 0. -1.
    9900012    2    1    2    0    0 -0.23045602715E+02 -0.33238431179E+02  0.41561570151E+01  0.50528846628E+02  0.29999959811E+02 0.  0.
         12    1    1    2    0    0  0.23045602715E+02  0.33238431179E+02 -0.41561570151E+01  0.40659153372E+02  0.00000000000E+00 0. -1.
         11    1    3    3    0    0 -0.10548488921E+02 -0.12675996385E+02 -0.34833177141E+01  0.16854821430E+02  0.51100000000E-03 0. -1.
        -11    1    3    3    0    0 -0.13489951887E+02 -0.13598195705E+02 -0.44704655460E+01  0.19669132945E+02  0.51100000000E-03 0.  1.
        -12    1    3    3    0    0  0.99283809245E+00 -0.69642390888E+01  0.12109940275E+02  0.14004892253E+02  0.00000000000E+00 0.  1.
</event>
<event>
 7    1  0.2680581E-011  0.5052886E+02  0.7816164E-02  0.1300439E+00
        -11   -1    0    0    0    0  0.00000000000E+00  0.00000000000E+00  0.45593999997E+02  0.45594000000E+02  0.51100000000E-03 0.  1.
         11   -1    0    0    0    0 -0.00000000000E+00 -0.00000000000E+00 -0.45593999997E+02  0.45594000000E+02  0.51100000000E-03 0. -1.
    9900012    2    1    2    0    0  0.38237907039E+01 -0.90385506957E+01  0.39456922442E+02  0.50528862004E+02  0.30000006547E+02 0.  0.
         12    1    1    2    0    0 -0.38237907039E+01  0.90385506957E+01 -0.39456922442E+02  0.40659137996E+02  0.00000000000E+00 0. -1.
         11    1    3    3    0    0  0.19619514746E+01  0.48796661098E+01  0.23067588939E+00  0.52643714305E+01  0.51100000000E-03 0. -1.
        -11    1    3    3    0    0  0.45006080421E+01  0.96085952273E+00  0.21427583632E+02  0.21916205519E+02  0.51100000000E-03 0.  1.
         12    1    3    3    0    0 -0.26387688129E+01 -0.14879076328E+02  0.17798662920E+02  0.23348285054E+02  0.00000000000E+00 0. -1.
</event>
<event>
 7    1  0.2680581E-011  0.5052886E+02  0.7816164E-02  0.1300439E+00
        -11   -1    0    0    0    0  0.00000000000E+00  0.00000000000E+00  0.45593999997E+02  0.45594000000E+02  0.51100000000E-03 0.  1.
         11   -1    0    0    0    0 -0.00000000000E+00 -0.00000000000E+00 -0.45593999997E+02  0.45594000000E+02  0.51100000000E-03 0. -1.
    9900012    2    1    2    0    0 -0.39430121200E+02 -0.63619509318E+01  0.76129183495E+01  0.50528863225E+02  0.30000010259E+02 0.  0.
         12    1    1    2    0    0  0.39430121200E+02  0.63619509318E+01 -0.76129183495E+01  0.40659136775E+02  0.00000000000E+00 0. -1.
         11    1    3    3    0    0 -0.10919596681E+02  0.67450595364E+01  0.50546338133E+01  0.13794301109E+02  0.51100000000E-03 0. -1.
        -11    1    3    3    0    0 -0.18168747591E+02  0.14421477861E+01  0.45167486766E+01  0.18777225518E+02  0.51100000000E-03 0.  1.
         12    1    3    3    0    0 -0.10341776927E+02 -0.14549158254E+02 -0.19584641404E+01  0.17957336599E+02  0.00000000000E+00 0. -1.
</event>
<event>
 7    1  0.2680581E-011  0.5052882E+02  0.7816164E-02  0.1300439E+00
        -11   -1    0    0    0    0  0.00000000000E+00  0.00000000000E+00  0.45593999997E+02  0.45594000000E+02  0.51100000000E-03 0.  1.
         11   -1    0    0    0    0 -0.00000000000E+00 -0.00000000000E+00 -0.45593999997E+02  0.45594000000E+02  0.51100000000E-03 0. -1.
    9900012    2    1    2    0    0 -0.15573616443E+02  0.15116559426E+02  0.34381988696E+02  0.50528818446E+02  0.29999874147E+02 0.  0.
         12    1    1    2    0    0  0.15573616443E+02 -0.15116559426E+02 -0.34381988696E+02  0.40659181554E+02  0.00000000000E+00 0. -1.
         11    1    3    3    0    0 -0.13067462103E+02  0.48006400392E+01  0.68054856151E+01  0.15495784759E+02  0.51100000000E-03 0. -1.
        -11    1    3    3    0    0 -0.47543049604E+01 -0.16034132242E+01  0.20250505534E+02  0.20862821580E+02  0.51100000000E-03 0.  1.
         12    1    3    3    0    0  0.22481506197E+01  0.11919332611E+02  0.73259975467E+01  0.14170212107E+02  0.00000000000E+00 0. -1.
</event>
<event>
 7    1  0.2680581E-011  0.5052886E+02  0.7816164E-02  0.1300439E+00
        -11   -1    0    0    0    0  0.00000000000E+00  0.00000000000E+00  0.45593999997E+02  0.45594000000E+02  0.51100000000E-03 0.  1.
         11   -1    0    0    0    0 -0.00000000000E+00 -0.00000000000E+00 -0.45593999997E+02  0.45594000000E+02  0.51100000000E-03 0. -1.
    9900012    2    1    2    0    0 -0.31868270746E+02 -0.42105988562E+01  0.24896777173E+02  0.50528864044E+02  0.30000012749E+02 0.  0.
         12    1    1    2    0    0  0.31868270746E+02  0.42105988562E+01 -0.24896777173E+02  0.40659135956E+02  0.00000000000E+00 0. -1.
         11    1    3    3    0    0 -0.14054823048E+02 -0.15962361133E+01  0.18342942985E+01  0.14263613024E+02  0.51100000000E-03 0. -1.
        -11    1    3    3    0    0 -0.22926053472E+01 -0.96901418170E+01  0.13289844756E+02  0.16606470474E+02  0.51100000000E-03 0.  1.
         12    1    3    3    0    0 -0.15520842350E+02  0.70757790741E+01  0.97726381185E+01  0.19658780546E+02  0.00000000000E+00 0. -1.
</event>
<event>
 7    1  0.2680581E-011  0.5052886E+02  0.7816164E-02  0.1300439E+00
        -11   -1    0    0    0    0  0.00000000000E+00  0.00000000000E+00  0.45593999997E+02  0.45594000000E+02  0.51100000000E-03 0.  1.
         11   -1    0    0    0    0 -0.00000000000E+00 -0.00000000000E+00 -0.45593999997E+02  0.45594000000E+02  0.51100000000E-03 0. -1.
    9900012    2    1    2    0    0  0.44139961967E+01 -0.96796507334E+01  0.39242666120E+02  0.50528857794E+02  0.29999993749E+02 0.  0.
         12    1    1    2    0    0 -0.44139961967E+01  0.96796507334E+01 -0.39242666120E+02  0.40659142206E+02  0.00000000000E+00 0. -1.
         11    1    3    3    0    0 -0.22957268975E+01  0.15853766722E+01  0.67074354560E+00  0.28694386813E+01  0.51100000000E-03 0. -1.
        -11    1    3    3    0    0 -0.83156538616E+01  0.16915871921E-01  0.67764517096E+01  0.10727100416E+02  0.51100000000E-03 0.  1.
        -12    1    3    3    0    0  0.15025376956E+02 -0.11281943278E+02  0.31795470865E+02  0.36932318697E+02  0.00000000000E+00 0.  1.
</event>
<event>
 7    1  0.2680581E-011  0.5052890E+02  0.7816164E-02  0.1300439E+00
        -11   -1    0    0    0    0  0.00000000000E+00  0.00000000000E+00  0.45593999997E+02  0.45594000000E+02  0.51100000000E-03 0. -1.
         11   -1    0    0    0    0 -0.00000000000E+00 -0.00000000000E+00 -0.45593999997E+02  0.45594000000E+02  0.51100000000E-03 0.  1.
    9900012    2    1    2    0    0 -0.22038493454E+02 -0.33441391858E+02 -0.70100481873E+01  0.50528896976E+02  0.30000112848E+02 0.  0.
         12    1    1    2    0    0  0.22038493454E+02  0.33441391858E+02  0.70100481873E+01  0.40659103024E+02  0.00000000000E+00 0. -1.
         11    1    3    3    0    0 -0.23002175418E+01  0.25943333235E+01 -0.25288355005E+01  0.42914537610E+01  0.51100000000E-03 0. -1.
        -11    1    3    3    0    0 -0.10498871861E+01 -0.95933269992E+01 -0.94166387400E+01  0.13483592675E+02  0.51100000000E-03 0.  1.
         12    1    3    3    0    0 -0.18688388726E+02 -0.26442398183E+02  0.49354260532E+01  0.32753850539E+02  0.00000000000E+00 0. -1.
</event>
<event>
 7    1  0.2680581E-011  0.5052883E+02  0.7816164E-02  0.1300439E+00
        -11   -1    0    0    0    0  0.00000000000E+00  0.00000000000E+00  0.45593999997E+02  0.45594000000E+02  0.51100000000E-03 0. -1.
         11   -1    0    0    0    0 -0.00000000000E+00 -0.00000000000E+00 -0.45593999997E+02  0.45594000000E+02  0.51100000000E-03 0.  1.
    9900012    2    1    2    0    0  0.33246397176E+02 -0.12384373935E+02 -0.19861328858E+02  0.50528830961E+02  0.29999912188E+02 0.  0.
         12    1    1    2    0    0 -0.33246397176E+02  0.12384373935E+02  0.19861328858E+02  0.40659169039E+02  0.00000000000E+00 0. -1.
         11    1    3    3    0    0  0.14597207439E+01 -0.64088128518E+00  0.43815907077E+01  0.46626012979E+01  0.51100000000E-03 0. -1.
        -11    1    3    3    0    0  0.13880437469E+01  0.38883506701E+01 -0.31390502306E+00  0.41405884849E+01  0.51100000000E-03 0.  1.
        -12    1    3    3    0    0  0.30398632686E+02 -0.15631843320E+02 -0.23929014543E+02  0.41725641178E+02  0.00000000000E+00 0.  1.
</event>
<event>
 7    1  0.2680581E-011  0.5052885E+02  0.7816164E-02  0.1300439E+00
        -11   -1    0    0    0    0  0.00000000000E+00  0.00000000000E+00  0.45593999997E+02  0.45594000000E+02  0.51100000000E-03 0.  1.
         11   -1    0    0    0    0 -0.00000000000E+00 -0.00000000000E+00 -0.45593999997E+02  0.45594000000E+02  0.51100000000E-03 0. -1.
    9900012    2    1    2    0    0  0.36727513674E+02  0.12867705774E+02 -0.11776193209E+02  0.50528845569E+02  0.29999956591E+02 0.  0.
         12    1    1    2    0    0 -0.36727513674E+02 -0.12867705774E+02  0.11776193209E+02  0.40659154431E+02  0.00000000000E+00 0. -1.
         11    1    3    3    0    0  0.77668237306E+01 -0.10558029405E+01  0.54959792700E+01  0.95730903636E+01  0.51100000000E-03 0.  1.
        -11    1    3    3    0    0  0.15384020692E+01 -0.34510078358E+01 -0.49623372887E+01  0.62370608172E+01  0.51100000000E-03 0. -1.
         12    1    3    3    0    0  0.27422287874E+02  0.17374516550E+02 -0.12309835190E+02  0.34718694388E+02  0.00000000000E+00 0. -1.
</event>
<event>
 7    1  0.2680581E-011  0.5052888E+02  0.7816164E-02  0.1300439E+00
        -11   -1    0    0    0    0  0.00000000000E+00  0.00000000000E+00  0.45593999997E+02  0.45594000000E+02  0.51100000000E-03 0.  1.
         11   -1    0    0    0    0 -0.00000000000E+00 -0.00000000000E+00 -0.45593999997E+02  0.45594000000E+02  0.51100000000E-03 0. -1.
    9900012    2    1    2    0    0 -0.10655891811E+02 -0.33454231480E+02  0.20504398840E+02  0.50528880408E+02  0.30000062487E+02 0.  0.
         12    1    1    2    0    0  0.10655891811E+02  0.33454231480E+02 -0.20504398840E+02  0.40659119592E+02  0.00000000000E+00 0. -1.
         11    1    3    3    0    0  0.55610415722E+01 -0.65466260466E+01  0.12784273337E+00  0.85906833249E+01  0.51100000000E-03 0. -1.
        -11    1    3    3    0    0 -0.96114715394E+01 -0.20839273558E+02  0.40410410912E+01  0.23302054007E+02  0.51100000000E-03 0.  1.
        -12    1    3    3    0    0 -0.66054618437E+01 -0.60683318755E+01  0.16335515016E+02  0.18636143076E+02  0.00000000000E+00 0.  1.
</event>
<event>
 7    1  0.2680581E-011  0.5052885E+02  0.7816164E-02  0.1300439E+00
        -11   -1    0    0    0    0  0.00000000000E+00  0.00000000000E+00  0.45593999997E+02  0.45594000000E+02  0.51100000000E-03 0. -1.
         11   -1    0    0    0    0 -0.00000000000E+00 -0.00000000000E+00 -0.45593999997E+02  0.45594000000E+02  0.51100000000E-03 0.  1.
    9900012    2    1    2    0    0 -0.22328783452E+02 -0.56253021221E+00 -0.33974626468E+02  0.50528852759E+02  0.29999978446E+02 0.  0.
         12    1    1    2    0    0  0.22328783452E+02  0.56253021221E+00  0.33974626468E+02  0.40659147241E+02  0.00000000000E+00 0. -1.
         11    1    3    3    0    0 -0.70616474667E+00 -0.74649405724E+01 -0.12720708335E+01  0.76054040567E+01  0.51100000000E-03 0. -1.
        -11    1    3    3    0    0  0.18789539013E+01 -0.12078586959E+01 -0.58744615763E+00  0.23096501124E+01  0.51100000000E-03 0.  1.
        -12    1    3    3    0    0 -0.23501572607E+02  0.81102690561E+01 -0.32115109477E+02  0.40613798590E+02  0.00000000000E+00 0.  1.
</event>
<event>
 7    1  0.2680581E-011  0.5052886E+02  0.7816164E-02  0.1300439E+00
        -11   -1    0    0    0    0  0.00000000000E+00  0.00000000000E+00  0.45593999997E+02  0.45594000000E+02  0.51100000000E-03 0.  1.
         11   -1    0    0    0    0 -0.00000000000E+00 -0.00000000000E+00 -0.45593999997E+02  0.45594000000E+02  0.51100000000E-03 0. -1.
    9900012    2    1    2    0    0 -0.20978729837E-01 -0.11890602358E+02  0.38881598068E+02  0.50528861632E+02  0.30000005416E+02 0.  0.
         12    1    1    2    0    0  0.20978729837E-01  0.11890602358E+02 -0.38881598068E+02  0.40659138368E+02  0.00000000000E+00 0. -1.
         11    1    3    3    0    0  0.93087920876E+00 -0.75238005332E+01  0.79017949324E+01  0.10950455423E+02  0.51100000000E-03 0. -1.
        -11    1    3    3    0    0  0.10979725553E+02  0.15613867035E+01  0.16714249869E+02  0.20058874609E+02  0.51100000000E-03 0.  1.
         12    1    3    3    0    0 -0.11931583492E+02 -0.59281885285E+01  0.14265553266E+02  0.19519531599E+02  0.00000000000E+00 0. -1.
</event>
<event>
 7    1  0.2680581E-011  0.5052887E+02  0.7816164E-02  0.1300439E+00
        -11   -1    0    0    0    0  0.00000000000E+00  0.00000000000E+00  0.45593999997E+02  0.45594000000E+02  0.51100000000E-03 0. -1.
         11   -1    0    0    0    0 -0.00000000000E+00 -0.00000000000E+00 -0.45593999997E+02  0.45594000000E+02  0.51100000000E-03 0.  1.
    9900012    2    1    2    0    0  0.99483296283E+01  0.37721433408E+02 -0.11458158519E+02  0.50528865757E+02  0.30000017955E+02 0.  0.
         12    1    1    2    0    0 -0.99483296283E+01 -0.37721433408E+02  0.11458158519E+02  0.40659134243E+02  0.00000000000E+00 0. -1.
         11    1    3    3    0    0 -0.54545917763E+01  0.66892348000E+01 -0.70298125136E-01  0.86315338002E+01  0.51100000000E-03 0. -1.
        -11    1    3    3    0    0  0.32972265658E+01  0.23520257092E+01  0.52254841659E+01  0.66113094763E+01  0.51100000000E-03 0.  1.
        -12    1    3    3    0    0  0.12105694839E+02  0.28680172899E+02 -0.16613344560E+02  0.35286022481E+02  0.00000000000E+00 0.  1.
</event>
<event>
 7    1  0.2680581E-011  0.5052886E+02  0.7816164E-02  0.1300439E+00
        -11   -1    0    0    0    0  0.00000000000E+00  0.00000000000E+00  0.45593999997E+02  0.45594000000E+02  0.51100000000E-03 0.  1.
         11   -1    0    0    0    0 -0.00000000000E+00 -0.00000000000E+00 -0.45593999997E+02  0.45594000000E+02  0.51100000000E-03 0. -1.
    9900012    2    1    2    0    0  0.61732069483E+00 -0.59453177571E+01  0.40217377469E+02  0.50528864021E+02  0.30000012679E+02 0.  0.
         12    1    1    2    0    0 -0.61732069483E+00  0.59453177571E+01 -0.40217377469E+02  0.40659135979E+02  0.00000000000E+00 0. -1.
         11    1    3    3    0    0 -0.12221617833E+02  0.35807847083E-01  0.15582901714E+02  0.19803940283E+02  0.51100000000E-03 0. -1.
        -11    1    3    3    0    0  0.50325568010E+01  0.27692569721E+01  0.12969690303E+02  0.14184790409E+02  0.51100000000E-03 0.  1.
         12    1    3    3    0    0  0.78063817271E+01 -0.87503825762E+01  0.11664785452E+02  0.16540133329E+02  0.00000000000E+00 0. -1.
</event>
<event>
 7    1  0.2680581E-011  0.5052886E+02  0.7816164E-02  0.1300439E+00
        -11   -1    0    0    0    0  0.00000000000E+00  0.00000000000E+00  0.45593999997E+02  0.45594000000E+02  0.51100000000E-03 0.  1.
         11   -1    0    0    0    0 -0.00000000000E+00 -0.00000000000E+00 -0.45593999997E+02  0.45594000000E+02  0.51100000000E-03 0. -1.
    9900012    2    1    2    0    0  0.23843259469E+02 -0.62126870072E+01  0.32342962461E+02  0.50528859297E+02  0.29999998319E+02 0.  0.
         12    1    1    2    0    0 -0.23843259469E+02  0.62126870072E+01 -0.32342962461E+02  0.40659140703E+02  0.00000000000E+00 0. -1.
         11    1    3    3    0    0  0.52279273281E+01 -0.81252164520E+01  0.75983549690E+01  0.12291678691E+02  0.51100000000E-03 0. -1.
        -11    1    3    3    0    0  0.21515489649E+02 -0.34999437271E+01  0.23343675076E+02  0.31938895837E+02  0.51100000000E-03 0.  1.
         12    1    3    3    0    0 -0.29001575077E+01  0.54124731719E+01  0.14009324155E+01  0.62982847696E+01  0.00000000000E+00 0. -1.
</event>
<event>
 7    1  0.2680581E-011  0.5052887E+02  0.7816164E-02  0.1300439E+00
        -11   -1    0    0    0    0  0.00000000000E+00  0.00000000000E+00  0.45593999997E+02  0.45594000000E+02  0.51100000000E-03 0. -1.
         11   -1    0    0    0    0 -0.00000000000E+00 -0.00000000000E+00 -0.45593999997E+02  0.45594000000E+02  0.51100000000E-03 0.  1.
    9900012    2    1    2    0    0 -0.51145693633E+00  0.27355825350E+02 -0.30075945267E+02  0.50528865080E+02  0.30000015896E+02 0.  0.
         12    1    1    2    0    0  0.51145693633E+00 -0.27355825350E+02  0.30075945267E+02  0.40659134920E+02  0.00000000000E+00 0. -1.
         11    1    3    3    0    0 -0.17280725807E+01 -0.59096312160E+01 -0.23572466245E+01  0.65929195250E+01  0.51100000000E-03 0. -1.
        -11    1    3    3    0    0 -0.66151740625E+00  0.19646294366E+02 -0.20523720714E+02  0.28418965495E+02  0.51100000000E-03 0.  1.
        -12    1    3    3    0    0  0.18781330507E+01  0.13619162200E+02 -0.71949779279E+01  0.15516980060E+02  0.00000000000E+00 0.  1.
</event>
<event>
 7    1  0.2680581E-011  0.5052887E+02  0.7816164E-02  0.1300439E+00
        -11   -1    0    0    0    0  0.00000000000E+00  0.00000000000E+00  0.45593999997E+02  0.45594000000E+02  0.51100000000E-03 0. -1.
         11   -1    0    0    0    0 -0.00000000000E+00 -0.00000000000E+00 -0.45593999997E+02  0.45594000000E+02  0.51100000000E-03 0.  1.
    9900012    2    1    2    0    0 -0.14028141356E+01  0.22965033273E+02 -0.33523193525E+02  0.50528866403E+02  0.30000019919E+02 0.  0.
         12    1    1    2    0    0  0.14028141356E+01 -0.22965033273E+02  0.33523193525E+02  0.40659133597E+02  0.00000000000E+00 0. -1.
         11    1    3    3    0    0  0.71349440581E+01  0.12262372294E+02 -0.15437113254E+02  0.20966107575E+02  0.51100000000E-03 0. -1.
        -11    1    3    3    0    0 -0.40578962125E+01  0.14886039340E+02 -0.71043051817E+01  0.16986225045E+02  0.51100000000E-03 0.  1.
         12    1    3    3    0    0 -0.44798619812E+01 -0.41833783609E+01 -0.10981775090E+02  0.12576533783E+02  0.00000000000E+00 0. -1.
</event>
<event>
 7    1  0.2680581E-011  0.5052887E+02  0.7816164E-02  0.1300439E+00
        -11   -1    0    0    0    0  0.00000000000E+00  0.00000000000E+00  0.45593999997E+02  0.45594000000E+02  0.51100000000E-03 0.  1.
         11   -1    0    0    0    0 -0.00000000000E+00 -0.00000000000E+00 -0.45593999997E+02  0.45594000000E+02  0.51100000000E-03 0. -1.
    9900012    2    1    2    0    0  0.45698476674E+01  0.85122871856E+00  0.40392529867E+02  0.50528873508E+02  0.30000041516E+02 0.  0.
         12    1    1    2    0    0 -0.45698476674E+01 -0.85122871856E+00 -0.40392529867E+02  0.40659126492E+02  0.00000000000E+00 0. -1.
         11    1    3    3    0    0  0.62192704159E+01 -0.48974806755E+01  0.16904173093E+02  0.18665896970E+02  0.51100000000E-03 0.  1.
        -11    1    3    3    0    0 -0.15140108122E+01  0.12386109681E+02  0.21626176649E+02  0.24967968650E+02  0.51100000000E-03 0. -1.
         12    1    3    3    0    0 -0.13541193628E+00 -0.66374002874E+01  0.18621801245E+01  0.68950078886E+01  0.00000000000E+00 0. -1.
</event>
<event>
 7    1  0.2680581E-011  0.5052886E+02  0.7816164E-02  0.1300439E+00
        -11   -1    0    0    0    0  0.00000000000E+00  0.00000000000E+00  0.45593999997E+02  0.45594000000E+02  0.51100000000E-03 0.  1.
         11   -1    0    0    0    0 -0.00000000000E+00 -0.00000000000E+00 -0.45593999997E+02  0.45594000000E+02  0.51100000000E-03 0. -1.
    9900012    2    1    2    0    0  0.27950663799E+02  0.89834882793E+01 -0.28128679483E+02  0.50528864767E+02  0.30000014944E+02 0.  0.
         12    1    1    2    0    0 -0.27950663799E+02 -0.89834882793E+01  0.28128679483E+02  0.40659135233E+02  0.00000000000E+00 0. -1.
         11    1    3    3    0    0 -0.49797608460E+01  0.15155318415E+01 -0.44869771257E+00  0.52245750779E+01  0.51100000000E-03 0. -1.
        -11    1    3    3    0    0  0.15155475028E+02  0.95438183757E+01 -0.15145392302E+02  0.23455400247E+02  0.51100000000E-03 0.  1.
        -12    1    3    3    0    0  0.17774949617E+02 -0.20758619378E+01 -0.12534589468E+02  0.21848889441E+02  0.00000000000E+00 0.  1.
</event>
<event>
 7    1  0.2680581E-011  0.5052887E+02  0.7816164E-02  0.1300439E+00
        -11   -1    0    0    0    0  0.00000000000E+00  0.00000000000E+00  0.45593999997E+02  0.45594000000E+02  0.51100000000E-03 0. -1.
         11   -1    0    0    0    0 -0.00000000000E+00 -0.00000000000E+00 -0.45593999997E+02  0.45594000000E+02  0.51100000000E-03 0.  1.
    9900012    2    1    2    0    0 -0.29058906300E+02 -0.27672473900E+02  0.65558555209E+01  0.50528867093E+02  0.30000022017E+02 0.  0.
         12    1    1    2    0    0  0.29058906300E+02  0.27672473900E+02 -0.65558555209E+01  0.40659132907E+02  0.00000000000E+00 0. -1.
         11    1    3    3    0    0 -0.23334858056E+02 -0.19116838588E+02  0.50693377049E+01  0.30588679330E+02  0.51100000000E-03 0. -1.
        -11    1    3    3    0    0 -0.70915486783E+01 -0.10673190753E+02 -0.43903230156E+01  0.13545552774E+02  0.51100000000E-03 0.  1.
         12    1    3    3    0    0  0.13675004344E+01  0.21175554415E+01  0.58768408316E+01  0.63946349892E+01  0.00000000000E+00 0. -1.
</event>
<event>
 7    1  0.2680581E-011  0.5052886E+02  0.7816164E-02  0.1300439E+00
        -11   -1    0    0    0    0  0.00000000000E+00  0.00000000000E+00  0.45593999997E+02  0.45594000000E+02  0.51100000000E-03 0. -1.
         11   -1    0    0    0    0 -0.00000000000E+00 -0.00000000000E+00 -0.45593999997E+02  0.45594000000E+02  0.51100000000E-03 0.  1.
    9900012    2    1    2    0    0 -0.26746043951E+02  0.27663351654E+02  0.13135969109E+02  0.50528861099E+02  0.30000003797E+02 0.  0.
         12    1    1    2    0    0  0.26746043951E+02 -0.27663351654E+02 -0.13135969109E+02  0.40659138901E+02  0.00000000000E+00 0. -1.
         11    1    3    3    0    0  0.17334011912E+01 -0.32981386007E+01  0.35829993387E+01  0.51691665132E+01  0.51100000000E-03 0. -1.
        -11    1    3    3    0    0 -0.18021350020E+01  0.10677199411E+02  0.24616165395E+01  0.11104496119E+02  0.51100000000E-03 0.  1.
         12    1    3    3    0    0 -0.26677310140E+02  0.20284290844E+02  0.70913532310E+01  0.34255198466E+02  0.00000000000E+00 0. -1.
</event>
<event>
 7    1  0.2680581E-011  0.5052886E+02  0.7816164E-02  0.1300439E+00
        -11   -1    0    0    0    0  0.00000000000E+00  0.00000000000E+00  0.45593999997E+02  0.45594000000E+02  0.51100000000E-03 0.  1.
         11   -1    0    0    0    0 -0.00000000000E+00 -0.00000000000E+00 -0.45593999997E+02  0.45594000000E+02  0.51100000000E-03 0. -1.
    9900012    2    1    2    0    0 -0.36572556497E+02  0.14663043202E+02  0.10030418397E+02  0.50528855667E+02  0.29999987285E+02 0.  0.
         12    1    1    2    0    0  0.36572556497E+02 -0.14663043202E+02 -0.10030418397E+02  0.40659144333E+02  0.00000000000E+00 0. -1.
         11    1    3    3    0    0  0.10042148048E+01  0.69004661618E+01  0.28273714890E+01  0.75245538354E+01  0.51100000000E-03 0. -1.
        -11    1    3    3    0    0 -0.54317506793E+01  0.19527953882E+01 -0.54833759548E+01  0.79614532212E+01  0.51100000000E-03 0.  1.
        -12    1    3    3    0    0 -0.32145020623E+02  0.58097816521E+01  0.12686422863E+02  0.35042848610E+02  0.00000000000E+00 0.  1.
</event>
<event>
 7    1  0.2680581E-011  0.5052887E+02  0.7816164E-02  0.1300439E+00
        -11   -1    0    0    0    0  0.00000000000E+00  0.00000000000E+00  0.45593999997E+02  0.45594000000E+02  0.51100000000E-03 0.  1.
         11   -1    0    0    0    0 -0.00000000000E+00 -0.00000000000E+00 -0.45593999997E+02  0.45594000000E+02  0.51100000000E-03 0. -1.
    9900012    2    1    2    0    0  0.14540458605E+02 -0.37093171833E+02 -0.81139632269E+01  0.50528871476E+02  0.30000035340E+02 0.  0.
         12    1    1    2    0    0 -0.14540458605E+02  0.37093171833E+02  0.81139632269E+01  0.40659128524E+02  0.00000000000E+00 0. -1.
         11    1    3    3    0    0  0.39462690111E+01  0.15040803130E+00  0.20315844594E+01  0.44410581352E+01  0.51100000000E-03 0. -1.
        -11    1    3    3    0    0  0.13540446005E+02 -0.17938635803E+02 -0.13580374189E+02  0.26259567702E+02  0.51100000000E-03 0.  1.
        -12    1    3    3    0    0 -0.29462564115E+01 -0.19304944061E+02  0.34348265032E+01  0.19828245639E+02  0.00000000000E+00 0.  1.
</event>
<event>
 7    1  0.2754782E-011  0.5052886E+02  0.7816164E-02  0.1300439E+00
        -11   -1    0    0    0    0  0.00000000000E+00  0.00000000000E+00  0.45593999997E+02  0.45594000000E+02  0.51100000000E-03 0. -1.
         11   -1    0    0    0    0 -0.00000000000E+00 -0.00000000000E+00 -0.45593999997E+02  0.45594000000E+02  0.51100000000E-03 0.  1.
    9900012    2    1    2    0    0 -0.96581831468E+01 -0.25818225114E+02 -0.29888193556E+02  0.50528863711E+02  0.30000011737E+02 0.  0.
         12    1    1    2    0    0  0.96581831468E+01  0.25818225114E+02  0.29888193556E+02  0.40659136289E+02  0.00000000000E+00 0. -1.
         11    1    3    3    0    0 -0.12808189296E+01  0.61925011246E+00  0.31783440161E+01  0.34822175087E+01  0.51100000000E-03 0. -1.
        -11    1    3    3    0    0  0.30135475843E+01 -0.14613281917E+02 -0.75961235668E+01  0.16743075313E+02  0.51100000000E-03 0.  1.
        -12    1    3    3    0    0 -0.11390911802E+02 -0.11824193310E+02 -0.25470414005E+02  0.30303570890E+02  0.00000000000E+00 0.  1.
</event>
<event>
 7    1  0.2680581E-011  0.5052887E+02  0.7816164E-02  0.1300439E+00
        -11   -1    0    0    0    0  0.00000000000E+00  0.00000000000E+00  0.45593999997E+02  0.45594000000E+02  0.51100000000E-03 0.  1.
         11   -1    0    0    0    0 -0.00000000000E+00 -0.00000000000E+00 -0.45593999997E+02  0.45594000000E+02  0.51100000000E-03 0. -1.
    9900012    2    1    2    0    0 -0.88922064037E+01 -0.83854434458E+01  0.38778576130E+02  0.50528868638E+02  0.30000026711E+02 0.  0.
         12    1    1    2    0    0  0.88922064037E+01  0.83854434458E+01 -0.38778576130E+02  0.40659131362E+02  0.00000000000E+00 0. -1.
         11    1    3    3    0    0 -0.38569454616E+01 -0.48589586962E+01  0.23898630005E+01  0.66480789200E+01  0.51100000000E-03 0. -1.
        -11    1    3    3    0    0  0.77732539724E+01 -0.69594061341E+01  0.21786957476E+02  0.24156331000E+02  0.51100000000E-03 0.  1.
         12    1    3    3    0    0 -0.12808514914E+02  0.34329213845E+01  0.14601755653E+02  0.19724458717E+02  0.00000000000E+00 0. -1.
</event>
<event>
 7    1  0.2680581E-011  0.5052887E+02  0.7816164E-02  0.1300439E+00
        -11   -1    0    0    0    0  0.00000000000E+00  0.00000000000E+00  0.45593999997E+02  0.45594000000E+02  0.51100000000E-03 0.  1.
         11   -1    0    0    0    0 -0.00000000000E+00 -0.00000000000E+00 -0.45593999997E+02  0.45594000000E+02  0.51100000000E-03 0. -1.
    9900012    2    1    2    0    0  0.12420183806E+02  0.29965191779E+02  0.24515117242E+02  0.50528872396E+02  0.30000038136E+02 0.  0.
         12    1    1    2    0    0 -0.12420183806E+02 -0.29965191779E+02 -0.24515117242E+02  0.40659127604E+02  0.00000000000E+00 0. -1.
         11    1    3    3    0    0  0.19490250350E+01  0.61035909220E+01  0.22563625175E+01  0.67929148973E+01  0.51100000000E-03 0. -1.
        -11    1    3    3    0    0  0.53480529770E+01 -0.53947930430E+01  0.22468600674E+01  0.79217323260E+01  0.51100000000E-03 0.  1.
         12    1    3    3    0    0  0.51231057945E+01  0.29256393900E+02  0.20011894657E+02  0.35814225173E+02  0.00000000000E+00 0. -1.
</event>
<event>
 7    1  0.2680581E-011  0.5052886E+02  0.7816164E-02  0.1300439E+00
        -11   -1    0    0    0    0  0.00000000000E+00  0.00000000000E+00  0.45593999997E+02  0.45594000000E+02  0.51100000000E-03 0. -1.
         11   -1    0    0    0    0 -0.00000000000E+00 -0.00000000000E+00 -0.45593999997E+02  0.45594000000E+02  0.51100000000E-03 0.  1.
    9900012    2    1    2    0    0  0.86191938966E+01  0.38688341682E+02 -0.90602186763E+01  0.50528857756E+02  0.29999993636E+02 0.  0.
         12    1    1    2    0    0 -0.86191938966E+01 -0.38688341682E+02  0.90602186763E+01  0.40659142244E+02  0.00000000000E+00 0. -1.
         11    1    3    3    0    0  0.17281036292E+01 -0.36077572972E+01 -0.32328750132E+01  0.51433195488E+01  0.51100000000E-03 0. -1.
        -11    1    3    3    0    0 -0.42283700273E+00  0.16658767606E+02 -0.82891562067E+01  0.18611916617E+02  0.51100000000E-03 0.  1.
        -12    1    3    3    0    0  0.73139272701E+01  0.25637331374E+02  0.24618125437E+01  0.26773621591E+02  0.00000000000E+00 0.  1.
</event>
<event>
 7    1  0.2680581E-011  0.5052886E+02  0.7816164E-02  0.1300439E+00
        -11   -1    0    0    0    0  0.00000000000E+00  0.00000000000E+00  0.45593999997E+02  0.45594000000E+02  0.51100000000E-03 0. -1.
         11   -1    0    0    0    0 -0.00000000000E+00 -0.00000000000E+00 -0.45593999997E+02  0.45594000000E+02  0.51100000000E-03 0.  1.
    9900012    2    1    2    0    0  0.67053636708E+01 -0.40022766686E+02 -0.25262107275E+01  0.50528862087E+02  0.30000006801E+02 0.  0.
         12    1    1    2    0    0 -0.67053636708E+01  0.40022766686E+02  0.25262107275E+01  0.40659137913E+02  0.00000000000E+00 0. -1.
         11    1    3    3    0    0 -0.52531711004E+00 -0.67109323997E+01  0.30745511052E+01  0.74003673219E+01  0.51100000000E-03 0. -1.
        -11    1    3    3    0    0  0.58624172116E+01 -0.36982900711E+02 -0.83221096064E+01  0.38358315776E+02  0.51100000000E-03 0.  1.
        -12    1    3    3    0    0  0.13682635692E+01  0.36710664248E+01  0.27213477737E+01  0.47701789899E+01  0.00000000000E+00 0.  1.
</event>
<event>
 7    1  0.2680581E-011  0.5052886E+02  0.7816164E-02  0.1300439E+00
        -11   -1    0    0    0    0  0.00000000000E+00  0.00000000000E+00  0.45593999997E+02  0.45594000000E+02  0.51100000000E-03 0. -1.
         11   -1    0    0    0    0 -0.00000000000E+00 -0.00000000000E+00 -0.45593999997E+02  0.45594000000E+02  0.51100000000E-03 0.  1.
    9900012    2    1    2    0    0  0.24860767945E+01 -0.32220355923E+02 -0.24674556565E+02  0.50528860126E+02  0.30000000838E+02 0.  0.
         12    1    1    2    0    0 -0.24860767945E+01  0.32220355923E+02  0.24674556565E+02  0.40659139874E+02  0.00000000000E+00 0. -1.
         11    1    3    3    0    0  0.61574334169E+00 -0.22129833054E+02 -0.54454894272E+01  0.22798289546E+02  0.51100000000E-03 0. -1.
        -11    1    3    3    0    0 -0.10686781725E+01 -0.13086428189E+02 -0.19518503336E+02  0.23523788991E+02  0.51100000000E-03 0.  1.
        -12    1    3    3    0    0  0.29390116254E+01  0.29959053199E+01  0.28943619764E+00  0.42067815884E+01  0.00000000000E+00 0.  1.
</event>
<event>
 7    1  0.2680581E-011  0.5052884E+02  0.7816164E-02  0.1300439E+00
        -11   -1    0    0    0    0  0.00000000000E+00  0.00000000000E+00  0.45593999997E+02  0.45594000000E+02  0.51100000000E-03 0.  1.
         11   -1    0    0    0    0 -0.00000000000E+00 -0.00000000000E+00 -0.45593999997E+02  0.45594000000E+02  0.51100000000E-03 0. -1.
    9900012    2    1    2    0    0  0.19905244476E+00  0.78256955347E+01  0.39898449666E+02  0.50528838446E+02  0.29999934942E+02 0.  0.
         12    1    1    2    0    0 -0.19905244476E+00 -0.78256955347E+01 -0.39898449666E+02  0.40659161554E+02  0.00000000000E+00 0. -1.
         11    1    3    3    0    0  0.54790757171E+01  0.66997404901E+01  0.65422017707E+00  0.86795620655E+01  0.51100000000E-03 0. -1.
        -11    1    3    3    0    0  0.83016121732E-01  0.66418687401E+01  0.14782785172E+02  0.16206543423E+02  0.51100000000E-03 0.  1.
         12    1    3    3    0    0 -0.53630393941E+01 -0.55159136955E+01  0.24461444317E+02  0.25642732957E+02  0.00000000000E+00 0. -1.
</event>
<event>
 7    1  0.2680581E-011  0.5052885E+02  0.7816164E-02  0.1300439E+00
        -11   -1    0    0    0    0  0.00000000000E+00  0.00000000000E+00  0.45593999997E+02  0.45594000000E+02  0.51100000000E-03 0. -1.
         11   -1    0    0    0    0 -0.00000000000E+00 -0.00000000000E+00 -0.45593999997E+02  0.45594000000E+02  0.51100000000E-03 0.  1.
    9900012    2    1    2    0    0  0.31745346749E+02  0.61988898826E+01  0.24636833364E+02  0.50528845629E+02  0.29999956773E+02 0.  0.
         12    1    1    2    0    0 -0.31745346749E+02 -0.61988898826E+01 -0.24636833364E+02  0.40659154371E+02  0.00000000000E+00 0. -1.
         11    1    3    3    0    0  0.25993613994E+01 -0.54931678252E+00  0.12162758555E+02  0.12449543146E+02  0.51100000000E-03 0. -1.
        -11    1    3    3    0    0  0.23384141129E+02 -0.18825808980E+01  0.14397162856E+02  0.27525269585E+02  0.51100000000E-03 0.  1.
         12    1    3    3    0    0  0.57618442203E+01  0.86307875631E+01 -0.19230880463E+01  0.10554032898E+02  0.00000000000E+00 0. -1.
</event>
<event>
 7    1  0.2680581E-011  0.5052885E+02  0.7816164E-02  0.1300439E+00
        -11   -1    0    0    0    0  0.00000000000E+00  0.00000000000E+00  0.45593999997E+02  0.45594000000E+02  0.51100000000E-03 0.  1.
         11   -1    0    0    0    0 -0.00000000000E+00 -0.00000000000E+00 -0.45593999997E+02  0.45594000000E+02  0.51100000000E-03 0. -1.
    9900012    2    1    2    0    0  0.21157105743E+02 -0.14195662990E+02  0.31686375695E+02  0.50528851265E+02  0.29999973906E+02 0.  0.
         12    1    1    2    0    0 -0.21157105743E+02  0.14195662990E+02 -0.31686375695E+02  0.40659148735E+02  0.00000000000E+00 0. -1.
         11    1    3    3    0    0  0.68736457263E+01  0.35091782233E+00  0.76814931360E+01  0.10313849230E+02  0.51100000000E-03 0. -1.
        -11    1    3    3    0    0  0.15426043130E+02 -0.17644772108E+02  0.27002472916E+02  0.35755200086E+02  0.51100000000E-03 0.  1.
         12    1    3    3    0    0 -0.11425831139E+01  0.30981912953E+01 -0.29975903564E+01  0.44598019484E+01  0.00000000000E+00 0. -1.
</event>
<event>
 7    1  0.2680581E-011  0.5052886E+02  0.7816164E-02  0.1300439E+00
        -11   -1    0    0    0    0  0.00000000000E+00  0.00000000000E+00  0.45593999997E+02  0.45594000000E+02  0.51100000000E-03 0.  1.
         11   -1    0    0    0    0 -0.00000000000E+00 -0.00000000000E+00 -0.45593999997E+02  0.45594000000E+02  0.51100000000E-03 0. -1.
    9900012    2    1    2    0    0  0.17600274762E+02 -0.36638904130E+02 -0.99337028733E+00  0.50528858936E+02  0.29999997222E+02 0.  0.
         12    1    1    2    0    0 -0.17600274762E+02  0.36638904130E+02  0.99337028733E+00  0.40659141064E+02  0.00000000000E+00 0. -1.
         11    1    3    3    0    0  0.13269815883E+02 -0.62029573127E+01  0.11812057950E+01  0.14695575538E+02  0.51100000000E-03 0. -1.
        -11    1    3    3    0    0  0.10839187096E+02 -0.22408369186E+02  0.13107771811E+01  0.24926715057E+02  0.51100000000E-03 0.  1.
         12    1    3    3    0    0 -0.65087282160E+01 -0.80275776310E+01 -0.34853532634E+01  0.10906568341E+02  0.00000000000E+00 0. -1.
</event>
<event>
 7    1  0.2680581E-011  0.5052886E+02  0.7816164E-02  0.1300439E+00
        -11   -1    0    0    0    0  0.00000000000E+00  0.00000000000E+00  0.45593999997E+02  0.45594000000E+02  0.51100000000E-03 0.  1.
         11   -1    0    0    0    0 -0.00000000000E+00 -0.00000000000E+00 -0.45593999997E+02  0.45594000000E+02  0.51100000000E-03 0. -1.
    9900012    2    1    2    0    0  0.88431970155E-01  0.37799534212E+02  0.14978424929E+02  0.50528858098E+02  0.29999994673E+02 0.  0.
         12    1    1    2    0    0 -0.88431970155E-01 -0.37799534212E+02 -0.14978424929E+02  0.40659141902E+02  0.00000000000E+00 0. -1.
         11    1    3    3    0    0 -0.11323232751E+02  0.22214098933E+02  0.62784268627E+01  0.25711873434E+02  0.51100000000E-03 0. -1.
        -11    1    3    3    0    0 -0.17988871361E+01  0.64837735955E+01  0.36517792885E+00  0.67385955619E+01  0.51100000000E-03 0.  1.
        -12    1    3    3    0    0  0.13210551858E+02  0.91016616842E+01  0.83348201376E+01  0.18078389102E+02  0.00000000000E+00 0.  1.
</event>
<event>
 7    1  0.2680581E-011  0.5052885E+02  0.7816164E-02  0.1300439E+00
        -11   -1    0    0    0    0  0.00000000000E+00  0.00000000000E+00  0.45593999997E+02  0.45594000000E+02  0.51100000000E-03 0.  1.
         11   -1    0    0    0    0 -0.00000000000E+00 -0.00000000000E+00 -0.45593999997E+02  0.45594000000E+02  0.51100000000E-03 0. -1.
    9900012    2    1    2    0    0  0.18458150176E+02  0.16005764617E+01  0.36192554192E+02  0.50528854265E+02  0.29999983024E+02 0.  0.
         12    1    1    2    0    0 -0.18458150176E+02 -0.16005764617E+01 -0.36192554192E+02  0.40659145735E+02  0.00000000000E+00 0. -1.
         11    1    3    3    0    0  0.35729662221E+01  0.23929097085E+01  0.19528353736E+02  0.19996217252E+02  0.51100000000E-03 0. -1.
        -11    1    3    3    0    0  0.16423550567E+02 -0.54821912016E+01  0.18432967963E+02  0.25289557960E+02  0.51100000000E-03 0.  1.
         12    1    3    3    0    0 -0.15383666131E+01  0.46898579548E+01 -0.17687675064E+01  0.52430790538E+01  0.00000000000E+00 0. -1.
</event>
<event>
 7    1  0.2680581E-011  0.5052886E+02  0.7816164E-02  0.1300439E+00
        -11   -1    0    0    0    0  0.00000000000E+00  0.00000000000E+00  0.45593999997E+02  0.45594000000E+02  0.51100000000E-03 0.  1.
         11   -1    0    0    0    0 -0.00000000000E+00 -0.00000000000E+00 -0.45593999997E+02  0.45594000000E+02  0.51100000000E-03 0. -1.
    9900012    2    1    2    0    0  0.26945845470E+02 -0.20099028856E+02  0.22871732790E+02  0.50528859455E+02  0.29999998799E+02 0.  0.
         12    1    1    2    0    0 -0.26945845470E+02  0.20099028856E+02 -0.22871732790E+02  0.40659140545E+02  0.00000000000E+00 0. -1.
         11    1    3    3    0    0  0.20937719612E+02 -0.74185698064E+01  0.16005752681E+02  0.27378959068E+02  0.51100000000E-03 0. -1.
        -11    1    3    3    0    0  0.53664590825E+01 -0.15708413802E+02  0.94646515182E+01  0.19108447762E+02  0.51100000000E-03 0.  1.
         12    1    3    3    0    0  0.64166677578E+00  0.30279547516E+01 -0.25986714091E+01  0.40414526251E+01  0.00000000000E+00 0. -1.
</event>
<event>
 7    1  0.2680581E-011  0.5052884E+02  0.7816164E-02  0.1300439E+00
        -11   -1    0    0    0    0  0.00000000000E+00  0.00000000000E+00  0.45593999997E+02  0.45594000000E+02  0.51100000000E-03 0.  1.
         11   -1    0    0    0    0 -0.00000000000E+00 -0.00000000000E+00 -0.45593999997E+02  0.45594000000E+02  0.51100000000E-03 0. -1.
    9900012    2    1    2    0    0 -0.37973016069E+02 -0.13920203413E+02 -0.41767716166E+01  0.50528838258E+02  0.29999934369E+02 0.  0.
         12    1    1    2    0    0  0.37973016069E+02  0.13920203413E+02  0.41767716166E+01  0.40659161742E+02  0.00000000000E+00 0. -1.
         11    1    3    3    0    0  0.34774820965E+00 -0.26612720539E+01 -0.10870887101E+01  0.28956967878E+01  0.51100000000E-03 0. -1.
        -11    1    3    3    0    0 -0.90160830360E+01 -0.10828255293E+02  0.81106573634E+01  0.16258032757E+02  0.51100000000E-03 0.  1.
        -12    1    3    3    0    0 -0.29304681243E+02 -0.43067606660E+00 -0.11200340270E+02  0.31375108713E+02  0.00000000000E+00 0.  1.
</event>
<event>
 7    1  0.2680581E-011  0.5052887E+02  0.7816164E-02  0.1300439E+00
        -11   -1    0    0    0    0  0.00000000000E+00  0.00000000000E+00  0.45593999997E+02  0.45594000000E+02  0.51100000000E-03 0. -1.
         11   -1    0    0    0    0 -0.00000000000E+00 -0.00000000000E+00 -0.45593999997E+02  0.45594000000E+02  0.51100000000E-03 0.  1.
    9900012    2    1    2    0    0  0.35421882832E+01 -0.37065764711E+02  0.16332374287E+02  0.50528874809E+02  0.30000045470E+02 0.  0.
         12    1    1    2    0    0 -0.35421882832E+01  0.37065764711E+02 -0.16332374287E+02  0.40659125191E+02  0.00000000000E+00 0. -1.
         11    1    3    3    0    0 -0.43238444906E+01 -0.10072104493E+02  0.80179596143E+01  0.13580522698E+02  0.51100000000E-03 0.  1.
        -11    1    3    3    0    0  0.98310411533E+01 -0.22441079240E+02  0.14922464384E+02  0.28686780077E+02  0.51100000000E-03 0. -1.
         12    1    3    3    0    0 -0.19650083794E+01 -0.45525809777E+01 -0.66080497121E+01  0.82615720349E+01  0.00000000000E+00 0. -1.
</event>
<event>
 7    1  0.2680581E-011  0.5052886E+02  0.7816164E-02  0.1300439E+00
        -11   -1    0    0    0    0  0.00000000000E+00  0.00000000000E+00  0.45593999997E+02  0.45594000000E+02  0.51100000000E-03 0. -1.
         11   -1    0    0    0    0 -0.00000000000E+00 -0.00000000000E+00 -0.45593999997E+02  0.45594000000E+02  0.51100000000E-03 0.  1.
    9900012    2    1    2    0    0 -0.17756995300E+02  0.28395819480E+02  0.23054981455E+02  0.50528860610E+02  0.30000002309E+02 0.  0.
         12    1    1    2    0    0  0.17756995300E+02 -0.28395819480E+02 -0.23054981455E+02  0.40659139390E+02  0.00000000000E+00 0. -1.
         11    1    3    3    0    0 -0.24386737860E+00 -0.25791256740E+01  0.48052336582E+01  0.54590870401E+01  0.51100000000E-03 0. -1.
        -11    1    3    3    0    0 -0.37044332719E+01  0.32762757763E+01 -0.44777769928E+01  0.66713788595E+01  0.51100000000E-03 0.  1.
        -12    1    3    3    0    0 -0.13808694650E+02  0.27698669378E+02  0.22727524790E+02  0.38398394710E+02  0.00000000000E+00 0.  1.
</event>
<event>
 7    1  0.2680581E-011  0.5052888E+02  0.7816164E-02  0.1300439E+00
        -11   -1    0    0    0    0  0.00000000000E+00  0.00000000000E+00  0.45593999997E+02  0.45594000000E+02  0.51100000000E-03 0.  1.
         11   -1    0    0    0    0 -0.00000000000E+00 -0.00000000000E+00 -0.45593999997E+02  0.45594000000E+02  0.51100000000E-03 0. -1.
    9900012    2    1    2    0    0 -0.10299869796E+02 -0.25253518040E+02  0.30155213876E+02  0.50528875377E+02  0.30000047195E+02 0.  0.
         12    1    1    2    0    0  0.10299869796E+02  0.25253518040E+02 -0.30155213876E+02  0.40659124623E+02  0.00000000000E+00 0. -1.
         11    1    3    3    0    0  0.48087917945E+01 -0.18746075780E+01  0.47081983290E+01  0.69861122136E+01  0.51100000000E-03 0. -1.
        -11    1    3    3    0    0 -0.26264981772E+01 -0.12777386374E+02  0.23726466534E+02  0.27075917522E+02  0.51100000000E-03 0.  1.
        -12    1    3    3    0    0 -0.12482163413E+02 -0.10601524088E+02  0.17205490131E+01  0.16466845641E+02  0.00000000000E+00 0.  1.
</event>
<event>
 7    1  0.2680581E-011  0.5052885E+02  0.7816164E-02  0.1300439E+00
        -11   -1    0    0    0    0  0.00000000000E+00  0.00000000000E+00  0.45593999997E+02  0.45594000000E+02  0.51100000000E-03 0. -1.
         11   -1    0    0    0    0 -0.00000000000E+00 -0.00000000000E+00 -0.45593999997E+02  0.45594000000E+02  0.51100000000E-03 0.  1.
    9900012    2    1    2    0    0  0.32468871802E+01  0.40526624364E+02 -0.46560432717E+00  0.50528851631E+02  0.29999975017E+02 0.  0.
         12    1    1    2    0    0 -0.32468871802E+01 -0.40526624364E+02  0.46560432717E+00  0.40659148369E+02  0.00000000000E+00 0. -1.
         11    1    3    3    0    0 -0.75791654756E+00  0.29980347920E+02 -0.49455336486E+01  0.30394966725E+02  0.51100000000E-03 0.  1.
        -11    1    3    3    0    0  0.35593504031E+01  0.12941835709E+02 -0.16633328887E+01  0.13525042084E+02  0.51100000000E-03 0. -1.
         12    1    3    3    0    0  0.44545332461E+00 -0.23955592649E+01  0.61432622101E+01  0.66088428214E+01  0.00000000000E+00 0. -1.
</event>
<event>
 7    1  0.2680581E-011  0.5052886E+02  0.7816164E-02  0.1300439E+00
        -11   -1    0    0    0    0  0.00000000000E+00  0.00000000000E+00  0.45593999997E+02  0.45594000000E+02  0.51100000000E-03 0. -1.
         11   -1    0    0    0    0 -0.00000000000E+00 -0.00000000000E+00 -0.45593999997E+02  0.45594000000E+02  0.51100000000E-03 0.  1.
    9900012    2    1    2    0    0  0.13183635902E+02  0.23573593293E+02 -0.30391500065E+02  0.50528857947E+02  0.29999994214E+02 0.  0.
         12    1    1    2    0    0 -0.13183635902E+02 -0.23573593293E+02  0.30391500065E+02  0.40659142053E+02  0.00000000000E+00 0. -1.
         11    1    3    3    0    0 -0.30057920056E+01 -0.25478365508E+01  0.19597394137E-02  0.39403376470E+01  0.51100000000E-03 0. -1.
        -11    1    3    3    0    0  0.11043657722E+02  0.47504437725E+01 -0.17088810735E+02  0.20893935592E+02  0.51100000000E-03 0.  1.
        -12    1    3    3    0    0  0.51457701862E+01  0.21370986071E+02 -0.13304649069E+02  0.25694584708E+02  0.00000000000E+00 0.  1.
</event>
<event>
 7    1  0.2680581E-011  0.5052886E+02  0.7816164E-02  0.1300439E+00
        -11   -1    0    0    0    0  0.00000000000E+00  0.00000000000E+00  0.45593999997E+02  0.45594000000E+02  0.51100000000E-03 0. -1.
         11   -1    0    0    0    0 -0.00000000000E+00 -0.00000000000E+00 -0.45593999997E+02  0.45594000000E+02  0.51100000000E-03 0.  1.
    9900012    2    1    2    0    0 -0.18524946935E+02 -0.19429610812E+02 -0.30536567402E+02  0.50528863463E+02  0.30000010983E+02 0.  0.
         12    1    1    2    0    0  0.18524946935E+02  0.19429610812E+02  0.30536567402E+02  0.40659136537E+02  0.00000000000E+00 0. -1.
         11    1    3    3    0    0 -0.30147149190E+00 -0.37207422814E+01  0.39073247589E+00  0.37533292307E+01  0.51100000000E-03 0. -1.
        -11    1    3    3    0    0 -0.87407425509E+00  0.66061830760E+01 -0.42175312616E+01  0.78862684992E+01  0.51100000000E-03 0.  1.
        -12    1    3    3    0    0 -0.17349401188E+02 -0.22315051606E+02 -0.26709768616E+02  0.38889265733E+02  0.00000000000E+00 0.  1.
</event>
<event>
 7    1  0.2680581E-011  0.5052887E+02  0.7816164E-02  0.1300439E+00
        -11   -1    0    0    0    0  0.00000000000E+00  0.00000000000E+00  0.45593999997E+02  0.45594000000E+02  0.51100000000E-03 0.  1.
         11   -1    0    0    0    0 -0.00000000000E+00 -0.00000000000E+00 -0.45593999997E+02  0.45594000000E+02  0.51100000000E-03 0. -1.
    9900012    2    1    2    0    0 -0.16261442975E+02 -0.11372228578E+02  0.35488060586E+02  0.50528873661E+02  0.30000041981E+02 0.  0.
         12    1    1    2    0    0  0.16261442975E+02  0.11372228578E+02 -0.35488060586E+02  0.40659126339E+02  0.00000000000E+00 0. -1.
         11    1    3    3    0    0  0.16069885750E+01 -0.35509510918E+01 -0.53515548809E+00  0.39342162617E+01  0.51100000000E-03 0. -1.
        -11    1    3    3    0    0  0.31621119298E+01  0.37397473275E+01  0.29012590838E+01  0.56922725218E+01  0.51100000000E-03 0.  1.
         12    1    3    3    0    0 -0.21030543480E+02 -0.11561024814E+02  0.33121956990E+02  0.40902384878E+02  0.00000000000E+00 0. -1.
</event>
<event>
 7    1  0.2680581E-011  0.5052883E+02  0.7816164E-02  0.1300439E+00
        -11   -1    0    0    0    0  0.00000000000E+00  0.00000000000E+00  0.45593999997E+02  0.45594000000E+02  0.51100000000E-03 0. -1.
         11   -1    0    0    0    0 -0.00000000000E+00 -0.00000000000E+00 -0.45593999997E+02  0.45594000000E+02  0.51100000000E-03 0.  1.
    9900012    2    1    2    0    0 -0.39299885898E+02 -0.75475572083E+01  0.71917811033E+01  0.50528826781E+02  0.29999899484E+02 0.  0.
         12    1    1    2    0    0  0.39299885898E+02  0.75475572083E+01 -0.71917811033E+01  0.40659173219E+02  0.00000000000E+00 0. -1.
         11    1    3    3    0    0 -0.28949730505E+01  0.67985588422E+01  0.22128902068E+01  0.77135046913E+01  0.51100000000E-03 0. -1.
        -11    1    3    3    0    0 -0.28239734645E+01 -0.58715474316E+01  0.49485081774E+01  0.81815419581E+01  0.51100000000E-03 0.  1.
        -12    1    3    3    0    0 -0.33580939383E+02 -0.84745686188E+01  0.30382719091E-01  0.34633780132E+02  0.00000000000E+00 0.  1.
</event>
<event>
 7    1  0.2680581E-011  0.5052886E+02  0.7816164E-02  0.1300439E+00
        -11   -1    0    0    0    0  0.00000000000E+00  0.00000000000E+00  0.45593999997E+02  0.45594000000E+02  0.51100000000E-03 0.  1.
         11   -1    0    0    0    0 -0.00000000000E+00 -0.00000000000E+00 -0.45593999997E+02  0.45594000000E+02  0.51100000000E-03 0. -1.
    9900012    2    1    2    0    0  0.12774033371E+02  0.63017768958E+01  0.38082501862E+02  0.50528864880E+02  0.30000015291E+02 0.  0.
         12    1    1    2    0    0 -0.12774033371E+02 -0.63017768958E+01 -0.38082501862E+02  0.40659135120E+02  0.00000000000E+00 0. -1.
         11    1    3    3    0    0  0.14883565263E+01  0.97917556463E+01  0.55880558693E+01  0.11371897487E+02  0.51100000000E-03 0. -1.
        -11    1    3    3    0    0 -0.11272896833E+00  0.40501791202E+01  0.20735990077E+02  0.21128131566E+02  0.51100000000E-03 0.  1.
        -12    1    3    3    0    0  0.11398405814E+02 -0.75401578706E+01  0.11758455916E+02  0.18028835828E+02  0.00000000000E+00 0.  1.
</event>
<event>
 7    1  0.2680581E-011  0.5052886E+02  0.7816164E-02  0.1300439E+00
        -11   -1    0    0    0    0  0.00000000000E+00  0.00000000000E+00  0.45593999997E+02  0.45594000000E+02  0.51100000000E-03 0.  1.
         11   -1    0    0    0    0 -0.00000000000E+00 -0.00000000000E+00 -0.45593999997E+02  0.45594000000E+02  0.51100000000E-03 0. -1.
    9900012    2    1    2    0    0  0.33309674021E+02  0.93217144818E+01  0.21371411131E+02  0.50528856404E+02  0.29999989525E+02 0.  0.
         12    1    1    2    0    0 -0.33309674021E+02 -0.93217144818E+01 -0.21371411131E+02  0.40659143596E+02  0.00000000000E+00 0. -1.
         11    1    3    3    0    0  0.19664925690E+02  0.31495379760E+01 -0.21154202244E+00  0.19916667446E+02  0.51100000000E-03 0. -1.
        -11    1    3    3    0    0  0.14684875419E+02 -0.20880416745E+00  0.17962963029E+02  0.23202525860E+02  0.51100000000E-03 0.  1.
        -12    1    3    3    0    0 -0.10401270888E+01  0.63809806733E+01  0.36199901246E+01  0.74096630973E+01  0.00000000000E+00 0.  1.
</event>
<event>
 7    1  0.2680581E-011  0.5052887E+02  0.7816164E-02  0.1300439E+00
        -11   -1    0    0    0    0  0.00000000000E+00  0.00000000000E+00  0.45593999997E+02  0.45594000000E+02  0.51100000000E-03 0.  1.
         11   -1    0    0    0    0 -0.00000000000E+00 -0.00000000000E+00 -0.45593999997E+02  0.45594000000E+02  0.51100000000E-03 0. -1.
    9900012    2    1    2    0    0 -0.35583965364E+02  0.14724378660E+02  0.13043741178E+02  0.50528866931E+02  0.30000021525E+02 0.  0.
         12    1    1    2    0    0  0.35583965364E+02 -0.14724378660E+02 -0.13043741178E+02  0.40659133069E+02  0.00000000000E+00 0. -1.
         11    1    3    3    0    0 -0.14040316671E+02  0.47497803493E+00  0.23961699558E+01  0.14251235984E+02  0.51100000000E-03 0. -1.
        -11    1    3    3    0    0 -0.15566677461E+02 -0.28791866192E+01  0.13385878027E+01  0.15887195484E+02  0.51100000000E-03 0.  1.
        -12    1    3    3    0    0 -0.59769712320E+01  0.17128587244E+02  0.93089834195E+01  0.20390435463E+02  0.00000000000E+00 0.  1.
</event>
<event>
 7    1  0.2680581E-011  0.5052890E+02  0.7816164E-02  0.1300439E+00
        -11   -1    0    0    0    0  0.00000000000E+00  0.00000000000E+00  0.45593999997E+02  0.45594000000E+02  0.51100000000E-03 0.  1.
         11   -1    0    0    0    0 -0.00000000000E+00 -0.00000000000E+00 -0.45593999997E+02  0.45594000000E+02  0.51100000000E-03 0. -1.
    9900012    2    1    2    0    0  0.32802850813E+02  0.22832545197E+02  0.74706429256E+01  0.50528897116E+02  0.30000113273E+02 0.  0.
         12    1    1    2    0    0 -0.32802850813E+02 -0.22832545197E+02 -0.74706429256E+01  0.40659102884E+02  0.00000000000E+00 0. -1.
         11    1    3    3    0    0 -0.15060305281E+01 -0.13515400969E+01  0.18231658655E+01  0.27237332137E+01  0.51100000000E-03 0. -1.
        -11    1    3    3    0    0  0.24615137762E+02  0.40898055716E+01  0.52094323515E+01  0.25490580660E+02  0.51100000000E-03 0.  1.
         12    1    3    3    0    0  0.96937435784E+01  0.20094279722E+02  0.43804470863E+00  0.22314583243E+02  0.00000000000E+00 0. -1.
</event>
<event>
 7    1  0.2680581E-011  0.5052885E+02  0.7816164E-02  0.1300439E+00
        -11   -1    0    0    0    0  0.00000000000E+00  0.00000000000E+00  0.45593999997E+02  0.45594000000E+02  0.51100000000E-03 0.  1.
         11   -1    0    0    0    0 -0.00000000000E+00 -0.00000000000E+00 -0.45593999997E+02  0.45594000000E+02  0.51100000000E-03 0. -1.
    9900012    2    1    2    0    0  0.10656860396E+02 -0.32942875832E+02  0.21315832523E+02  0.50528850258E+02  0.29999970844E+02 0.  0.
         12    1    1    2    0    0 -0.10656860396E+02  0.32942875832E+02 -0.21315832523E+02  0.40659149742E+02  0.00000000000E+00 0. -1.
         11    1    3    3    0    0  0.28077782370E+01 -0.17136696054E+02  0.34497400148E+01  0.17704538309E+02  0.51100000000E-03 0. -1.
        -11    1    3    3    0    0 -0.70107483070E+01 -0.21381256791E+01  0.52693235596E+01  0.90270673134E+01  0.51100000000E-03 0.  1.
         12    1    3    3    0    0  0.14859830466E+02 -0.13668054099E+02  0.12596768949E+02  0.23797244636E+02  0.00000000000E+00 0. -1.
</event>
<event>
 7    1  0.2680581E-011  0.5052887E+02  0.7816164E-02  0.1300439E+00
        -11   -1    0    0    0    0  0.00000000000E+00  0.00000000000E+00  0.45593999997E+02  0.45594000000E+02  0.51100000000E-03 0.  1.
         11   -1    0    0    0    0 -0.00000000000E+00 -0.00000000000E+00 -0.45593999997E+02  0.45594000000E+02  0.51100000000E-03 0. -1.
    9900012    2    1    2    0    0  0.38685588019E+02 -0.11330767436E+02 -0.53107319330E+01  0.50528869602E+02  0.30000029643E+02 0.  0.
         12    1    1    2    0    0 -0.38685588019E+02  0.11330767436E+02  0.53107319330E+01  0.40659130398E+02  0.00000000000E+00 0. -1.
         11    1    3    3    0    0  0.71906897531E+01 -0.57162493271E+01  0.28223142091E+01  0.96097337762E+01  0.51100000000E-03 0.  1.
        -11    1    3    3    0    0 -0.36172476886E+01  0.49265524050E+00  0.15831187252E+01  0.39791274403E+01  0.51100000000E-03 0. -1.
         12    1    3    3    0    0  0.35112145954E+02 -0.61071733490E+01 -0.97161648673E+01  0.36940008386E+02  0.00000000000E+00 0. -1.
</event>
<event>
 7    1  0.2680581E-011  0.5052892E+02  0.7816164E-02  0.1300439E+00
        -11   -1    0    0    0    0  0.00000000000E+00  0.00000000000E+00  0.45593999997E+02  0.45594000000E+02  0.51100000000E-03 0.  1.
         11   -1    0    0    0    0 -0.00000000000E+00 -0.00000000000E+00 -0.45593999997E+02  0.45594000000E+02  0.51100000000E-03 0. -1.
    9900012    2    1    2    0    0 -0.66665488612E+01  0.84682862883E+00  0.40099887089E+02  0.50528918149E+02  0.30000177206E+02 0.  0.
         12    1    1    2    0    0  0.66665488612E+01 -0.84682862883E+00 -0.40099887089E+02  0.40659081851E+02  0.00000000000E+00 0. -1.
         11    1    3    3    0    0  0.38410391929E+01  0.37001896844E+01  0.34631131468E+01  0.63590988914E+01  0.51100000000E-03 0. -1.
        -11    1    3    3    0    0 -0.63418822677E+01  0.95417429857E+01  0.14788570498E+02  0.18707382167E+02  0.51100000000E-03 0.  1.
        -12    1    3    3    0    0 -0.41657057863E+01 -0.12395104041E+02  0.21848203443E+02  0.25462437091E+02  0.00000000000E+00 0.  1.
</event>
<event>
 7    1  0.2680581E-011  0.5052886E+02  0.7816164E-02  0.1300439E+00
        -11   -1    0    0    0    0  0.00000000000E+00  0.00000000000E+00  0.45593999997E+02  0.45594000000E+02  0.51100000000E-03 0.  1.
         11   -1    0    0    0    0 -0.00000000000E+00 -0.00000000000E+00 -0.45593999997E+02  0.45594000000E+02  0.51100000000E-03 0. -1.
    9900012    2    1    2    0    0  0.23298171436E+02 -0.14290852083E+02  0.30102034966E+02  0.50528858905E+02  0.29999997127E+02 0.  0.
         12    1    1    2    0    0 -0.23298171436E+02  0.14290852083E+02 -0.30102034966E+02  0.40659141095E+02  0.00000000000E+00 0. -1.
         11    1    3    3    0    0 -0.42251227709E+01  0.10626211791E+01  0.11772942221E+02  0.12553206562E+02  0.51100000000E-03 0. -1.
        -11    1    3    3    0    0  0.16399587568E+02 -0.34200883684E+01  0.72411653232E+01  0.18250423347E+02  0.51100000000E-03 0.  1.
        -12    1    3    3    0    0  0.11123706639E+02 -0.11933384894E+02  0.11087927422E+02  0.19725228996E+02  0.00000000000E+00 0.  1.
</event>
<event>
 7    1  0.2680581E-011  0.5052886E+02  0.7816164E-02  0.1300439E+00
        -11   -1    0    0    0    0  0.00000000000E+00  0.00000000000E+00  0.45593999997E+02  0.45594000000E+02  0.51100000000E-03 0.  1.
         11   -1    0    0    0    0 -0.00000000000E+00 -0.00000000000E+00 -0.45593999997E+02  0.45594000000E+02  0.51100000000E-03 0. -1.
    9900012    2    1    2    0    0  0.21085296403E+02  0.11090826444E+02  0.32947986547E+02  0.50528856218E+02  0.29999988959E+02 0.  0.
         12    1    1    2    0    0 -0.21085296403E+02 -0.11090826444E+02 -0.32947986547E+02  0.40659143782E+02  0.00000000000E+00 0. -1.
         11    1    3    3    0    0 -0.14952078730E+01  0.52846201183E+01  0.84474558224E+01  0.10075830810E+02  0.51100000000E-03 0. -1.
        -11    1    3    3    0    0  0.52214260163E+01  0.38594271637E+00 -0.40385568548E+01  0.66122751874E+01  0.51100000000E-03 0.  1.
        -12    1    3    3    0    0  0.17359078259E+02  0.54202636091E+01  0.28539087579E+02  0.33840750220E+02  0.00000000000E+00 0.  1.
</event>
<event>
 7    1  0.2680581E-011  0.5052886E+02  0.7816164E-02  0.1300439E+00
        -11   -1    0    0    0    0  0.00000000000E+00  0.00000000000E+00  0.45593999997E+02  0.45594000000E+02  0.51100000000E-03 0.  1.
         11   -1    0    0    0    0 -0.00000000000E+00 -0.00000000000E+00 -0.45593999997E+02  0.45594000000E+02  0.51100000000E-03 0. -1.
    9900012    2    1    2    0    0  0.82784249203E+00  0.75458058005E+01  0.39944221963E+02  0.50528863553E+02  0.30000011255E+02 0.  0.
         12    1    1    2    0    0 -0.82784249203E+00 -0.75458058005E+01 -0.39944221963E+02  0.40659136447E+02  0.00000000000E+00 0. -1.
         11    1    3    3    0    0 -0.18042518285E+01 -0.37239810458E+00 -0.19282404210E+01  0.26668551500E+01  0.51100000000E-03 0. -1.
        -11    1    3    3    0    0 -0.67272899610E+01 -0.22543909745E+01  0.25327180321E+02  0.26302181889E+02  0.51100000000E-03 0.  1.
         12    1    3    3    0    0  0.93593842815E+01  0.10172594880E+02  0.16545282064E+02  0.21559826513E+02  0.00000000000E+00 0. -1.
</event>
<event>
 7    1  0.2680581E-011  0.5052886E+02  0.7816164E-02  0.1300439E+00
        -11   -1    0    0    0    0  0.00000000000E+00  0.00000000000E+00  0.45593999997E+02  0.45594000000E+02  0.51100000000E-03 0. -1.
         11   -1    0    0    0    0 -0.00000000000E+00 -0.00000000000E+00 -0.45593999997E+02  0.45594000000E+02  0.51100000000E-03 0.  1.
    9900012    2    1    2    0    0  0.11525205704E+02  0.35977549807E+02  0.15031676399E+02  0.50528858937E+02  0.29999997225E+02 0.  0.
         12    1    1    2    0    0 -0.11525205704E+02 -0.35977549807E+02 -0.15031676399E+02  0.40659141063E+02  0.00000000000E+00 0. -1.
         11    1    3    3    0    0 -0.12245666570E+01  0.11742620325E+01  0.10846121307E+02  0.10978014506E+02  0.51100000000E-03 0. -1.
        -11    1    3    3    0    0  0.15614387097E+01  0.20237181940E+01 -0.32405604731E+01  0.41273185743E+01  0.51100000000E-03 0.  1.
        -12    1    3    3    0    0  0.11188333652E+02  0.32779569580E+02  0.74261155647E+01  0.35423525857E+02  0.00000000000E+00 0.  1.
</event>
<event>
 7    1  0.2680581E-011  0.5052882E+02  0.7816164E-02  0.1300439E+00
        -11   -1    0    0    0    0  0.00000000000E+00  0.00000000000E+00  0.45593999997E+02  0.45594000000E+02  0.51100000000E-03 0.  1.
         11   -1    0    0    0    0 -0.00000000000E+00 -0.00000000000E+00 -0.45593999997E+02  0.45594000000E+02  0.51100000000E-03 0. -1.
    9900012    2    1    2    0    0 -0.31488992752E+02 -0.25407988093E+02  0.40057820842E+01  0.50528821287E+02  0.29999882784E+02 0.  0.
         12    1    1    2    0    0  0.31488992752E+02  0.25407988093E+02 -0.40057820842E+01  0.40659178713E+02  0.00000000000E+00 0. -1.
         11    1    3    3    0    0 -0.10617983777E+02 -0.14699278116E+02 -0.79721948164E+01  0.19808236849E+02  0.51100000000E-03 0. -1.
        -11    1    3    3    0    0 -0.46880018101E+01 -0.10875931330E+02  0.71399952415E+01  0.13829055484E+02  0.51100000000E-03 0.  1.
         12    1    3    3    0    0 -0.16183007165E+02  0.16722135244E+00  0.48379816591E+01  0.16891528954E+02  0.00000000000E+00 0. -1.
</event>
<event>
 7    1  0.2680581E-011  0.5052886E+02  0.7816164E-02  0.1300439E+00
        -11   -1    0    0    0    0  0.00000000000E+00  0.00000000000E+00  0.45593999997E+02  0.45594000000E+02  0.51100000000E-03 0.  1.
         11   -1    0    0    0    0 -0.00000000000E+00 -0.00000000000E+00 -0.45593999997E+02  0.45594000000E+02  0.51100000000E-03 0. -1.
    9900012    2    1    2    0    0  0.34434904734E+02  0.21543950026E+02  0.18058290354E+01  0.50528862463E+02  0.30000007942E+02 0.  0.
         12    1    1    2    0    0 -0.34434904734E+02 -0.21543950026E+02 -0.18058290354E+01  0.40659137537E+02  0.00000000000E+00 0. -1.
         11    1    3    3    0    0  0.11950467308E+02  0.30856830258E+01  0.37917375335E+01  0.12911714929E+02  0.51100000000E-03 0. -1.
        -11    1    3    3    0    0 -0.10241360888E+01  0.18041476945E+01  0.71091644325E+01  0.74056750415E+01  0.51100000000E-03 0.  1.
         12    1    3    3    0    0  0.23508573515E+02  0.16654119306E+02 -0.90950729305E+01  0.30211472493E+02  0.00000000000E+00 0. -1.
</event>
<event>
 7    1  0.2680581E-011  0.5052886E+02  0.7816164E-02  0.1300439E+00
        -11   -1    0    0    0    0  0.00000000000E+00  0.00000000000E+00  0.45593999997E+02  0.45594000000E+02  0.51100000000E-03 0.  1.
         11   -1    0    0    0    0 -0.00000000000E+00 -0.00000000000E+00 -0.45593999997E+02  0.45594000000E+02  0.51100000000E-03 0. -1.
    9900012    2    1    2    0    0  0.18379408021E+02  0.27673698599E+02  0.23442036774E+02  0.50528864232E+02  0.30000013319E+02 0.  0.
         12    1    1    2    0    0 -0.18379408021E+02 -0.27673698599E+02 -0.23442036774E+02  0.40659135768E+02  0.00000000000E+00 0. -1.
         11    1    3    3    0    0  0.33330070562E+01  0.40277131517E+01 -0.24087504494E+01  0.57561695821E+01  0.51100000000E-03 0. -1.
        -11    1    3    3    0    0  0.16535081245E+02  0.11661217258E+02  0.25681636671E+02  0.32694638124E+02  0.51100000000E-03 0.  1.
         12    1    3    3    0    0 -0.14886802807E+01  0.11984768189E+02  0.16915055230E+00  0.12078056525E+02  0.00000000000E+00 0. -1.
</event>
<event>
 7    1  0.2680581E-011  0.5052886E+02  0.7816164E-02  0.1300439E+00
        -11   -1    0    0    0    0  0.00000000000E+00  0.00000000000E+00  0.45593999997E+02  0.45594000000E+02  0.51100000000E-03 0. -1.
         11   -1    0    0    0    0 -0.00000000000E+00 -0.00000000000E+00 -0.45593999997E+02  0.45594000000E+02  0.51100000000E-03 0.  1.
    9900012    2    1    2    0    0  0.35442907215E+02  0.55716395862E+01 -0.19129108479E+02  0.50528860428E+02  0.30000001757E+02 0.  0.
         12    1    1    2    0    0 -0.35442907215E+02 -0.55716395862E+01  0.19129108479E+02  0.40659139572E+02  0.00000000000E+00 0. -1.
         11    1    3    3    0    0 -0.19431141033E+01 -0.20545228439E+01 -0.14939206271E+01  0.31982113182E+01  0.51100000000E-03 0. -1.
        -11    1    3    3    0    0  0.11529542221E+02  0.84387091462E+01  0.25557588115E+01  0.14514615366E+02  0.51100000000E-03 0.  1.
        -12    1    3    3    0    0  0.25856479098E+02 -0.81254671604E+00 -0.20190946663E+02  0.32816033744E+02  0.00000000000E+00 0.  1.
</event>
<event>
 7    1  0.2680581E-011  0.5052886E+02  0.7816164E-02  0.1300439E+00
        -11   -1    0    0    0    0  0.00000000000E+00  0.00000000000E+00  0.45593999997E+02  0.45594000000E+02  0.51100000000E-03 0.  1.
         11   -1    0    0    0    0 -0.00000000000E+00 -0.00000000000E+00 -0.45593999997E+02  0.45594000000E+02  0.51100000000E-03 0. -1.
    9900012    2    1    2    0    0 -0.75379007586E+01  0.21932295354E+02  0.33396403280E+02  0.50528864749E+02  0.30000014890E+02 0.  0.
         12    1    1    2    0    0  0.75379007586E+01 -0.21932295354E+02 -0.33396403280E+02  0.40659135251E+02  0.00000000000E+00 0. -1.
         11    1    3    3    0    0 -0.64287545323E+01  0.14167832897E+02  0.26350933491E+01  0.15779736723E+02  0.51100000000E-03 0. -1.
        -11    1    3    3    0    0  0.20398099159E+01  0.11207575900E+02  0.19937696523E+02  0.22962628877E+02  0.51100000000E-03 0.  1.
        -12    1    3    3    0    0 -0.31489561422E+01 -0.34431134433E+01  0.10823613408E+02  0.11786499148E+02  0.00000000000E+00 0.  1.
</event>
<event>
 7    1  0.2680581E-011  0.5052886E+02  0.7816164E-02  0.1300439E+00
        -11   -1    0    0    0    0  0.00000000000E+00  0.00000000000E+00  0.45593999997E+02  0.45594000000E+02  0.51100000000E-03 0.  1.
         11   -1    0    0    0    0 -0.00000000000E+00 -0.00000000000E+00 -0.45593999997E+02  0.45594000000E+02  0.51100000000E-03 0. -1.
    9900012    2    1    2    0    0 -0.60176064330E+01  0.29156807819E+02  0.27691774007E+02  0.50528863548E+02  0.30000011240E+02 0.  0.
         12    1    1    2    0    0  0.60176064330E+01 -0.29156807819E+02 -0.27691774007E+02  0.40659136452E+02  0.00000000000E+00 0. -1.
         11    1    3    3    0    0  0.49795653131E+01  0.87211444779E+00  0.25722818399E+00  0.50618989438E+01  0.51100000000E-03 0. -1.
        -11    1    3    3    0    0  0.40406467153E+01  0.12830090717E+02  0.16504288264E+02  0.21291537874E+02  0.51100000000E-03 0.  1.
        -12    1    3    3    0    0 -0.15037818461E+02  0.15454602655E+02  0.10930257559E+02  0.24175426730E+02  0.00000000000E+00 0.  1.
</event>
<event>
 7    1  0.2680581E-011  0.5052887E+02  0.7816164E-02  0.1300439E+00
        -11   -1    0    0    0    0  0.00000000000E+00  0.00000000000E+00  0.45593999997E+02  0.45594000000E+02  0.51100000000E-03 0.  1.
         11   -1    0    0    0    0 -0.00000000000E+00 -0.00000000000E+00 -0.45593999997E+02  0.45594000000E+02  0.51100000000E-03 0. -1.
    9900012    2    1    2    0    0  0.25206419018E+02 -0.60534636363E+01  0.31323418935E+02  0.50528873650E+02  0.30000041947E+02 0.  0.
         12    1    1    2    0    0 -0.25206419018E+02  0.60534636363E+01 -0.31323418935E+02  0.40659126350E+02  0.00000000000E+00 0. -1.
         11    1    3    3    0    0  0.19074005713E+02 -0.15310904662E+01  0.24540433432E+02  0.31119042486E+02  0.51100000000E-03 0. -1.
        -11    1    3    3    0    0 -0.62550427705E+00  0.76503345573E+00  0.10145815203E+02  0.10193826474E+02  0.51100000000E-03 0.  1.
         12    1    3    3    0    0  0.67579175828E+01 -0.52874066259E+01 -0.33628296989E+01  0.92160046912E+01  0.00000000000E+00 0. -1.
</event>
<event>
 7    1  0.2680581E-011  0.5052888E+02  0.7816164E-02  0.1300439E+00
        -11   -1    0    0    0    0  0.00000000000E+00  0.00000000000E+00  0.45593999997E+02  0.45594000000E+02  0.51100000000E-03 0.  1.
         11   -1    0    0    0    0 -0.00000000000E+00 -0.00000000000E+00 -0.45593999997E+02  0.45594000000E+02  0.51100000000E-03 0. -1.
    9900012    2    1    2    0    0 -0.34369977759E+02  0.29305624025E+01  0.21523952605E+02  0.50528879217E+02  0.30000058867E+02 0.  0.
         12    1    1    2    0    0  0.34369977759E+02 -0.29305624025E+01 -0.21523952605E+02  0.40659120783E+02  0.00000000000E+00 0. -1.
         11    1    3    3    0    0 -0.64023886455E+01 -0.30852296074E+01  0.11787195672E+00  0.71079614629E+01  0.51100000000E-03 0.  1.
        -11    1    3    3    0    0 -0.32116367104E+02  0.37431327708E+01  0.21242905350E+02  0.38687635065E+02  0.51100000000E-03 0. -1.
         12    1    3    3    0    0  0.41487779911E+01  0.22726592391E+01  0.16317529836E+00  0.47332826891E+01  0.00000000000E+00 0. -1.
</event>
<event>
 7    1  0.2680581E-011  0.5052886E+02  0.7816164E-02  0.1300439E+00
        -11   -1    0    0    0    0  0.00000000000E+00  0.00000000000E+00  0.45593999997E+02  0.45594000000E+02  0.51100000000E-03 0.  1.
         11   -1    0    0    0    0 -0.00000000000E+00 -0.00000000000E+00 -0.45593999997E+02  0.45594000000E+02  0.51100000000E-03 0. -1.
    9900012    2    1    2    0    0  0.21590048492E+02  0.76951881021E+00  0.34444783606E+02  0.50528862395E+02  0.30000007737E+02 0.  0.
         12    1    1    2    0    0 -0.21590048492E+02 -0.76951881021E+00 -0.34444783606E+02  0.40659137605E+02  0.00000000000E+00 0. -1.
         11    1    3    3    0    0  0.82197393153E+01  0.12083455491E+02  0.18166771554E+02  0.23315351166E+02  0.51100000000E-03 0.  1.
        -11    1    3    3    0    0  0.12282780373E+00 -0.66259267382E+01  0.95737599195E+01  0.11643662270E+02  0.51100000000E-03 0. -1.
        -12    1    3    3    0    0  0.13247481373E+02 -0.46880099430E+01  0.67042521322E+01  0.15569848959E+02  0.00000000000E+00 0.  1.
</event>
<event>
 7    1  0.2680581E-011  0.5052891E+02  0.7816164E-02  0.1300439E+00
        -11   -1    0    0    0    0  0.00000000000E+00  0.00000000000E+00  0.45593999997E+02  0.45594000000E+02  0.51100000000E-03 0.  1.
         11   -1    0    0    0    0 -0.00000000000E+00 -0.00000000000E+00 -0.45593999997E+02  0.45594000000E+02  0.51100000000E-03 0. -1.
    9900012    2    1    2    0    0  0.30108831583E+02  0.10087345261E+02  0.25394199082E+02  0.50528909741E+02  0.30000151649E+02 0.  0.
         12    1    1    2    0    0 -0.30108831583E+02 -0.10087345261E+02 -0.25394199082E+02  0.40659090259E+02  0.00000000000E+00 0. -1.
         11    1    3    3    0    0  0.16580254922E+02  0.11834890245E+01 -0.17930127194E+01  0.16718863431E+02  0.51100000000E-03 0. -1.
        -11    1    3    3    0    0  0.23891813794E+01  0.67362530366E+01  0.45087599468E+01  0.84506928211E+01  0.51100000000E-03 0.  1.
        -12    1    3    3    0    0  0.11139395281E+02  0.21676032000E+01  0.22678451854E+02  0.25359353489E+02  0.00000000000E+00 0.  1.
</event>
<event>
 7    1  0.2680581E-011  0.5052885E+02  0.7816164E-02  0.1300439E+00
        -11   -1    0    0    0    0  0.00000000000E+00  0.00000000000E+00  0.45593999997E+02  0.45594000000E+02  0.51100000000E-03 0.  1.
         11   -1    0    0    0    0 -0.00000000000E+00 -0.00000000000E+00 -0.45593999997E+02  0.45594000000E+02  0.51100000000E-03 0. -1.
    9900012    2    1    2    0    0 -0.27401025416E+02  0.29604674055E+02  0.50905709548E+01  0.50528845651E+02  0.29999956841E+02 0.  0.
         12    1    1    2    0    0  0.27401025416E+02 -0.29604674055E+02 -0.50905709548E+01  0.40659154349E+02  0.00000000000E+00 0. -1.
         11    1    3    3    0    0 -0.43996238647E+01  0.69857356524E+01 -0.27919232157E+01  0.87150460848E+01  0.51100000000E-03 0. -1.
        -11    1    3    3    0    0  0.27889167402E+01  0.76335712019E+01  0.87909995705E+01  0.11972098379E+02  0.51100000000E-03 0.  1.
         12    1    3    3    0    0 -0.25790318291E+02  0.14985367201E+02 -0.90850540011E+00  0.29841701188E+02  0.00000000000E+00 0. -1.
</event>
<event>
 7    1  0.2680581E-011  0.5052885E+02  0.7816164E-02  0.1300439E+00
        -11   -1    0    0    0    0  0.00000000000E+00  0.00000000000E+00  0.45593999997E+02  0.45594000000E+02  0.51100000000E-03 0.  1.
         11   -1    0    0    0    0 -0.00000000000E+00 -0.00000000000E+00 -0.45593999997E+02  0.45594000000E+02  0.51100000000E-03 0. -1.
    9900012    2    1    2    0    0  0.16240243673E+02  0.24680125313E+02  0.27934072592E+02  0.50528849595E+02  0.29999968830E+02 0.  0.
         12    1    1    2    0    0 -0.16240243673E+02 -0.24680125313E+02 -0.27934072592E+02  0.40659150405E+02  0.00000000000E+00 0. -1.
         11    1    3    3    0    0 -0.30165331272E+01  0.42514579959E+01 -0.14580669500E+01  0.54129776178E+01  0.51100000000E-03 0. -1.
        -11    1    3    3    0    0  0.14235581595E+02  0.15198362074E+02  0.76302986940E+01  0.22177994758E+02  0.51100000000E-03 0.  1.
        -12    1    3    3    0    0  0.50211952055E+01  0.52303052440E+01  0.21761840848E+02  0.22937877220E+02  0.00000000000E+00 0.  1.
</event>
<event>
 7    1  0.2680581E-011  0.5052885E+02  0.7816164E-02  0.1300439E+00
        -11   -1    0    0    0    0  0.00000000000E+00  0.00000000000E+00  0.45593999997E+02  0.45594000000E+02  0.51100000000E-03 0.  1.
         11   -1    0    0    0    0 -0.00000000000E+00 -0.00000000000E+00 -0.45593999997E+02  0.45594000000E+02  0.51100000000E-03 0. -1.
    9900012    2    1    2    0    0  0.31342153984E+02 -0.24558576081E+02  0.82287198887E+01  0.50528854577E+02  0.29999983973E+02 0.  0.
         12    1    1    2    0    0 -0.31342153984E+02  0.24558576081E+02 -0.82287198887E+01  0.40659145423E+02  0.00000000000E+00 0. -1.
         11    1    3    3    0    0  0.12391101235E+02 -0.35718764404E+01  0.13251760421E+02  0.18490723231E+02  0.51100000000E-03 0. -1.
        -11    1    3    3    0    0  0.21471087383E+01 -0.12336735876E+02 -0.38564671146E+01  0.13102574818E+02  0.51100000000E-03 0.  1.
         12    1    3    3    0    0  0.16803944011E+02 -0.86499637647E+01 -0.11665734173E+01  0.18935556528E+02  0.00000000000E+00 0. -1.
</event>
<event>
 7    1  0.2680581E-011  0.5052886E+02  0.7816164E-02  0.1300439E+00
        -11   -1    0    0    0    0  0.00000000000E+00  0.00000000000E+00  0.45593999997E+02  0.45594000000E+02  0.51100000000E-03 0.  1.
         11   -1    0    0    0    0 -0.00000000000E+00 -0.00000000000E+00 -0.45593999997E+02  0.45594000000E+02  0.51100000000E-03 0. -1.
    9900012    2    1    2    0    0 -0.25148869772E+02 -0.30840712818E+02  0.83396897170E+01  0.50528860283E+02  0.30000001317E+02 0.  0.
         12    1    1    2    0    0  0.25148869772E+02  0.30840712818E+02 -0.83396897170E+01  0.40659139717E+02  0.00000000000E+00 0. -1.
         11    1    3    3    0    0  0.14099036618E+00  0.42285109985E+01  0.26304010598E+00  0.42390298308E+01  0.51100000000E-03 0. -1.
        -11    1    3    3    0    0 -0.98814989914E+00  0.13406140204E+01  0.10109998823E+01  0.19482831412E+01  0.51100000000E-03 0.  1.
        -12    1    3    3    0    0 -0.24301710239E+02 -0.36409837837E+02  0.70656497287E+01  0.44341547311E+02  0.00000000000E+00 0.  1.
</event>
<event>
 7    1  0.2680581E-011  0.5052898E+02  0.7816164E-02  0.1300438E+00
        -11   -1    0    0    0    0  0.00000000000E+00  0.00000000000E+00  0.45593999997E+02  0.45594000000E+02  0.51100000000E-03 0. -1.
         11   -1    0    0    0    0 -0.00000000000E+00 -0.00000000000E+00 -0.45593999997E+02  0.45594000000E+02  0.51100000000E-03 0.  1.
    9900012    2    1    2    0    0  0.21271747918E+02  0.30000625599E+02 -0.17338708717E+02  0.50528983585E+02  0.30000376103E+02 0.  0.
         12    1    1    2    0    0 -0.21271747918E+02 -0.30000625599E+02  0.17338708717E+02  0.40659016415E+02  0.00000000000E+00 0. -1.
         11    1    3    3    0    0  0.45391715344E+01 -0.11714859879E+01  0.21735103258E+01  0.51672628185E+01  0.51100000000E-03 0. -1.
        -11    1    3    3    0    0  0.44203738268E+01  0.80313335823E+01 -0.16632570967E+02  0.18991694003E+02  0.51100000000E-03 0.  1.
         12    1    3    3    0    0  0.12312202557E+02  0.23140778005E+02 -0.28796480764E+01  0.26370026764E+02  0.00000000000E+00 0. -1.
</event>
<event>
 7    1  0.2680581E-011  0.5052886E+02  0.7816164E-02  0.1300439E+00
        -11   -1    0    0    0    0  0.00000000000E+00  0.00000000000E+00  0.45593999997E+02  0.45594000000E+02  0.51100000000E-03 0. -1.
         11   -1    0    0    0    0 -0.00000000000E+00 -0.00000000000E+00 -0.45593999997E+02  0.45594000000E+02  0.51100000000E-03 0.  1.
    9900012    2    1    2    0    0 -0.26885681412E+02 -0.10430205953E+02 -0.28662455126E+02  0.50528863326E+02  0.30000010567E+02 0.  0.
         12    1    1    2    0    0  0.26885681412E+02  0.10430205953E+02  0.28662455126E+02  0.40659136674E+02  0.00000000000E+00 0. -1.
         11    1    3    3    0    0 -0.89029351359E+01 -0.27287738014E+01 -0.11789900270E+02  0.15023654986E+02  0.51100000000E-03 0. -1.
        -11    1    3    3    0    0 -0.11836281229E+01 -0.12597132375E+02 -0.11764485811E+02  0.17276916573E+02  0.51100000000E-03 0.  1.
         12    1    3    3    0    0 -0.16799118153E+02  0.48957002228E+01 -0.51080690438E+01  0.18228291767E+02  0.00000000000E+00 0. -1.
</event>
<event>
 7    1  0.2680581E-011  0.5052886E+02  0.7816164E-02  0.1300439E+00
        -11   -1    0    0    0    0  0.00000000000E+00  0.00000000000E+00  0.45593999997E+02  0.45594000000E+02  0.51100000000E-03 0.  1.
         11   -1    0    0    0    0 -0.00000000000E+00 -0.00000000000E+00 -0.45593999997E+02  0.45594000000E+02  0.51100000000E-03 0. -1.
    9900012    2    1    2    0    0 -0.37368223536E+02 -0.68005083666E+01  0.14509817446E+02  0.50528857773E+02  0.29999993688E+02 0.  0.
         12    1    1    2    0    0  0.37368223536E+02  0.68005083666E+01 -0.14509817446E+02  0.40659142227E+02  0.00000000000E+00 0. -1.
         11    1    3    3    0    0 -0.81942092388E+01  0.21443065491E+01  0.27790071074E+01  0.89143702183E+01  0.51100000000E-03 0. -1.
        -11    1    3    3    0    0  0.33380793342E+00  0.32145685762E+01 -0.47112313529E+01  0.57131935018E+01  0.51100000000E-03 0.  1.
        -12    1    3    3    0    0 -0.29507822231E+02 -0.12159383492E+02  0.16442041691E+02  0.35901294053E+02  0.00000000000E+00 0.  1.
</event>
<event>
 7    1  0.2787555E-011  0.5052885E+02  0.7816164E-02  0.1300439E+00
        -11   -1    0    0    0    0  0.00000000000E+00  0.00000000000E+00  0.45593999997E+02  0.45594000000E+02  0.51100000000E-03 0. -1.
         11   -1    0    0    0    0 -0.00000000000E+00 -0.00000000000E+00 -0.45593999997E+02  0.45594000000E+02  0.51100000000E-03 0.  1.
    9900012    2    1    2    0    0 -0.21280114493E+01  0.48342066378E+01 -0.40314614509E+02  0.50528854294E+02  0.29999983111E+02 0.  0.
         12    1    1    2    0    0  0.21280114493E+01 -0.48342066378E+01  0.40314614509E+02  0.40659145706E+02  0.00000000000E+00 0. -1.
         11    1    3    3    0    0 -0.50593519866E+01  0.10806056878E+02 -0.69581691708E+01  0.13812459094E+02  0.51100000000E-03 0. -1.
        -11    1    3    3    0    0  0.27310987912E+01 -0.29158348228E+01 -0.87363050919E+00  0.40895261154E+01  0.51100000000E-03 0.  1.
        -12    1    3    3    0    0  0.20024174607E+00 -0.30560154171E+01 -0.32482814829E+02  0.32626869084E+02  0.00000000000E+00 0.  1.
</event>
<event>
 7    1  0.2680581E-011  0.5052886E+02  0.7816164E-02  0.1300439E+00
        -11   -1    0    0    0    0  0.00000000000E+00  0.00000000000E+00  0.45593999997E+02  0.45594000000E+02  0.51100000000E-03 0.  1.
         11   -1    0    0    0    0 -0.00000000000E+00 -0.00000000000E+00 -0.45593999997E+02  0.45594000000E+02  0.51100000000E-03 0. -1.
    9900012    2    1    2    0    0  0.57642513806E+00  0.23312994274E+02  0.33306720575E+02  0.50528860764E+02  0.30000002777E+02 0.  0.
         12    1    1    2    0    0 -0.57642513806E+00 -0.23312994274E+02 -0.33306720575E+02  0.40659139236E+02  0.00000000000E+00 0. -1.
         11    1    3    3    0    0 -0.43766878773E+01  0.20652338241E+01 -0.24291028120E+01  0.54148987300E+01  0.51100000000E-03 0. -1.
        -11    1    3    3    0    0 -0.56025432623E+00 -0.22298279920E+01  0.81726352569E+01  0.84898754459E+01  0.51100000000E-03 0.  1.
        -12    1    3    3    0    0  0.55133673416E+01  0.23477588442E+02  0.27563188130E+02  0.36624086588E+02  0.00000000000E+00 0.  1.
</event>
<event>
 7    1  0.2680581E-011  0.5052886E+02  0.7816164E-02  0.1300439E+00
        -11   -1    0    0    0    0  0.00000000000E+00  0.00000000000E+00  0.45593999997E+02  0.45594000000E+02  0.51100000000E-03 0.  1.
         11   -1    0    0    0    0 -0.00000000000E+00 -0.00000000000E+00 -0.45593999997E+02  0.45594000000E+02  0.51100000000E-03 0. -1.
    9900012    2    1    2    0    0 -0.21304965514E+02  0.28942468843E+02  0.19015728251E+02  0.50528856143E+02  0.29999988732E+02 0.  0.
         12    1    1    2    0    0  0.21304965514E+02 -0.28942468843E+02 -0.19015728251E+02  0.40659143857E+02  0.00000000000E+00 0. -1.
         11    1    3    3    0    0 -0.13019232658E+02  0.32382965428E+01  0.79235662495E+01  0.15581074605E+02  0.51100000000E-03 0.  1.
        -11    1    3    3    0    0 -0.34262463711E+01  0.57138766383E+01 -0.54038308135E+01  0.85783995101E+01  0.51100000000E-03 0. -1.
        -12    1    3    3    0    0 -0.48594864851E+01  0.19990295662E+02  0.16495992815E+02  0.26369382027E+02  0.00000000000E+00 0.  1.
</event>
<event>
 7    1  0.2680581E-011  0.5052886E+02  0.7816164E-02  0.1300439E+00
        -11   -1    0    0    0    0  0.00000000000E+00  0.00000000000E+00  0.45593999997E+02  0.45594000000E+02  0.51100000000E-03 0.  1.
         11   -1    0    0    0    0 -0.00000000000E+00 -0.00000000000E+00 -0.45593999997E+02  0.45594000000E+02  0.51100000000E-03 0. -1.
    9900012    2    1    2    0    0 -0.31547341294E+02 -0.86494704972E+01  0.24147827806E+02  0.50528859941E+02  0.30000000276E+02 0.  0.
         12    1    1    2    0    0  0.31547341294E+02  0.86494704972E+01 -0.24147827806E+02  0.40659140059E+02  0.00000000000E+00 0. -1.
         11    1    3    3    0    0 -0.12778237794E+00 -0.30424040438E+01 -0.11949098492E+01  0.32711405520E+01  0.51100000000E-03 0. -1.
        -11    1    3    3    0    0 -0.10331593398E+02 -0.97557582800E+01  0.20960854046E+02  0.25323389275E+02  0.51100000000E-03 0.  1.
         12    1    3    3    0    0 -0.21087965519E+02  0.41486918267E+01  0.43818836087E+01  0.21934330114E+02  0.00000000000E+00 0. -1.
</event>
<event>
 7    1  0.2680581E-011  0.5052883E+02  0.7816164E-02  0.1300439E+00
        -11   -1    0    0    0    0  0.00000000000E+00  0.00000000000E+00  0.45593999997E+02  0.45594000000E+02  0.51100000000E-03 0.  1.
         11   -1    0    0    0    0 -0.00000000000E+00 -0.00000000000E+00 -0.45593999997E+02  0.45594000000E+02  0.51100000000E-03 0. -1.
    9900012    2    1    2    0    0  0.15821432195E+02 -0.13968654358E+02  0.34752372407E+02  0.50528826260E+02  0.29999897900E+02 0.  0.
         12    1    1    2    0    0 -0.15821432195E+02  0.13968654358E+02 -0.34752372407E+02  0.40659173740E+02  0.00000000000E+00 0. -1.
         11    1    3    3    0    0  0.66357699148E+01  0.66726572377E+00  0.11805183963E+02  0.13558799894E+02  0.51100000000E-03 0. -1.
        -11    1    3    3    0    0  0.13060856574E+02 -0.99095937270E+00  0.17307918805E+02  0.21705575979E+02  0.51100000000E-03 0.  1.
         12    1    3    3    0    0 -0.38751942935E+01 -0.13644960710E+02  0.56392696388E+01  0.15264450388E+02  0.00000000000E+00 0. -1.
</event>
<event>
 7    1  0.2680581E-011  0.5052886E+02  0.7816164E-02  0.1300439E+00
        -11   -1    0    0    0    0  0.00000000000E+00  0.00000000000E+00  0.45593999997E+02  0.45594000000E+02  0.51100000000E-03 0.  1.
         11   -1    0    0    0    0 -0.00000000000E+00 -0.00000000000E+00 -0.45593999997E+02  0.45594000000E+02  0.51100000000E-03 0. -1.
    9900012    2    1    2    0    0 -0.33057076020E+02 -0.98673514487E+01  0.21518158342E+02  0.50528855419E+02  0.29999986532E+02 0.  0.
         12    1    1    2    0    0  0.33057076020E+02  0.98673514487E+01 -0.21518158342E+02  0.40659144581E+02  0.00000000000E+00 0. -1.
         11    1    3    3    0    0 -0.21742834199E+01 -0.26245604565E+01 -0.18601620135E+00  0.34132723694E+01  0.51100000000E-03 0. -1.
        -11    1    3    3    0    0 -0.19393625176E+02 -0.68168894808E+01  0.27424803618E+02  0.34273933731E+02  0.51100000000E-03 0.  1.
         12    1    3    3    0    0 -0.11489167424E+02 -0.42590151142E+00 -0.57206290752E+01  0.12841649318E+02  0.00000000000E+00 0. -1.
</event>
<event>
 7    1  0.2680581E-011  0.5052886E+02  0.7816164E-02  0.1300439E+00
        -11   -1    0    0    0    0  0.00000000000E+00  0.00000000000E+00  0.45593999997E+02  0.45594000000E+02  0.51100000000E-03 0. -1.
         11   -1    0    0    0    0 -0.00000000000E+00 -0.00000000000E+00 -0.45593999997E+02  0.45594000000E+02  0.51100000000E-03 0.  1.
    9900012    2    1    2    0    0  0.12981804197E+02  0.23083651680E+02 -0.30850992344E+02  0.50528856579E+02  0.29999990056E+02 0.  0.
         12    1    1    2    0    0 -0.12981804197E+02 -0.23083651680E+02  0.30850992344E+02  0.40659143421E+02  0.00000000000E+00 0. -1.
         11    1    3    3    0    0  0.57278188628E+01  0.37744104245E+01  0.18671551182E+01  0.71091737547E+01  0.51100000000E-03 0. -1.
        -11    1    3    3    0    0  0.13425945890E+02  0.16600124691E+02 -0.21284581033E+02  0.30147198092E+02  0.51100000000E-03 0.  1.
         12    1    3    3    0    0 -0.61719605553E+01  0.27091165651E+01 -0.11433566430E+02  0.13272484732E+02  0.00000000000E+00 0. -1.
</event>
<event>
 7    1  0.2680581E-011  0.5052886E+02  0.7816164E-02  0.1300439E+00
        -11   -1    0    0    0    0  0.00000000000E+00  0.00000000000E+00  0.45593999997E+02  0.45594000000E+02  0.51100000000E-03 0.  1.
         11   -1    0    0    0    0 -0.00000000000E+00 -0.00000000000E+00 -0.45593999997E+02  0.45594000000E+02  0.51100000000E-03 0. -1.
    9900012    2    1    2    0    0 -0.16242901723E+00  0.18090200602E+02  0.36412692264E+02  0.50528857130E+02  0.29999991733E+02 0.  0.
         12    1    1    2    0    0  0.16242901723E+00 -0.18090200602E+02 -0.36412692264E+02  0.40659142870E+02  0.00000000000E+00 0. -1.
         11    1    3    3    0    0  0.14530461487E+01  0.84210496222E+01 -0.24514047623E+00  0.85490066068E+01  0.51100000000E-03 0. -1.
        -11    1    3    3    0    0  0.77136875526E+01  0.12847620917E+01  0.16076592472E+02  0.17877595338E+02  0.51100000000E-03 0.  1.
        -12    1    3    3    0    0 -0.93291627185E+01  0.83843888884E+01  0.20581240268E+02  0.24102255186E+02  0.00000000000E+00 0.  1.
</event>
<event>
 7    1  0.2680581E-011  0.5052886E+02  0.7816164E-02  0.1300439E+00
        -11   -1    0    0    0    0  0.00000000000E+00  0.00000000000E+00  0.45593999997E+02  0.45594000000E+02  0.51100000000E-03 0.  1.
         11   -1    0    0    0    0 -0.00000000000E+00 -0.00000000000E+00 -0.45593999997E+02  0.45594000000E+02  0.51100000000E-03 0. -1.
    9900012    2    1    2    0    0 -0.33816001476E+02  0.11233821611E+02 -0.19581752501E+02  0.50528859148E+02  0.29999997866E+02 0.  0.
         12    1    1    2    0    0  0.33816001476E+02 -0.11233821611E+02  0.19581752501E+02  0.40659140852E+02  0.00000000000E+00 0. -1.
         11    1    3    3    0    0 -0.11732256541E+02 -0.61709859280E+01 -0.11432076975E+02  0.17504836334E+02  0.51100000000E-03 0. -1.
        -11    1    3    3    0    0  0.64165884769E+00  0.69617175017E+01 -0.16542445930E+01  0.71842718549E+01  0.51100000000E-03 0.  1.
        -12    1    3    3    0    0 -0.22725403782E+02  0.10443090038E+02 -0.64954309333E+01  0.25839750959E+02  0.00000000000E+00 0.  1.
</event>
<event>
 7    1  0.2680581E-011  0.5052886E+02  0.7816164E-02  0.1300439E+00
        -11   -1    0    0    0    0  0.00000000000E+00  0.00000000000E+00  0.45593999997E+02  0.45594000000E+02  0.51100000000E-03 0.  1.
         11   -1    0    0    0    0 -0.00000000000E+00 -0.00000000000E+00 -0.45593999997E+02  0.45594000000E+02  0.51100000000E-03 0. -1.
    9900012    2    1    2    0    0 -0.12568586090E+02 -0.81400312782E+01  0.37801275395E+02  0.50528857277E+02  0.29999992179E+02 0.  0.
         12    1    1    2    0    0  0.12568586090E+02  0.81400312782E+01 -0.37801275395E+02  0.40659142723E+02  0.00000000000E+00 0. -1.
         11    1    3    3    0    0 -0.51767841086E+01  0.36783533750E+01  0.22907395890E+02  0.23771372782E+02  0.51100000000E-03 0.  1.
        -11    1    3    3    0    0 -0.91277471163E+01 -0.59780008237E+01  0.17094032036E+02  0.20279501788E+02  0.51100000000E-03 0. -1.
        -12    1    3    3    0    0  0.17359451346E+01 -0.58403838295E+01 -0.22001525308E+01  0.64779827064E+01  0.00000000000E+00 0.  1.
</event>
<event>
 7    1  0.2680581E-011  0.5052886E+02  0.7816164E-02  0.1300439E+00
        -11   -1    0    0    0    0  0.00000000000E+00  0.00000000000E+00  0.45593999997E+02  0.45594000000E+02  0.51100000000E-03 0.  1.
         11   -1    0    0    0    0 -0.00000000000E+00 -0.00000000000E+00 -0.45593999997E+02  0.45594000000E+02  0.51100000000E-03 0. -1.
    9900012    2    1    2    0    0 -0.23823491573E+01 -0.38117886734E+02  0.13946939462E+02  0.50528855925E+02  0.29999988070E+02 0.  0.
         12    1    1    2    0    0  0.23823491573E+01  0.38117886734E+02 -0.13946939462E+02  0.40659144075E+02  0.00000000000E+00 0. -1.
         11    1    3    3    0    0  0.62603653310E+01 -0.11101514674E+02 -0.30102361661E+01  0.13095698690E+02  0.51100000000E-03 0. -1.
        -11    1    3    3    0    0  0.74356872151E+00  0.22210708600E+01  0.27097303584E+01  0.35817159414E+01  0.51100000000E-03 0.  1.
        -12    1    3    3    0    0 -0.93862832098E+01 -0.29237442920E+02  0.14247445269E+02  0.33851441294E+02  0.00000000000E+00 0.  1.
</event>
<event>
 7    1  0.2680581E-011  0.5052885E+02  0.7816164E-02  0.1300439E+00
        -11   -1    0    0    0    0  0.00000000000E+00  0.00000000000E+00  0.45593999997E+02  0.45594000000E+02  0.51100000000E-03 0. -1.
         11   -1    0    0    0    0 -0.00000000000E+00 -0.00000000000E+00 -0.45593999997E+02  0.45594000000E+02  0.51100000000E-03 0.  1.
    9900012    2    1    2    0    0 -0.23921567854E+02  0.11289666009E+02 -0.30878280118E+02  0.50528854039E+02  0.29999982338E+02 0.  0.
         12    1    1    2    0    0  0.23921567854E+02 -0.11289666009E+02  0.30878280118E+02  0.40659145961E+02  0.00000000000E+00 0. -1.
         11    1    3    3    0    0 -0.20855804844E+02  0.96363002930E+01 -0.88229219794E+01  0.24610299298E+02  0.51100000000E-03 0. -1.
        -11    1    3    3    0    0  0.63291658271E-01  0.71340763386E+00  0.17495569273E+01  0.18904777145E+01  0.51100000000E-03 0.  1.
        -12    1    3    3    0    0 -0.31290546686E+01  0.93995808259E+00 -0.23804915066E+02  0.24028077027E+02  0.00000000000E+00 0.  1.
</event>
<event>
 7    1  0.2680581E-011  0.5052885E+02  0.7816164E-02  0.1300439E+00
        -11   -1    0    0    0    0  0.00000000000E+00  0.00000000000E+00  0.45593999997E+02  0.45594000000E+02  0.51100000000E-03 0.  1.
         11   -1    0    0    0    0 -0.00000000000E+00 -0.00000000000E+00 -0.45593999997E+02  0.45594000000E+02  0.51100000000E-03 0. -1.
    9900012    2    1    2    0    0  0.34394105358E+02  0.19141749405E+02  0.10188498640E+02  0.50528849022E+02  0.29999967088E+02 0.  0.
         12    1    1    2    0    0 -0.34394105358E+02 -0.19141749405E+02 -0.10188498640E+02  0.40659150978E+02  0.00000000000E+00 0. -1.
         11    1    3    3    0    0  0.30875211076E+02  0.21634343842E+02  0.74544989615E+01  0.38430366216E+02  0.51100000000E-03 0. -1.
        -11    1    3    3    0    0  0.27520637728E+01  0.89495123816E-01  0.67345187630E+01  0.72756860582E+01  0.51100000000E-03 0.  1.
        -12    1    3    3    0    0  0.76683050932E+00 -0.25820895603E+01 -0.40005190848E+01  0.48227967483E+01  0.00000000000E+00 0.  1.
</event>
<event>
 7    1  0.2680581E-011  0.5052885E+02  0.7816164E-02  0.1300439E+00
        -11   -1    0    0    0    0  0.00000000000E+00  0.00000000000E+00  0.45593999997E+02  0.45594000000E+02  0.51100000000E-03 0.  1.
         11   -1    0    0    0    0 -0.00000000000E+00 -0.00000000000E+00 -0.45593999997E+02  0.45594000000E+02  0.51100000000E-03 0. -1.
    9900012    2    1    2    0    0  0.99328900481E+01  0.31407942583E+02  0.23833696634E+02  0.50528852724E+02  0.29999978338E+02 0.  0.
         12    1    1    2    0    0 -0.99328900481E+01 -0.31407942583E+02 -0.23833696634E+02  0.40659147276E+02  0.00000000000E+00 0. -1.
         11    1    3    3    0    0  0.15001164928E+02  0.17572193300E+02  0.11822548249E+02  0.25953604257E+02  0.51100000000E-03 0. -1.
        -11    1    3    3    0    0  0.50397060334E+01  0.35450092275E+01  0.69509423275E+01  0.92887742371E+01  0.51100000000E-03 0.  1.
         12    1    3    3    0    0 -0.10107980913E+02  0.10290740055E+02  0.50602060575E+01  0.15286474229E+02  0.00000000000E+00 0. -1.
</event>
<event>
 7    1  0.2680581E-011  0.5052885E+02  0.7816164E-02  0.1300439E+00
        -11   -1    0    0    0    0  0.00000000000E+00  0.00000000000E+00  0.45593999997E+02  0.45594000000E+02  0.51100000000E-03 0.  1.
         11   -1    0    0    0    0 -0.00000000000E+00 -0.00000000000E+00 -0.45593999997E+02  0.45594000000E+02  0.51100000000E-03 0. -1.
    9900012    2    1    2    0    0  0.19513894852E+02  0.13602559402E+01  0.35644415091E+02  0.50528847086E+02  0.29999961201E+02 0.  0.
         12    1    1    2    0    0 -0.19513894852E+02 -0.13602559402E+01 -0.35644415091E+02  0.40659152914E+02  0.00000000000E+00 0. -1.
         11    1    3    3    0    0 -0.20266335688E+01  0.22708993824E+01  0.47229707568E+01  0.56187792854E+01  0.51100000000E-03 0. -1.
        -11    1    3    3    0    0  0.15742687013E+02 -0.12106142014E+02  0.17155799393E+02  0.26243329094E+02  0.51100000000E-03 0.  1.
         12    1    3    3    0    0  0.57978414078E+01  0.11195498572E+02  0.13765644942E+02  0.18666738706E+02  0.00000000000E+00 0. -1.
</event>
<event>
 7    1  0.2680581E-011  0.5052886E+02  0.7816164E-02  0.1300439E+00
        -11   -1    0    0    0    0  0.00000000000E+00  0.00000000000E+00  0.45593999997E+02  0.45594000000E+02  0.51100000000E-03 0.  1.
         11   -1    0    0    0    0 -0.00000000000E+00 -0.00000000000E+00 -0.45593999997E+02  0.45594000000E+02  0.51100000000E-03 0. -1.
    9900012    2    1    2    0    0  0.29692523740E+02 -0.10752666660E+02  0.25610537715E+02  0.50528862670E+02  0.30000008572E+02 0.  0.
         12    1    1    2    0    0 -0.29692523740E+02  0.10752666660E+02 -0.25610537715E+02  0.40659137330E+02  0.00000000000E+00 0. -1.
         11    1    3    3    0    0  0.68232157771E+00  0.26810287157E+01  0.52156406663E+01  0.59039296685E+01  0.51100000000E-03 0. -1.
        -11    1    3    3    0    0  0.11077066249E+02  0.60097301339E+01  0.10432689746E+02  0.16360295491E+02  0.51100000000E-03 0.  1.
         12    1    3    3    0    0  0.17933135914E+02 -0.19443425510E+02  0.99622073021E+01  0.28264637510E+02  0.00000000000E+00 0. -1.
</event>
<event>
 7    1  0.2680581E-011  0.5052886E+02  0.7816164E-02  0.1300439E+00
        -11   -1    0    0    0    0  0.00000000000E+00  0.00000000000E+00  0.45593999997E+02  0.45594000000E+02  0.51100000000E-03 0.  1.
         11   -1    0    0    0    0 -0.00000000000E+00 -0.00000000000E+00 -0.45593999997E+02  0.45594000000E+02  0.51100000000E-03 0. -1.
    9900012    2    1    2    0    0 -0.34678275794E+02 -0.20997197986E+02 -0.31145450655E+01  0.50528861713E+02  0.30000005663E+02 0.  0.
         12    1    1    2    0    0  0.34678275794E+02  0.20997197986E+02  0.31145450655E+01  0.40659138287E+02  0.00000000000E+00 0. -1.
         11    1    3    3    0    0 -0.21494773343E+02 -0.23718811227E+02 -0.11363057907E+02  0.33966547842E+02  0.51100000000E-03 0. -1.
        -11    1    3    3    0    0 -0.48032387064E+01 -0.75432514392E+00  0.10337846243E+01  0.49707966569E+01  0.51100000000E-03 0.  1.
         12    1    3    3    0    0 -0.83802637444E+01  0.34759383851E+01  0.72147282168E+01  0.11591517214E+02  0.00000000000E+00 0. -1.
</event>
<event>
 7    1  0.2680581E-011  0.5052886E+02  0.7816164E-02  0.1300439E+00
        -11   -1    0    0    0    0  0.00000000000E+00  0.00000000000E+00  0.45593999997E+02  0.45594000000E+02  0.51100000000E-03 0. -1.
         11   -1    0    0    0    0 -0.00000000000E+00 -0.00000000000E+00 -0.45593999997E+02  0.45594000000E+02  0.51100000000E-03 0.  1.
    9900012    2    1    2    0    0 -0.72057981114E+01 -0.27404691516E+02 -0.29158621450E+02  0.50528857752E+02  0.29999993622E+02 0.  0.
         12    1    1    2    0    0  0.72057981114E+01  0.27404691516E+02  0.29158621450E+02  0.40659142248E+02  0.00000000000E+00 0. -1.
         11    1    3    3    0    0 -0.98036278358E+01 -0.12528051462E+02  0.91706091897E+00  0.15934371439E+02  0.51100000000E-03 0. -1.
        -11    1    3    3    0    0  0.39286324683E+01 -0.26015176899E+01 -0.93370036917E+01  0.10458569958E+02  0.51100000000E-03 0.  1.
        -12    1    3    3    0    0 -0.13308027439E+01 -0.12275122364E+02 -0.20738678677E+02  0.24135916354E+02  0.00000000000E+00 0.  1.
</event>
<event>
 7    1  0.2680581E-011  0.5052881E+02  0.7816164E-02  0.1300439E+00
        -11   -1    0    0    0    0  0.00000000000E+00  0.00000000000E+00  0.45593999997E+02  0.45594000000E+02  0.51100000000E-03 0.  1.
         11   -1    0    0    0    0 -0.00000000000E+00 -0.00000000000E+00 -0.45593999997E+02  0.45594000000E+02  0.51100000000E-03 0. -1.
    9900012    2    1    2    0    0  0.14226269236E+02  0.20674524429E+02  0.31989790109E+02  0.50528814470E+02  0.29999862064E+02 0.  0.
         12    1    1    2    0    0 -0.14226269236E+02 -0.20674524429E+02 -0.31989790109E+02  0.40659185530E+02  0.00000000000E+00 0. -1.
         11    1    3    3    0    0  0.48099837590E+01 -0.14665100533E+01 -0.23841675196E+01  0.55651460467E+01  0.51100000000E-03 0. -1.
        -11    1    3    3    0    0  0.63937709839E+01  0.11377603013E+02  0.58025387452E+01  0.14282843340E+02  0.51100000000E-03 0.  1.
         12    1    3    3    0    0  0.30225144934E+01  0.10763431469E+02  0.28571418883E+02  0.30680825084E+02  0.00000000000E+00 0. -1.
</event>
<event>
 7    1  0.2680581E-011  0.5052888E+02  0.7816164E-02  0.1300439E+00
        -11   -1    0    0    0    0  0.00000000000E+00  0.00000000000E+00  0.45593999997E+02  0.45594000000E+02  0.51100000000E-03 0.  1.
         11   -1    0    0    0    0 -0.00000000000E+00 -0.00000000000E+00 -0.45593999997E+02  0.45594000000E+02  0.51100000000E-03 0. -1.
    9900012    2    1    2    0    0 -0.37412174345E+02  0.14136191402E+02  0.73254156601E+01  0.50528875426E+02  0.30000047344E+02 0.  0.
         12    1    1    2    0    0  0.37412174345E+02 -0.14136191402E+02 -0.73254156601E+01  0.40659124574E+02  0.00000000000E+00 0. -1.
         11    1    3    3    0    0 -0.74450995647E+01  0.10720078777E+02 -0.63778024247E+01  0.14526732618E+02  0.51100000000E-03 0. -1.
        -11    1    3    3    0    0 -0.14551012990E+02  0.17779767979E+01 -0.92352326508E+00  0.14688297247E+02  0.51100000000E-03 0.  1.
        -12    1    3    3    0    0 -0.15416061790E+02  0.16381358273E+01  0.14626741350E+02  0.21313845561E+02  0.00000000000E+00 0.  1.
</event>
<event>
 7    1  0.2680581E-011  0.5052886E+02  0.7816164E-02  0.1300439E+00
        -11   -1    0    0    0    0  0.00000000000E+00  0.00000000000E+00  0.45593999997E+02  0.45594000000E+02  0.51100000000E-03 0. -1.
         11   -1    0    0    0    0 -0.00000000000E+00 -0.00000000000E+00 -0.45593999997E+02  0.45594000000E+02  0.51100000000E-03 0.  1.
    9900012    2    1    2    0    0 -0.38235545396E+02 -0.11638882804E+02 -0.74662610885E+01  0.50528861060E+02  0.30000003679E+02 0.  0.
         12    1    1    2    0    0  0.38235545396E+02  0.11638882804E+02  0.74662610885E+01  0.40659138940E+02  0.00000000000E+00 0. -1.
         11    1    3    3    0    0 -0.22659126612E+01 -0.18171290521E+01 -0.27621871265E+01  0.40082410311E+01  0.51100000000E-03 0. -1.
        -11    1    3    3    0    0 -0.36010812085E+02 -0.14816643353E+02 -0.89610866306E+01  0.39957634830E+02  0.51100000000E-03 0.  1.
         12    1    3    3    0    0  0.41179350242E-01  0.49948896013E+01  0.42570126687E+01  0.65629851995E+01  0.00000000000E+00 0. -1.
</event>
<event>
 7    1  0.2680581E-011  0.5052887E+02  0.7816164E-02  0.1300439E+00
        -11   -1    0    0    0    0  0.00000000000E+00  0.00000000000E+00  0.45593999997E+02  0.45594000000E+02  0.51100000000E-03 0.  1.
         11   -1    0    0    0    0 -0.00000000000E+00 -0.00000000000E+00 -0.45593999997E+02  0.45594000000E+02  0.51100000000E-03 0. -1.
    9900012    2    1    2    0    0  0.28740241423E+01  0.84811458822E+01  0.39660750641E+02  0.50528868287E+02  0.30000025647E+02 0.  0.
         12    1    1    2    0    0 -0.28740241423E+01 -0.84811458822E+01 -0.39660750641E+02  0.40659131713E+02  0.00000000000E+00 0. -1.
         11    1    3    3    0    0  0.65276382760E+00 -0.74062368633E+01  0.24551553016E+01  0.78298296856E+01  0.51100000000E-03 0. -1.
        -11    1    3    3    0    0  0.40558467784E+01  0.29821527056E+00  0.14755737971E+02  0.15305901763E+02  0.51100000000E-03 0.  1.
        -12    1    3    3    0    0 -0.18345864637E+01  0.15589167475E+02  0.22449857368E+02  0.27393136839E+02  0.00000000000E+00 0.  1.
</event>
<event>
 7    1  0.2680581E-011  0.5052886E+02  0.7816164E-02  0.1300439E+00
        -11   -1    0    0    0    0  0.00000000000E+00  0.00000000000E+00  0.45593999997E+02  0.45594000000E+02  0.51100000000E-03 0. -1.
         11   -1    0    0    0    0 -0.00000000000E+00 -0.00000000000E+00 -0.45593999997E+02  0.45594000000E+02  0.51100000000E-03 0.  1.
    9900012    2    1    2    0    0  0.29569697789E+02 -0.23301018774E+02 -0.15357761804E+02  0.50528863870E+02  0.30000012219E+02 0.  0.
         12    1    1    2    0    0 -0.29569697789E+02  0.23301018774E+02  0.15357761804E+02  0.40659136130E+02  0.00000000000E+00 0. -1.
         11    1    3    3    0    0  0.27288851490E+00 -0.45062807170E+00 -0.64561990223E+01  0.64776569744E+01  0.51100000000E-03 0. -1.
        -11    1    3    3    0    0  0.60194836687E+01 -0.70468630410E+01  0.71082933117E+01  0.11679909949E+02  0.51100000000E-03 0.  1.
        -12    1    3    3    0    0  0.23277325605E+02 -0.15803527662E+02 -0.16009856093E+02  0.32371296946E+02  0.00000000000E+00 0.  1.
</event>
<event>
 7    1  0.2680581E-011  0.5052886E+02  0.7816164E-02  0.1300439E+00
        -11   -1    0    0    0    0  0.00000000000E+00  0.00000000000E+00  0.45593999997E+02  0.45594000000E+02  0.51100000000E-03 0.  1.
         11   -1    0    0    0    0 -0.00000000000E+00 -0.00000000000E+00 -0.45593999997E+02  0.45594000000E+02  0.51100000000E-03 0. -1.
    9900012    2    1    2    0    0 -0.20561789755E+02  0.32096710445E+02 -0.14148483417E+02  0.50528860777E+02  0.30000002819E+02 0.  0.
         12    1    1    2    0    0  0.20561789755E+02 -0.32096710445E+02  0.14148483417E+02  0.40659139223E+02  0.00000000000E+00 0. -1.
         11    1    3    3    0    0 -0.13527019611E+02  0.27338764291E+02 -0.20758779533E+02  0.36896005481E+02  0.51100000000E-03 0.  1.
        -11    1    3    3    0    0 -0.65002743496E+01  0.70241180081E+01  0.49628951366E+01  0.10780636753E+02  0.51100000000E-03 0. -1.
        -12    1    3    3    0    0 -0.53449579478E+00 -0.22661718542E+01  0.16474009796E+01  0.28522185427E+01  0.00000000000E+00 0.  1.
</event>
<event>
 7    1  0.2680581E-011  0.5052887E+02  0.7816164E-02  0.1300439E+00
        -11   -1    0    0    0    0  0.00000000000E+00  0.00000000000E+00  0.45593999997E+02  0.45594000000E+02  0.51100000000E-03 0.  1.
         11   -1    0    0    0    0 -0.00000000000E+00 -0.00000000000E+00 -0.45593999997E+02  0.45594000000E+02  0.51100000000E-03 0. -1.
    9900012    2    1    2    0    0 -0.59111237677E+01  0.39381830701E+02  0.82033267041E+01  0.50528873810E+02  0.30000042432E+02 0.  0.
         12    1    1    2    0    0  0.59111237677E+01 -0.39381830701E+02 -0.82033267041E+01  0.40659126190E+02  0.00000000000E+00 0. -1.
         11    1    3    3    0    0 -0.28637228064E+01  0.15752438204E+02 -0.46062191722E+01  0.16660056213E+02  0.51100000000E-03 0. -1.
        -11    1    3    3    0    0 -0.15498741900E+01 -0.25515712415E+01 -0.21492473477E+01  0.36785717647E+01  0.51100000000E-03 0.  1.
        -12    1    3    3    0    0 -0.14975267713E+01  0.26180963738E+02  0.14958793224E+02  0.30190245832E+02  0.00000000000E+00 0.  1.
</event>
<event>
 7    1  0.2680581E-011  0.5052885E+02  0.7816164E-02  0.1300439E+00
        -11   -1    0    0    0    0  0.00000000000E+00  0.00000000000E+00  0.45593999997E+02  0.45594000000E+02  0.51100000000E-03 0.  1.
         11   -1    0    0    0    0 -0.00000000000E+00 -0.00000000000E+00 -0.45593999997E+02  0.45594000000E+02  0.51100000000E-03 0. -1.
    9900012    2    1    2    0    0  0.92709193155E+01  0.10515898606E+01  0.39574111330E+02  0.50528854981E+02  0.29999985199E+02 0.  0.
         12    1    1    2    0    0 -0.92709193155E+01 -0.10515898606E+01 -0.39574111330E+02  0.40659145019E+02  0.00000000000E+00 0. -1.
         11    1    3    3    0    0  0.14193910139E+02  0.48800454269E+01  0.31915181078E+02  0.35268409546E+02  0.51100000000E-03 0. -1.
        -11    1    3    3    0    0  0.36332707290E+01 -0.48313072907E+00  0.69074393238E+00  0.37297719679E+01  0.51100000000E-03 0.  1.
         12    1    3    3    0    0 -0.85562615523E+01 -0.33453248373E+01  0.69681863190E+01  0.11530673467E+02  0.00000000000E+00 0. -1.
</event>
<event>
 7    1  0.2680581E-011  0.5052886E+02  0.7816164E-02  0.1300439E+00
        -11   -1    0    0    0    0  0.00000000000E+00  0.00000000000E+00  0.45593999997E+02  0.45594000000E+02  0.51100000000E-03 0. -1.
         11   -1    0    0    0    0 -0.00000000000E+00 -0.00000000000E+00 -0.45593999997E+02  0.45594000000E+02  0.51100000000E-03 0.  1.
    9900012    2    1    2    0    0  0.18710897563E+02  0.35018355712E+02  0.87625650700E+01  0.50528862392E+02  0.30000007727E+02 0.  0.
         12    1    1    2    0    0 -0.18710897563E+02 -0.35018355712E+02 -0.87625650700E+01  0.40659137608E+02  0.00000000000E+00 0. -1.
         11    1    3    3    0    0  0.13936810994E+01  0.45105867775E+01 -0.48036430247E+01  0.67351857179E+01  0.51100000000E-03 0. -1.
        -11    1    3    3    0    0  0.45661401794E+01  0.27874402586E+02  0.65179917571E+01  0.28988207473E+02  0.51100000000E-03 0.  1.
         12    1    3    3    0    0  0.12751076284E+02  0.26333663489E+01  0.70482163376E+01  0.14805469202E+02  0.00000000000E+00 0. -1.
</event>
<event>
 7    1  0.2745156E-011  0.5052884E+02  0.7816164E-02  0.1300439E+00
        -11   -1    0    0    0    0  0.00000000000E+00  0.00000000000E+00  0.45593999997E+02  0.45594000000E+02  0.51100000000E-03 0.  1.
         11   -1    0    0    0    0 -0.00000000000E+00 -0.00000000000E+00 -0.45593999997E+02  0.45594000000E+02  0.51100000000E-03 0. -1.
    9900012    2    1    2    0    0  0.36053295761E+02 -0.17708772350E+02 -0.63029188769E+01  0.50528836952E+02  0.29999930400E+02 0.  0.
         12    1    1    2    0    0 -0.36053295761E+02  0.17708772350E+02  0.63029188769E+01  0.40659163048E+02  0.00000000000E+00 0. -1.
         11    1    3    3    0    0  0.28561288253E+01  0.47799634783E+01  0.78965237129E+00  0.56239731373E+01  0.51100000000E-03 0. -1.
        -11    1    3    3    0    0  0.19751714118E+02 -0.22537720953E+01 -0.51292834594E+01  0.20530933937E+02  0.51100000000E-03 0.  1.
         12    1    3    3    0    0  0.13445452818E+02 -0.20234963734E+02 -0.19632877887E+01  0.24373929878E+02  0.00000000000E+00 0. -1.
</event>
<event>
 7    1  0.2680581E-011  0.5052884E+02  0.7816164E-02  0.1300439E+00
        -11   -1    0    0    0    0  0.00000000000E+00  0.00000000000E+00  0.45593999997E+02  0.45594000000E+02  0.51100000000E-03 0.  1.
         11   -1    0    0    0    0 -0.00000000000E+00 -0.00000000000E+00 -0.45593999997E+02  0.45594000000E+02  0.51100000000E-03 0. -1.
    9900012    2    1    2    0    0 -0.17400648392E+02 -0.28137219312E+02  0.23636440628E+02  0.50528843582E+02  0.29999950552E+02 0.  0.
         12    1    1    2    0    0  0.17400648392E+02  0.28137219312E+02 -0.23636440628E+02  0.40659156418E+02  0.00000000000E+00 0. -1.
         11    1    3    3    0    0 -0.10169966303E+02  0.15331180022E+01  0.67884085850E+01  0.12323195884E+02  0.51100000000E-03 0. -1.
        -11    1    3    3    0    0 -0.13561398427E+01 -0.67929217751E+01 -0.28105481030E+01  0.74754319217E+01  0.51100000000E-03 0.  1.
        -12    1    3    3    0    0 -0.58745422461E+01 -0.22877415539E+02  0.19658580146E+02  0.30730215777E+02  0.00000000000E+00 0.  1.
</event>
<event>
 7    1  0.2680581E-011  0.5052886E+02  0.7816164E-02  0.1300439E+00
        -11   -1    0    0    0    0  0.00000000000E+00  0.00000000000E+00  0.45593999997E+02  0.45594000000E+02  0.51100000000E-03 0.  1.
         11   -1    0    0    0    0 -0.00000000000E+00 -0.00000000000E+00 -0.45593999997E+02  0.45594000000E+02  0.51100000000E-03 0. -1.
    9900012    2    1    2    0    0  0.12829734457E+02  0.36362197233E+02 -0.12897823376E+02  0.50528864228E+02  0.30000013308E+02 0.  0.
         12    1    1    2    0    0 -0.12829734457E+02 -0.36362197233E+02  0.12897823376E+02  0.40659135772E+02  0.00000000000E+00 0. -1.
         11    1    3    3    0    0  0.34516321908E+01  0.83036570442E+01 -0.12646367657E+02  0.15517573917E+02  0.51100000000E-03 0. -1.
        -11    1    3    3    0    0  0.38567569877E+01  0.27533933166E+02 -0.43152376748E+01  0.28135623798E+02  0.51100000000E-03 0.  1.
         12    1    3    3    0    0  0.55213452787E+01  0.52460702236E+00  0.40637819555E+01  0.68756665129E+01  0.00000000000E+00 0. -1.
</event>
<event>
 7    1  0.2680581E-011  0.5052886E+02  0.7816164E-02  0.1300439E+00
        -11   -1    0    0    0    0  0.00000000000E+00  0.00000000000E+00  0.45593999997E+02  0.45594000000E+02  0.51100000000E-03 0. -1.
         11   -1    0    0    0    0 -0.00000000000E+00 -0.00000000000E+00 -0.45593999997E+02  0.45594000000E+02  0.51100000000E-03 0.  1.
    9900012    2    1    2    0    0  0.19988956781E+02 -0.28310365226E+02 -0.21263360683E+02  0.50528859822E+02  0.29999999916E+02 0.  0.
         12    1    1    2    0    0 -0.19988956781E+02  0.28310365226E+02  0.21263360683E+02  0.40659140178E+02  0.00000000000E+00 0. -1.
         11    1    3    3    0    0  0.91000408738E+01 -0.21941631341E+01  0.24505597186E+01  0.96762771230E+01  0.51100000000E-03 0. -1.
        -11    1    3    3    0    0 -0.46274093011E+01 -0.44930277364E+01 -0.64975759286E+01  0.91552557741E+01  0.51100000000E-03 0.  1.
        -12    1    3    3    0    0  0.15516325209E+02 -0.21623174356E+02 -0.17216344473E+02  0.31697326925E+02  0.00000000000E+00 0.  1.
</event>
<event>
 7    1  0.2680581E-011  0.5052886E+02  0.7816164E-02  0.1300439E+00
        -11   -1    0    0    0    0  0.00000000000E+00  0.00000000000E+00  0.45593999997E+02  0.45594000000E+02  0.51100000000E-03 0.  1.
         11   -1    0    0    0    0 -0.00000000000E+00 -0.00000000000E+00 -0.45593999997E+02  0.45594000000E+02  0.51100000000E-03 0. -1.
    9900012    2    1    2    0    0  0.19556742958E+02 -0.35270905346E+02  0.51636051319E+01  0.50528858629E+02  0.29999996288E+02 0.  0.
         12    1    1    2    0    0 -0.19556742958E+02  0.35270905346E+02 -0.51636051319E+01  0.40659141371E+02  0.00000000000E+00 0. -1.
         11    1    3    3    0    0  0.90422213487E+01 -0.16524797288E+02 -0.73317151930E+01  0.20213479173E+02  0.51100000000E-03 0. -1.
        -11    1    3    3    0    0  0.13598036754E+02 -0.10154203858E+02  0.31674989679E+01  0.17264052523E+02  0.51100000000E-03 0.  1.
        -12    1    3    3    0    0 -0.30835151450E+01 -0.85919042006E+01  0.93278213570E+01  0.13051326933E+02  0.00000000000E+00 0.  1.
</event>
<event>
 7    1  0.2680581E-011  0.5052885E+02  0.7816164E-02  0.1300439E+00
        -11   -1    0    0    0    0  0.00000000000E+00  0.00000000000E+00  0.45593999997E+02  0.45594000000E+02  0.51100000000E-03 0.  1.
         11   -1    0    0    0    0 -0.00000000000E+00 -0.00000000000E+00 -0.45593999997E+02  0.45594000000E+02  0.51100000000E-03 0. -1.
    9900012    2    1    2    0    0 -0.39760216810E+01 -0.22489733433E+02  0.33638806752E+02  0.50528853698E+02  0.29999981300E+02 0.  0.
         12    1    1    2    0    0  0.39760216810E+01  0.22489733433E+02 -0.33638806752E+02  0.40659146302E+02  0.00000000000E+00 0. -1.
         11    1    3    3    0    0 -0.25521816174E+00 -0.10309622334E+02  0.32571871384E+02  0.34165483382E+02  0.51100000000E-03 0. -1.
        -11    1    3    3    0    0 -0.40313647397E+01 -0.52855328306E+01  0.50922016318E+01  0.83737253769E+01  0.51100000000E-03 0.  1.
         12    1    3    3    0    0  0.31056122044E+00 -0.68945782679E+01 -0.40252662635E+01  0.79896449393E+01  0.00000000000E+00 0. -1.
</event>
<event>
 7    1  0.2680581E-011  0.5052886E+02  0.7816164E-02  0.1300439E+00
        -11   -1    0    0    0    0  0.00000000000E+00  0.00000000000E+00  0.45593999997E+02  0.45594000000E+02  0.51100000000E-03 0.  1.
         11   -1    0    0    0    0 -0.00000000000E+00 -0.00000000000E+00 -0.45593999997E+02  0.45594000000E+02  0.51100000000E-03 0. -1.
    9900012    2    1    2    0    0  0.37978085608E+02  0.14428519918E+02  0.16275285714E+01  0.50528855607E+02  0.29999987105E+02 0.  0.
         12    1    1    2    0    0 -0.37978085608E+02 -0.14428519918E+02 -0.16275285714E+01  0.40659144393E+02  0.00000000000E+00 0. -1.
         11    1    3    3    0    0  0.94030526125E+01  0.12223888150E+02  0.10756312525E+01  0.15459554418E+02  0.51100000000E-03 0. -1.
        -11    1    3    3    0    0  0.22243085925E+02  0.55553601823E+01  0.84244414173E+01  0.24425153258E+02  0.51100000000E-03 0.  1.
         12    1    3    3    0    0  0.63319470706E+01 -0.33507284145E+01 -0.78725440985E+01  0.10644147932E+02  0.00000000000E+00 0. -1.
</event>
<event>
 7    1  0.2680581E-011  0.5052886E+02  0.7816164E-02  0.1300439E+00
        -11   -1    0    0    0    0  0.00000000000E+00  0.00000000000E+00  0.45593999997E+02  0.45594000000E+02  0.51100000000E-03 0.  1.
         11   -1    0    0    0    0 -0.00000000000E+00 -0.00000000000E+00 -0.45593999997E+02  0.45594000000E+02  0.51100000000E-03 0. -1.
    9900012    2    1    2    0    0 -0.16807882882E+02 -0.15364946668E+02  0.33683519424E+02  0.50528855962E+02  0.29999988183E+02 0.  0.
         12    1    1    2    0    0  0.16807882882E+02  0.15364946668E+02 -0.33683519424E+02  0.40659144038E+02  0.00000000000E+00 0. -1.
         11    1    3    3    0    0 -0.35399687724E+00  0.66947074753E+01  0.14881070587E+02  0.16321479223E+02  0.51100000000E-03 0. -1.
        -11    1    3    3    0    0  0.25028154143E-01 -0.43034269949E+01  0.21466366189E+01  0.48091744971E+01  0.51100000000E-03 0.  1.
        -12    1    3    3    0    0 -0.16478914159E+02 -0.17756227149E+02  0.16655812218E+02  0.29398202242E+02  0.00000000000E+00 0.  1.
</event>
<event>
 7    1  0.2680581E-011  0.5052885E+02  0.7816164E-02  0.1300439E+00
        -11   -1    0    0    0    0  0.00000000000E+00  0.00000000000E+00  0.45593999997E+02  0.45594000000E+02  0.51100000000E-03 0. -1.
         11   -1    0    0    0    0 -0.00000000000E+00 -0.00000000000E+00 -0.45593999997E+02  0.45594000000E+02  0.51100000000E-03 0.  1.
    9900012    2    1    2    0    0 -0.18723269260E+02  0.34452848362E+02 -0.10752079709E+02  0.50528846171E+02  0.29999958420E+02 0.  0.
         12    1    1    2    0    0  0.18723269260E+02 -0.34452848362E+02  0.10752079709E+02  0.40659153829E+02  0.00000000000E+00 0. -1.
         11    1    3    3    0    0  0.87827775728E+00  0.10206588925E+02  0.28285217358E+01  0.10627622725E+02  0.51100000000E-03 0. -1.
        -11    1    3    3    0    0 -0.15041534192E+02  0.20293878588E+02 -0.24254519678E+00  0.25261593129E+02  0.51100000000E-03 0.  1.
        -12    1    3    3    0    0 -0.45600128252E+01  0.39523808492E+01 -0.13338056248E+02  0.14639630317E+02  0.00000000000E+00 0.  1.
</event>
<event>
 7    1  0.2680581E-011  0.5052886E+02  0.7816164E-02  0.1300439E+00
        -11   -1    0    0    0    0  0.00000000000E+00  0.00000000000E+00  0.45593999997E+02  0.45594000000E+02  0.51100000000E-03 0.  1.
         11   -1    0    0    0    0 -0.00000000000E+00 -0.00000000000E+00 -0.45593999997E+02  0.45594000000E+02  0.51100000000E-03 0. -1.
    9900012    2    1    2    0    0 -0.34409753022E+02 -0.19346665618E+02  0.97386580053E+01  0.50528855477E+02  0.29999986709E+02 0.  0.
         12    1    1    2    0    0  0.34409753022E+02  0.19346665618E+02 -0.97386580053E+01  0.40659144523E+02  0.00000000000E+00 0. -1.
         11    1    3    3    0    0  0.44496547268E+01  0.64122871733E+00  0.51843449983E+00  0.45254144614E+01  0.51100000000E-03 0. -1.
        -11    1    3    3    0    0 -0.60235848771E+01 -0.54088193890E+01  0.57074342189E+01  0.99052363716E+01  0.51100000000E-03 0.  1.
         12    1    3    3    0    0 -0.32835822872E+02 -0.14579074946E+02  0.35127892866E+01  0.36098204644E+02  0.00000000000E+00 0. -1.
</event>
<event>
 7    1  0.2680581E-011  0.5052885E+02  0.7816164E-02  0.1300439E+00
        -11   -1    0    0    0    0  0.00000000000E+00  0.00000000000E+00  0.45593999997E+02  0.45594000000E+02  0.51100000000E-03 0.  1.
         11   -1    0    0    0    0 -0.00000000000E+00 -0.00000000000E+00 -0.45593999997E+02  0.45594000000E+02  0.51100000000E-03 0. -1.
    9900012    2    1    2    0    0  0.37794740349E+02  0.12592118005E+02  0.81340429977E+01  0.50528849869E+02  0.29999969662E+02 0.  0.
         12    1    1    2    0    0 -0.37794740349E+02 -0.12592118005E+02 -0.81340429977E+01  0.40659150131E+02  0.00000000000E+00 0. -1.
         11    1    3    3    0    0  0.12886654588E+02  0.46836827503E+01  0.36377226684E+01  0.14185759657E+02  0.51100000000E-03 0.  1.
        -11    1    3    3    0    0 -0.33631946928E+01  0.69882257600E+01  0.44479024909E+00  0.77681539919E+01  0.51100000000E-03 0. -1.
         12    1    3    3    0    0  0.28271280453E+02  0.92020949430E+00  0.40515300802E+01  0.28574936220E+02  0.00000000000E+00 0. -1.
</event>
<event>
 7    1  0.2680581E-011  0.5052884E+02  0.7816164E-02  0.1300439E+00
        -11   -1    0    0    0    0  0.00000000000E+00  0.00000000000E+00  0.45593999997E+02  0.45594000000E+02  0.51100000000E-03 0. -1.
         11   -1    0    0    0    0 -0.00000000000E+00 -0.00000000000E+00 -0.45593999997E+02  0.45594000000E+02  0.51100000000E-03 0.  1.
    9900012    2    1    2    0    0  0.30671793482E+02  0.25153521438E+02 -0.89279975919E+01  0.50528835017E+02  0.29999924517E+02 0.  0.
         12    1    1    2    0    0 -0.30671793482E+02 -0.25153521438E+02  0.89279975919E+01  0.40659164983E+02  0.00000000000E+00 0. -1.
         11    1    3    3    0    0  0.46051211581E+01  0.42895972027E+01 -0.21468991998E+01  0.66495835567E+01  0.51100000000E-03 0. -1.
        -11    1    3    3    0    0  0.17605156226E+02  0.27081548936E+02 -0.80874015759E+01  0.33298016202E+02  0.51100000000E-03 0.  1.
         12    1    3    3    0    0  0.84615160972E+01 -0.62176247001E+01  0.13063031838E+01  0.10581235258E+02  0.00000000000E+00 0. -1.
</event>
<event>
 7    1  0.2680581E-011  0.5052886E+02  0.7816164E-02  0.1300439E+00
        -11   -1    0    0    0    0  0.00000000000E+00  0.00000000000E+00  0.45593999997E+02  0.45594000000E+02  0.51100000000E-03 0.  1.
         11   -1    0    0    0    0 -0.00000000000E+00 -0.00000000000E+00 -0.45593999997E+02  0.45594000000E+02  0.51100000000E-03 0. -1.
    9900012    2    1    2    0    0  0.37519170997E+02 -0.13062131838E+02  0.86520851689E+01  0.50528855171E+02  0.29999985778E+02 0.  0.
         12    1    1    2    0    0 -0.37519170997E+02  0.13062131838E+02 -0.86520851689E+01  0.40659144829E+02  0.00000000000E+00 0. -1.
         11    1    3    3    0    0 -0.18489760537E+01  0.88066345450E+00 -0.23306978516E+01  0.31026494007E+01  0.51100000000E-03 0. -1.
        -11    1    3    3    0    0  0.12390097997E+02  0.35678268699E+01  0.78878792235E+01  0.15114977865E+02  0.51100000000E-03 0.  1.
        -12    1    3    3    0    0  0.26978049054E+02 -0.17510622163E+02  0.30949037970E+01  0.32311227906E+02  0.00000000000E+00 0.  1.
</event>
<event>
 7    1  0.2680581E-011  0.5052886E+02  0.7816164E-02  0.1300439E+00
        -11   -1    0    0    0    0  0.00000000000E+00  0.00000000000E+00  0.45593999997E+02  0.45594000000E+02  0.51100000000E-03 0.  1.
         11   -1    0    0    0    0 -0.00000000000E+00 -0.00000000000E+00 -0.45593999997E+02  0.45594000000E+02  0.51100000000E-03 0. -1.
    9900012    2    1    2    0    0 -0.12676794448E+01 -0.60887074936E+01  0.40180672676E+02  0.50528858017E+02  0.29999994429E+02 0.  0.
         12    1    1    2    0    0  0.12676794448E+01  0.60887074936E+01 -0.40180672676E+02  0.40659141983E+02  0.00000000000E+00 0. -1.
         11    1    3    3    0    0  0.20545058881E+01 -0.59195087877E+01  0.19427640666E+01  0.65601761571E+01  0.51100000000E-03 0. -1.
        -11    1    3    3    0    0  0.14119663247E+01  0.51313085172E+01  0.25661789098E+00  0.53282106756E+01  0.51100000000E-03 0.  1.
        -12    1    3    3    0    0 -0.47341516576E+01 -0.53005072231E+01  0.37981290718E+02  0.38640471184E+02  0.00000000000E+00 0.  1.
</event>
<event>
 7    1  0.2680581E-011  0.5052885E+02  0.7816164E-02  0.1300439E+00
        -11   -1    0    0    0    0  0.00000000000E+00  0.00000000000E+00  0.45593999997E+02  0.45594000000E+02  0.51100000000E-03 0.  1.
         11   -1    0    0    0    0 -0.00000000000E+00 -0.00000000000E+00 -0.45593999997E+02  0.45594000000E+02  0.51100000000E-03 0. -1.
    9900012    2    1    2    0    0  0.13840774712E+02  0.12269093531E+02  0.36208678289E+02  0.50528854852E+02  0.29999984810E+02 0.  0.
         12    1    1    2    0    0 -0.13840774712E+02 -0.12269093531E+02 -0.36208678289E+02  0.40659145148E+02  0.00000000000E+00 0. -1.
         11    1    3    3    0    0 -0.33153140650E+01 -0.20118075733E+01  0.14855331562E+00  0.38808176213E+01  0.51100000000E-03 0. -1.
        -11    1    3    3    0    0  0.13093038378E+02 -0.15638142041E+01  0.14768736703E+02  0.19798705838E+02  0.51100000000E-03 0.  1.
        -12    1    3    3    0    0  0.40630503992E+01  0.15844715308E+02  0.21291388271E+02  0.26849331393E+02  0.00000000000E+00 0.  1.
</event>
<event>
 7    1  0.2680581E-011  0.5052885E+02  0.7816164E-02  0.1300439E+00
        -11   -1    0    0    0    0  0.00000000000E+00  0.00000000000E+00  0.45593999997E+02  0.45594000000E+02  0.51100000000E-03 0.  1.
         11   -1    0    0    0    0 -0.00000000000E+00 -0.00000000000E+00 -0.45593999997E+02  0.45594000000E+02  0.51100000000E-03 0. -1.
    9900012    2    1    2    0    0 -0.39281887942E+01  0.16583804839E+02  0.36914947077E+02  0.50528848904E+02  0.29999966728E+02 0.  0.
         12    1    1    2    0    0  0.39281887942E+01 -0.16583804839E+02 -0.36914947077E+02  0.40659151096E+02  0.00000000000E+00 0. -1.
         11    1    3    3    0    0 -0.52708547622E+01  0.17622190942E+02  0.13982376838E+02  0.23104769764E+02  0.51100000000E-03 0. -1.
        -11    1    3    3    0    0 -0.43268142008E+01  0.40035515670E+01  0.16347316425E+02  0.17377701253E+02  0.51100000000E-03 0.  1.
         12    1    3    3    0    0  0.56694801688E+01 -0.50419376704E+01  0.65852538139E+01  0.10046377887E+02  0.00000000000E+00 0. -1.
</event>
<event>
 7    1  0.2680581E-011  0.5052884E+02  0.7816164E-02  0.1300439E+00
        -11   -1    0    0    0    0  0.00000000000E+00  0.00000000000E+00  0.45593999997E+02  0.45594000000E+02  0.51100000000E-03 0.  1.
         11   -1    0    0    0    0 -0.00000000000E+00 -0.00000000000E+00 -0.45593999997E+02  0.45594000000E+02  0.51100000000E-03 0. -1.
    9900012    2    1    2    0    0 -0.33734621452E+02  0.13735659558E+02  0.18068608537E+02  0.50528835689E+02  0.29999926561E+02 0.  0.
         12    1    1    2    0    0  0.33734621452E+02 -0.13735659558E+02 -0.18068608537E+02  0.40659164311E+02  0.00000000000E+00 0. -1.
         11    1    3    3    0    0  0.38578441048E+01 -0.53945492150E+00 -0.30918958704E-01  0.38955011221E+01  0.51100000000E-03 0. -1.
        -11    1    3    3    0    0 -0.13784327043E+02 -0.22332203231E+01  0.68580708790E+01  0.15557251733E+02  0.51100000000E-03 0.  1.
        -12    1    3    3    0    0 -0.23808138514E+02  0.16508334803E+02  0.11241456617E+02  0.31076082834E+02  0.00000000000E+00 0.  1.
</event>
<event>
 7    1  0.2680581E-011  0.5052887E+02  0.7816164E-02  0.1300439E+00
        -11   -1    0    0    0    0  0.00000000000E+00  0.00000000000E+00  0.45593999997E+02  0.45594000000E+02  0.51100000000E-03 0. -1.
         11   -1    0    0    0    0 -0.00000000000E+00 -0.00000000000E+00 -0.45593999997E+02  0.45594000000E+02  0.51100000000E-03 0.  1.
    9900012    2    1    2    0    0  0.23040862320E+02 -0.28905421500E+02 -0.16933987062E+02  0.50528872533E+02  0.30000038551E+02 0.  0.
         12    1    1    2    0    0 -0.23040862320E+02  0.28905421500E+02  0.16933987062E+02  0.40659127467E+02  0.00000000000E+00 0. -1.
         11    1    3    3    0    0  0.26162477745E+01 -0.16252267298E+02 -0.18493303810E+02  0.24758498153E+02  0.51100000000E-03 0.  1.
        -11    1    3    3    0    0  0.13207781262E+01 -0.39442862564E+00  0.27121954638E+01  0.30423729709E+01  0.51100000000E-03 0. -1.
        -12    1    3    3    0    0  0.19103836419E+02 -0.12258725577E+02 -0.11528787165E+01  0.22728001409E+02  0.00000000000E+00 0.  1.
</event>
<event>
 7    1  0.2680581E-011  0.5052886E+02  0.7816164E-02  0.1300439E+00
        -11   -1    0    0    0    0  0.00000000000E+00  0.00000000000E+00  0.45593999997E+02  0.45594000000E+02  0.51100000000E-03 0.  1.
         11   -1    0    0    0    0 -0.00000000000E+00 -0.00000000000E+00 -0.45593999997E+02  0.45594000000E+02  0.51100000000E-03 0. -1.
    9900012    2    1    2    0    0  0.58163110664E+01  0.39517844758E+02 -0.75944732976E+01  0.50528861379E+02  0.30000004646E+02 0.  0.
         12    1    1    2    0    0 -0.58163110664E+01 -0.39517844758E+02  0.75944732976E+01  0.40659138621E+02  0.00000000000E+00 0. -1.
         11    1    3    3    0    0  0.69719379882E+01  0.60038422804E+01  0.48989905815E+01  0.10423730159E+02  0.51100000000E-03 0. -1.
        -11    1    3    3    0    0 -0.55943002439E+01  0.62303488591E+01  0.23937473944E+01  0.87088155896E+01  0.51100000000E-03 0.  1.
        -12    1    3    3    0    0  0.44386733220E+01  0.27283653619E+02 -0.14887211274E+02  0.31396315630E+02  0.00000000000E+00 0.  1.
</event>
<event>
 7    1  0.2680581E-011  0.5052887E+02  0.7816164E-02  0.1300439E+00
        -11   -1    0    0    0    0  0.00000000000E+00  0.00000000000E+00  0.45593999997E+02  0.45594000000E+02  0.51100000000E-03 0.  1.
         11   -1    0    0    0    0 -0.00000000000E+00 -0.00000000000E+00 -0.45593999997E+02  0.45594000000E+02  0.51100000000E-03 0. -1.
    9900012    2    1    2    0    0 -0.23645586347E+02 -0.32237485686E+02  0.74024334023E+01  0.50528865020E+02  0.30000015714E+02 0.  0.
         12    1    1    2    0    0  0.23645586347E+02  0.32237485686E+02 -0.74024334023E+01  0.40659134980E+02  0.00000000000E+00 0. -1.
         11    1    3    3    0    0  0.14970752333E+01  0.75887077883E+00  0.18849080356E+01  0.25238854326E+01  0.51100000000E-03 0. -1.
        -11    1    3    3    0    0 -0.14165760060E+02 -0.32567848784E+02 -0.42007655953E+00  0.35517742004E+02  0.51100000000E-03 0.  1.
         12    1    3    3    0    0 -0.10976901520E+02 -0.42850768112E+00  0.59376019262E+01  0.12487237583E+02  0.00000000000E+00 0. -1.
</event>
<event>
 7    1  0.2680581E-011  0.5052886E+02  0.7816164E-02  0.1300439E+00
        -11   -1    0    0    0    0  0.00000000000E+00  0.00000000000E+00  0.45593999997E+02  0.45594000000E+02  0.51100000000E-03 0. -1.
         11   -1    0    0    0    0 -0.00000000000E+00 -0.00000000000E+00 -0.45593999997E+02  0.45594000000E+02  0.51100000000E-03 0.  1.
    9900012    2    1    2    0    0 -0.32252110541E+02  0.18971834323E+02 -0.15907117561E+02  0.50528861777E+02  0.30000005857E+02 0.  0.
         12    1    1    2    0    0  0.32252110541E+02 -0.18971834323E+02  0.15907117561E+02  0.40659138223E+02  0.00000000000E+00 0. -1.
         11    1    3    3    0    0 -0.35480029445E+01  0.25873386167E+01 -0.50563839674E+01  0.66969892563E+01  0.51100000000E-03 0. -1.
        -11    1    3    3    0    0 -0.27398774726E+02  0.31753185829E+01 -0.15529271040E+01  0.27625840937E+02  0.51100000000E-03 0.  1.
         12    1    3    3    0    0 -0.13053328706E+01  0.13209177124E+02 -0.92978064893E+01  0.16206031584E+02  0.00000000000E+00 0. -1.
</event>
<event>
 7    1  0.2680581E-011  0.5052887E+02  0.7816164E-02  0.1300439E+00
        -11   -1    0    0    0    0  0.00000000000E+00  0.00000000000E+00  0.45593999997E+02  0.45594000000E+02  0.51100000000E-03 0.  1.
         11   -1    0    0    0    0 -0.00000000000E+00 -0.00000000000E+00 -0.45593999997E+02  0.45594000000E+02  0.51100000000E-03 0. -1.
    9900012    2    1    2    0    0 -0.27684501938E+02  0.15048769643E+02  0.25695681252E+02  0.50528866336E+02  0.30000019715E+02 0.  0.
         12    1    1    2    0    0  0.27684501938E+02 -0.15048769643E+02 -0.25695681252E+02  0.40659133664E+02  0.00000000000E+00 0. -1.
         11    1    3    3    0    0 -0.13788537533E+02  0.11444596443E+02  0.17489303129E+02  0.25039534326E+02  0.51100000000E-03 0. -1.
        -11    1    3    3    0    0  0.25116405351E+01  0.17781976099E+01  0.84350134709E+01  0.89788516767E+01  0.51100000000E-03 0.  1.
         12    1    3    3    0    0 -0.16407604940E+02  0.18259755891E+01 -0.22863534785E+00  0.16510480333E+02  0.00000000000E+00 0. -1.
</event>
<event>
 7    1  0.2680581E-011  0.5052887E+02  0.7816164E-02  0.1300439E+00
        -11   -1    0    0    0    0  0.00000000000E+00  0.00000000000E+00  0.45593999997E+02  0.45594000000E+02  0.51100000000E-03 0.  1.
         11   -1    0    0    0    0 -0.00000000000E+00 -0.00000000000E+00 -0.45593999997E+02  0.45594000000E+02  0.51100000000E-03 0. -1.
    9900012    2    1    2    0    0  0.31633216283E+02 -0.14856948361E+02  0.20779206233E+02  0.50528871890E+02  0.30000036596E+02 0.  0.
         12    1    1    2    0    0 -0.31633216283E+02  0.14856948361E+02 -0.20779206233E+02  0.40659128110E+02  0.00000000000E+00 0. -1.
         11    1    3    3    0    0  0.22256354412E+02 -0.14028143216E+02  0.94033446923E+01  0.27938450305E+02  0.51100000000E-03 0. -1.
        -11    1    3    3    0    0  0.35895222053E+01 -0.85638039289E+01  0.82936642633E+01  0.12450231908E+02  0.51100000000E-03 0.  1.
        -12    1    3    3    0    0  0.57873396664E+01  0.77349987846E+01  0.30821972775E+01  0.10140189676E+02  0.00000000000E+00 0.  1.
</event>
<event>
 7    1  0.2680581E-011  0.5052886E+02  0.7816164E-02  0.1300439E+00
        -11   -1    0    0    0    0  0.00000000000E+00  0.00000000000E+00  0.45593999997E+02  0.45594000000E+02  0.51100000000E-03 0. -1.
         11   -1    0    0    0    0 -0.00000000000E+00 -0.00000000000E+00 -0.45593999997E+02  0.45594000000E+02  0.51100000000E-03 0.  1.
    9900012    2    1    2    0    0  0.99158709918E+01 -0.17438535460E+02 -0.35365788735E+02  0.50528855526E+02  0.29999986857E+02 0.  0.
         12    1    1    2    0    0 -0.99158709918E+01  0.17438535460E+02  0.35365788735E+02  0.40659144474E+02  0.00000000000E+00 0. -1.
         11    1    3    3    0    0 -0.64537640121E+01 -0.31670245472E+01 -0.93400174169E+01  0.11786307310E+02  0.51100000000E-03 0. -1.
        -11    1    3    3    0    0  0.57083419949E+01  0.42400391182E+01 -0.87092955577E+01  0.11243439395E+02  0.51100000000E-03 0.  1.
         12    1    3    3    0    0  0.10661293009E+02 -0.18511550031E+02 -0.17316475760E+02  0.27499108821E+02  0.00000000000E+00 0. -1.
</event>
<event>
 7    1  0.2680581E-011  0.5052886E+02  0.7816164E-02  0.1300439E+00
        -11   -1    0    0    0    0  0.00000000000E+00  0.00000000000E+00  0.45593999997E+02  0.45594000000E+02  0.51100000000E-03 0.  1.
         11   -1    0    0    0    0 -0.00000000000E+00 -0.00000000000E+00 -0.45593999997E+02  0.45594000000E+02  0.51100000000E-03 0. -1.
    9900012    2    1    2    0    0 -0.37200476538E+02  0.13626541836E+02  0.91437232761E+01  0.50528858686E+02  0.29999996461E+02 0.  0.
         12    1    1    2    0    0  0.37200476538E+02 -0.13626541836E+02 -0.91437232761E+01  0.40659141314E+02  0.00000000000E+00 0. -1.
         11    1    3    3    0    0  0.24540167784E+00 -0.65878122813E+00  0.13649350165E+01  0.15353379271E+01  0.51100000000E-03 0. -1.
        -11    1    3    3    0    0 -0.26498211042E+02  0.21545684867E+02  0.10185098818E+02  0.35638574088E+02  0.51100000000E-03 0.  1.
        -12    1    3    3    0    0 -0.10947667174E+02 -0.72603618036E+01 -0.24063105587E+01  0.13354946670E+02  0.00000000000E+00 0.  1.
</event>
<event>
 7    1  0.2680581E-011  0.5052886E+02  0.7816164E-02  0.1300439E+00
        -11   -1    0    0    0    0  0.00000000000E+00  0.00000000000E+00  0.45593999997E+02  0.45594000000E+02  0.51100000000E-03 0. -1.
         11   -1    0    0    0    0 -0.00000000000E+00 -0.00000000000E+00 -0.45593999997E+02  0.45594000000E+02  0.51100000000E-03 0.  1.
    9900012    2    1    2    0    0  0.36765038656E+02  0.77120937457E+01  0.15557031309E+02  0.50528859816E+02  0.29999999897E+02 0.  0.
         12    1    1    2    0    0 -0.36765038656E+02 -0.77120937457E+01 -0.15557031309E+02  0.40659140184E+02  0.00000000000E+00 0. -1.
         11    1    3    3    0    0  0.23225606340E+02  0.72101850805E+01  0.23825709810E+01  0.24435470192E+02  0.51100000000E-03 0.  1.
        -11    1    3    3    0    0  0.15046106205E+02 -0.56008260702E+01  0.79272665272E+01  0.17905198113E+02  0.51100000000E-03 0. -1.
         12    1    3    3    0    0 -0.15066738883E+01  0.61027347355E+01  0.52471938006E+01  0.81881915121E+01  0.00000000000E+00 0. -1.
</event>
<event>
 7    1  0.2680581E-011  0.5052886E+02  0.7816164E-02  0.1300439E+00
        -11   -1    0    0    0    0  0.00000000000E+00  0.00000000000E+00  0.45593999997E+02  0.45594000000E+02  0.51100000000E-03 0.  1.
         11   -1    0    0    0    0 -0.00000000000E+00 -0.00000000000E+00 -0.45593999997E+02  0.45594000000E+02  0.51100000000E-03 0. -1.
    9900012    2    1    2    0    0 -0.12008338923E+02 -0.28222990241E+02  0.26691345873E+02  0.50528864171E+02  0.30000013134E+02 0.  0.
         12    1    1    2    0    0  0.12008338923E+02  0.28222990241E+02 -0.26691345873E+02  0.40659135829E+02  0.00000000000E+00 0. -1.
         11    1    3    3    0    0 -0.18646171285E+01 -0.10596352206E+02  0.54255206147E+01  0.12049719968E+02  0.51100000000E-03 0. -1.
        -11    1    3    3    0    0  0.62027712710E+01 -0.13352604401E+02  0.13126282288E+02  0.19724748482E+02  0.51100000000E-03 0.  1.
        -12    1    3    3    0    0 -0.16346493066E+02 -0.42740336336E+01  0.81395429710E+01  0.18754395720E+02  0.00000000000E+00 0.  1.
</event>
<event>
 7    1  0.2680581E-011  0.5052886E+02  0.7816164E-02  0.1300439E+00
        -11   -1    0    0    0    0  0.00000000000E+00  0.00000000000E+00  0.45593999997E+02  0.45594000000E+02  0.51100000000E-03 0. -1.
         11   -1    0    0    0    0 -0.00000000000E+00 -0.00000000000E+00 -0.45593999997E+02  0.45594000000E+02  0.51100000000E-03 0.  1.
    9900012    2    1    2    0    0  0.26052180681E+02 -0.30644104303E+02  0.59488144657E+01  0.50528860310E+02  0.30000001399E+02 0.  0.
         12    1    1    2    0    0 -0.26052180681E+02  0.30644104303E+02 -0.59488144657E+01  0.40659139690E+02  0.00000000000E+00 0. -1.
         11    1    3    3    0    0  0.32469394246E+01 -0.15100112242E+02  0.95996071598E+00  0.15475061557E+02  0.51100000000E-03 0. -1.
        -11    1    3    3    0    0 -0.27140970657E+01  0.22845427170E+01  0.15966439880E+00  0.35511901229E+01  0.51100000000E-03 0.  1.
        -12    1    3    3    0    0  0.25519338322E+02 -0.17828534778E+02  0.48291893510E+01  0.31502608630E+02  0.00000000000E+00 0.  1.
</event>
<event>
 7    1  0.2680581E-011  0.5052886E+02  0.7816164E-02  0.1300439E+00
        -11   -1    0    0    0    0  0.00000000000E+00  0.00000000000E+00  0.45593999997E+02  0.45594000000E+02  0.51100000000E-03 0.  1.
         11   -1    0    0    0    0 -0.00000000000E+00 -0.00000000000E+00 -0.45593999997E+02  0.45594000000E+02  0.51100000000E-03 0. -1.
    9900012    2    1    2    0    0 -0.25823773610E+02  0.29714225170E+02  0.10166759678E+02  0.50528862487E+02  0.30000008017E+02 0.  0.
         12    1    1    2    0    0  0.25823773610E+02 -0.29714225170E+02 -0.10166759678E+02  0.40659137513E+02  0.00000000000E+00 0. -1.
         11    1    3    3    0    0  0.28723419700E+01  0.12478986388E+02  0.35017272916E+01  0.13275448917E+02  0.51100000000E-03 0. -1.
        -11    1    3    3    0    0 -0.11185507730E+02  0.11910633452E+02  0.92395932114E+01  0.18770957764E+02  0.51100000000E-03 0.  1.
         12    1    3    3    0    0 -0.17510607850E+02  0.53246053304E+01 -0.25745608248E+01  0.18482455806E+02  0.00000000000E+00 0. -1.
</event>
<event>
 7    1  0.2680581E-011  0.5052885E+02  0.7816164E-02  0.1300439E+00
        -11   -1    0    0    0    0  0.00000000000E+00  0.00000000000E+00  0.45593999997E+02  0.45594000000E+02  0.51100000000E-03 0. -1.
         11   -1    0    0    0    0 -0.00000000000E+00 -0.00000000000E+00 -0.45593999997E+02  0.45594000000E+02  0.51100000000E-03 0.  1.
    9900012    2    1    2    0    0  0.25422125632E+02  0.18236084956E+02 -0.25967804619E+02  0.50528854130E+02  0.29999982615E+02 0.  0.
         12    1    1    2    0    0 -0.25422125632E+02 -0.18236084956E+02  0.25967804619E+02  0.40659145870E+02  0.00000000000E+00 0. -1.
         11    1    3    3    0    0  0.18929188243E+02  0.16128782194E+02 -0.14574504256E+02  0.28824780263E+02  0.51100000000E-03 0. -1.
        -11    1    3    3    0    0  0.51079521870E+01  0.89526428484E+01 -0.10412812296E+02  0.14651540864E+02  0.51100000000E-03 0.  1.
         12    1    3    3    0    0  0.13849852016E+01 -0.68453400871E+01 -0.98048806590E+00  0.70525330034E+01  0.00000000000E+00 0. -1.
</event>
<event>
 7    1  0.2680581E-011  0.5052884E+02  0.7816164E-02  0.1300439E+00
        -11   -1    0    0    0    0  0.00000000000E+00  0.00000000000E+00  0.45593999997E+02  0.45594000000E+02  0.51100000000E-03 0.  1.
         11   -1    0    0    0    0 -0.00000000000E+00 -0.00000000000E+00 -0.45593999997E+02  0.45594000000E+02  0.51100000000E-03 0. -1.
    9900012    2    1    2    0    0  0.15301296681E+01  0.96001461117E+01  0.39479913573E+02  0.50528835254E+02  0.29999925237E+02 0.  0.
         12    1    1    2    0    0 -0.15301296681E+01 -0.96001461117E+01 -0.39479913573E+02  0.40659164746E+02  0.00000000000E+00 0. -1.
         11    1    3    3    0    0 -0.42205829099E+01  0.67096502352E+01  0.25269701687E+02  0.26483778997E+02  0.51100000000E-03 0. -1.
        -11    1    3    3    0    0  0.86124465009E+01 -0.14851718050E+01  0.16235340268E+02  0.18438173551E+02  0.51100000000E-03 0.  1.
         12    1    3    3    0    0 -0.28617339229E+01  0.43756676815E+01 -0.20251283825E+01  0.56068827052E+01  0.00000000000E+00 0. -1.
</event>
<event>
 7    1  0.2680581E-011  0.5052886E+02  0.7816164E-02  0.1300439E+00
        -11   -1    0    0    0    0  0.00000000000E+00  0.00000000000E+00  0.45593999997E+02  0.45594000000E+02  0.51100000000E-03 0.  1.
         11   -1    0    0    0    0 -0.00000000000E+00 -0.00000000000E+00 -0.45593999997E+02  0.45594000000E+02  0.51100000000E-03 0. -1.
    9900012    2    1    2    0    0 -0.23539353142E+02  0.61885137344E+01  0.32569417142E+02  0.50528858573E+02  0.29999996118E+02 0.  0.
         12    1    1    2    0    0  0.23539353142E+02 -0.61885137344E+01 -0.32569417142E+02  0.40659141427E+02  0.00000000000E+00 0. -1.
         11    1    3    3    0    0 -0.10658123247E+02  0.60448242185E+01  0.38913280341E+01  0.12856046247E+02  0.51100000000E-03 0. -1.
        -11    1    3    3    0    0  0.57325258425E+00  0.45706569884E+01  0.21123609183E+02  0.21620045999E+02  0.51100000000E-03 0.  1.
         12    1    3    3    0    0 -0.13454482479E+02 -0.44269674724E+01  0.75544799253E+01  0.16052766326E+02  0.00000000000E+00 0. -1.
</event>
<event>
 7    1  0.2680581E-011  0.5052883E+02  0.7816164E-02  0.1300439E+00
        -11   -1    0    0    0    0  0.00000000000E+00  0.00000000000E+00  0.45593999997E+02  0.45594000000E+02  0.51100000000E-03 0.  1.
         11   -1    0    0    0    0 -0.00000000000E+00 -0.00000000000E+00 -0.45593999997E+02  0.45594000000E+02  0.51100000000E-03 0. -1.
    9900012    2    1    2    0    0  0.16414842830E+02  0.63532722164E+01  0.36651829782E+02  0.50528834251E+02  0.29999922191E+02 0.  0.
         12    1    1    2    0    0 -0.16414842830E+02 -0.63532722164E+01 -0.36651829782E+02  0.40659165749E+02  0.00000000000E+00 0. -1.
         11    1    3    3    0    0  0.29275344214E+01 -0.14684893865E+01  0.19499229458E+01  0.38117080978E+01  0.51100000000E-03 0. -1.
        -11    1    3    3    0    0  0.66712679352E+01  0.17897301074E+02  0.20552224630E+02  0.28057318815E+02  0.51100000000E-03 0.  1.
        -12    1    3    3    0    0  0.68160404730E+01 -0.10075539471E+02  0.14149682206E+02  0.18659807338E+02  0.00000000000E+00 0.  1.
</event>
<event>
 7    1  0.2680581E-011  0.5052885E+02  0.7816164E-02  0.1300439E+00
        -11   -1    0    0    0    0  0.00000000000E+00  0.00000000000E+00  0.45593999997E+02  0.45594000000E+02  0.51100000000E-03 0.  1.
         11   -1    0    0    0    0 -0.00000000000E+00 -0.00000000000E+00 -0.45593999997E+02  0.45594000000E+02  0.51100000000E-03 0. -1.
    9900012    2    1    2    0    0  0.52620581081E+01 -0.37696312564E+02  0.14299123082E+02  0.50528853952E+02  0.29999982071E+02 0.  0.
         12    1    1    2    0    0 -0.52620581081E+01  0.37696312564E+02 -0.14299123082E+02  0.40659146048E+02  0.00000000000E+00 0. -1.
         11    1    3    3    0    0  0.38697897746E+01 -0.27196361193E+02  0.13047017433E+00  0.27470608980E+02  0.51100000000E-03 0. -1.
        -11    1    3    3    0    0  0.78166535842E+01 -0.56657899379E+01  0.50285902877E+01  0.10885217932E+02  0.51100000000E-03 0.  1.
         12    1    3    3    0    0 -0.64243852506E+01 -0.48341614339E+01  0.91400626197E+01  0.12173027040E+02  0.00000000000E+00 0. -1.
</event>
<event>
 7    1  0.2680581E-011  0.5052885E+02  0.7816164E-02  0.1300439E+00
        -11   -1    0    0    0    0  0.00000000000E+00  0.00000000000E+00  0.45593999997E+02  0.45594000000E+02  0.51100000000E-03 0.  1.
         11   -1    0    0    0    0 -0.00000000000E+00 -0.00000000000E+00 -0.45593999997E+02  0.45594000000E+02  0.51100000000E-03 0. -1.
    9900012    2    1    2    0    0 -0.27735382734E+02 -0.25378817247E+02  0.15486454023E+02  0.50528854922E+02  0.29999985022E+02 0.  0.
         12    1    1    2    0    0  0.27735382734E+02  0.25378817247E+02 -0.15486454023E+02  0.40659145078E+02  0.00000000000E+00 0. -1.
         11    1    3    3    0    0  0.42892524296E+01  0.26181498759E+01  0.15694663316E+01  0.52645626603E+01  0.51100000000E-03 0. -1.
        -11    1    3    3    0    0 -0.10734417762E+02 -0.13361463430E+02  0.40704467316E+01  0.17616042874E+02  0.51100000000E-03 0.  1.
        -12    1    3    3    0    0 -0.21290217402E+02 -0.14635503693E+02  0.98465409599E+01  0.27648249388E+02  0.00000000000E+00 0.  1.
</event>
<event>
 7    1  0.2680581E-011  0.5052886E+02  0.7816164E-02  0.1300439E+00
        -11   -1    0    0    0    0  0.00000000000E+00  0.00000000000E+00  0.45593999997E+02  0.45594000000E+02  0.51100000000E-03 0.  1.
         11   -1    0    0    0    0 -0.00000000000E+00 -0.00000000000E+00 -0.45593999997E+02  0.45594000000E+02  0.51100000000E-03 0. -1.
    9900012    2    1    2    0    0 -0.39176641565E+02 -0.32227911007E+00  0.10874387185E+02  0.50528863206E+02  0.30000010202E+02 0.  0.
         12    1    1    2    0    0  0.39176641565E+02  0.32227911007E+00 -0.10874387185E+02  0.40659136794E+02  0.00000000000E+00 0. -1.
         11    1    3    3    0    0  0.18921732491E+00 -0.65471807643E+01  0.71280947748E+01  0.96804501205E+01  0.51100000000E-03 0. -1.
        -11    1    3    3    0    0 -0.81086649686E+01  0.27687853653E+01  0.38668741891E+01  0.94004965947E+01  0.51100000000E-03 0.  1.
        -12    1    3    3    0    0 -0.31257193922E+02  0.34561162889E+01 -0.12058177885E+00  0.31447916491E+02  0.00000000000E+00 0.  1.
</event>
<event>
 7    1  0.2680581E-011  0.5052886E+02  0.7816164E-02  0.1300439E+00
        -11   -1    0    0    0    0  0.00000000000E+00  0.00000000000E+00  0.45593999997E+02  0.45594000000E+02  0.51100000000E-03 0. -1.
         11   -1    0    0    0    0 -0.00000000000E+00 -0.00000000000E+00 -0.45593999997E+02  0.45594000000E+02  0.51100000000E-03 0.  1.
    9900012    2    1    2    0    0  0.16655879337E+02  0.58351662996E+01 -0.36629195849E+02  0.50528862395E+02  0.30000007736E+02 0.  0.
         12    1    1    2    0    0 -0.16655879337E+02 -0.58351662996E+01  0.36629195849E+02  0.40659137605E+02  0.00000000000E+00 0. -1.
         11    1    3    3    0    0  0.13059992057E+02  0.43193809183E+01 -0.62815385296E+01  0.15122108669E+02  0.51100000000E-03 0. -1.
        -11    1    3    3    0    0  0.36568967433E+01 -0.17549963601E+01 -0.31632964390E+02  0.31891963602E+02  0.51100000000E-03 0.  1.
         12    1    3    3    0    0 -0.61009462374E-01  0.32707817414E+01  0.12853070705E+01  0.35147901245E+01  0.00000000000E+00 0. -1.
</event>
<event>
 7    1  0.2680581E-011  0.5052887E+02  0.7816164E-02  0.1300439E+00
        -11   -1    0    0    0    0  0.00000000000E+00  0.00000000000E+00  0.45593999997E+02  0.45594000000E+02  0.51100000000E-03 0. -1.
         11   -1    0    0    0    0 -0.00000000000E+00 -0.00000000000E+00 -0.45593999997E+02  0.45594000000E+02  0.51100000000E-03 0.  1.
    9900012    2    1    2    0    0 -0.12550799198E+02  0.10705434675E+02 -0.37162294071E+02  0.50528868274E+02  0.30000025607E+02 0.  0.
         12    1    1    2    0    0  0.12550799198E+02 -0.10705434675E+02  0.37162294071E+02  0.40659131726E+02  0.00000000000E+00 0. -1.
         11    1    3    3    0    0 -0.43132028555E+01 -0.57062351971E+01 -0.84800288562E+01  0.11093950093E+02  0.51100000000E-03 0. -1.
        -11    1    3    3    0    0  0.46712316309E-01 -0.38979670101E+01 -0.83507704954E+00  0.39866881985E+01  0.51100000000E-03 0.  1.
        -12    1    3    3    0    0 -0.82843086584E+01  0.20309636882E+02 -0.27847188165E+02  0.35448229983E+02  0.00000000000E+00 0.  1.
</event>
<event>
 7    1  0.2680581E-011  0.5052894E+02  0.7816164E-02  0.1300438E+00
        -11   -1    0    0    0    0  0.00000000000E+00  0.00000000000E+00  0.45593999997E+02  0.45594000000E+02  0.51100000000E-03 0.  1.
         11   -1    0    0    0    0 -0.00000000000E+00 -0.00000000000E+00 -0.45593999997E+02  0.45594000000E+02  0.51100000000E-03 0. -1.
    9900012    2    1    2    0    0 -0.18699070460E+02 -0.13917369631E+01  0.36077231369E+02  0.50528944538E+02  0.30000257416E+02 0.  0.
         12    1    1    2    0    0  0.18699070460E+02  0.13917369631E+01 -0.36077231369E+02  0.40659055462E+02  0.00000000000E+00 0. -1.
         11    1    3    3    0    0 -0.20488962688E+02 -0.23771816438E+01  0.23238930582E+02  0.31072439226E+02  0.51100000000E-03 0. -1.
        -11    1    3    3    0    0 -0.44442938481E+01  0.49140593793E+01  0.32960863987E+01  0.74002644007E+01  0.51100000000E-03 0.  1.
         12    1    3    3    0    0  0.62341860763E+01 -0.39286146986E+01  0.95422143884E+01  0.12056240912E+02  0.00000000000E+00 0. -1.
</event>
<event>
 7    1  0.2680581E-011  0.5052886E+02  0.7816164E-02  0.1300439E+00
        -11   -1    0    0    0    0  0.00000000000E+00  0.00000000000E+00  0.45593999997E+02  0.45594000000E+02  0.51100000000E-03 0. -1.
         11   -1    0    0    0    0 -0.00000000000E+00 -0.00000000000E+00 -0.45593999997E+02  0.45594000000E+02  0.51100000000E-03 0.  1.
    9900012    2    1    2    0    0 -0.22528258574E+02 -0.31006124219E+02  0.13574356119E+02  0.50528864280E+02  0.30000013465E+02 0.  0.
         12    1    1    2    0    0  0.22528258574E+02  0.31006124219E+02 -0.13574356119E+02  0.40659135720E+02  0.00000000000E+00 0. -1.
         11    1    3    3    0    0 -0.12156809963E+02 -0.75118072374E+01  0.57367491842E+01  0.15398882034E+02  0.51100000000E-03 0. -1.
        -11    1    3    3    0    0 -0.12019742032E+02 -0.14880460676E+02 -0.48241684930E+01  0.19727516578E+02  0.51100000000E-03 0.  1.
        -12    1    3    3    0    0  0.16482934208E+01 -0.86138563062E+01  0.12661775428E+02  0.15402465668E+02  0.00000000000E+00 0.  1.
</event>
<event>
 7    1  0.2680581E-011  0.5052886E+02  0.7816164E-02  0.1300439E+00
        -11   -1    0    0    0    0  0.00000000000E+00  0.00000000000E+00  0.45593999997E+02  0.45594000000E+02  0.51100000000E-03 0.  1.
         11   -1    0    0    0    0 -0.00000000000E+00 -0.00000000000E+00 -0.45593999997E+02  0.45594000000E+02  0.51100000000E-03 0. -1.
    9900012    2    1    2    0    0 -0.26164969198E+01 -0.39712566245E+02  0.83205642328E+01  0.50528858801E+02  0.29999996810E+02 0.  0.
         12    1    1    2    0    0  0.26164969198E+01  0.39712566245E+02 -0.83205642328E+01  0.40659141199E+02  0.00000000000E+00 0. -1.
         11    1    3    3    0    0 -0.60962778235E+01 -0.99143196451E+01 -0.92366011304E+01  0.14858436594E+02  0.51100000000E-03 0. -1.
        -11    1    3    3    0    0  0.32550858969E+01 -0.78301068233E+01  0.18925034448E+01  0.86883673156E+01  0.51100000000E-03 0.  1.
        -12    1    3    3    0    0  0.22469500674E+00 -0.21968139777E+02  0.15664661918E+02  0.26982054891E+02  0.00000000000E+00 0.  1.
</event>
<event>
 7    1  0.2680581E-011  0.5052886E+02  0.7816164E-02  0.1300439E+00
        -11   -1    0    0    0    0  0.00000000000E+00  0.00000000000E+00  0.45593999997E+02  0.45594000000E+02  0.51100000000E-03 0.  1.
         11   -1    0    0    0    0 -0.00000000000E+00 -0.00000000000E+00 -0.45593999997E+02  0.45594000000E+02  0.51100000000E-03 0. -1.
    9900012    2    1    2    0    0 -0.96922231242E+01  0.28377546326E+02  0.27457996223E+02  0.50528857349E+02  0.29999992397E+02 0.  0.
         12    1    1    2    0    0  0.96922231242E+01 -0.28377546326E+02 -0.27457996223E+02  0.40659142651E+02  0.00000000000E+00 0. -1.
         11    1    3    3    0    0 -0.27022459738E+01 -0.12973096399E+01  0.14079032991E+02  0.14394593284E+02  0.51100000000E-03 0. -1.
        -11    1    3    3    0    0 -0.90351086557E+00  0.10575293329E+02  0.12030202992E+02  0.16043034163E+02  0.51100000000E-03 0.  1.
         12    1    3    3    0    0 -0.60864662849E+01  0.19099562636E+02  0.13487602402E+01  0.20091229901E+02  0.00000000000E+00 0. -1.
</event>
<event>
 7    1  0.2680581E-011  0.5052886E+02  0.7816164E-02  0.1300439E+00
        -11   -1    0    0    0    0  0.00000000000E+00  0.00000000000E+00  0.45593999997E+02  0.45594000000E+02  0.51100000000E-03 0.  1.
         11   -1    0    0    0    0 -0.00000000000E+00 -0.00000000000E+00 -0.45593999997E+02  0.45594000000E+02  0.51100000000E-03 0. -1.
    9900012    2    1    2    0    0 -0.29372587034E+02 -0.10651119041E+02  0.26018655989E+02  0.50528860002E+02  0.30000000462E+02 0.  0.
         12    1    1    2    0    0  0.29372587034E+02  0.10651119041E+02 -0.26018655989E+02  0.40659139998E+02  0.00000000000E+00 0. -1.
         11    1    3    3    0    0 -0.27078402113E+02 -0.79741352196E+01  0.25885593596E+02  0.38300008481E+02  0.51100000000E-03 0. -1.
        -11    1    3    3    0    0  0.39566352378E+00  0.14195647394E+01  0.50656302814E+01  0.52756349459E+01  0.51100000000E-03 0.  1.
         12    1    3    3    0    0 -0.26898484444E+01 -0.40965485611E+01 -0.49325678888E+01  0.69532165755E+01  0.00000000000E+00 0. -1.
</event>
<event>
 7    1  0.2680581E-011  0.5052884E+02  0.7816164E-02  0.1300439E+00
        -11   -1    0    0    0    0  0.00000000000E+00  0.00000000000E+00  0.45593999997E+02  0.45594000000E+02  0.51100000000E-03 0. -1.
         11   -1    0    0    0    0 -0.00000000000E+00 -0.00000000000E+00 -0.45593999997E+02  0.45594000000E+02  0.51100000000E-03 0.  1.
    9900012    2    1    2    0    0 -0.32125697831E+02 -0.10111920325E+02 -0.22778411883E+02  0.50528838158E+02  0.29999934065E+02 0.  0.
         12    1    1    2    0    0  0.32125697831E+02  0.10111920325E+02  0.22778411883E+02  0.40659161842E+02  0.00000000000E+00 0. -1.
         11    1    3    3    0    0 -0.23631325379E+01 -0.51016696401E+01 -0.17892641091E+01  0.59002453188E+01  0.51100000000E-03 0. -1.
        -11    1    3    3    0    0 -0.25133816166E+02  0.57507739862E+01 -0.76894570161E+01  0.26905535973E+02  0.51100000000E-03 0.  1.
         12    1    3    3    0    0 -0.46287491268E+01 -0.10761024671E+02 -0.13299690758E+02  0.17723056867E+02  0.00000000000E+00 0. -1.
</event>
<event>
 7    1  0.2680581E-011  0.5052886E+02  0.7816164E-02  0.1300439E+00
        -11   -1    0    0    0    0  0.00000000000E+00  0.00000000000E+00  0.45593999997E+02  0.45594000000E+02  0.51100000000E-03 0.  1.
         11   -1    0    0    0    0 -0.00000000000E+00 -0.00000000000E+00 -0.45593999997E+02  0.45594000000E+02  0.51100000000E-03 0. -1.
    9900012    2    1    2    0    0  0.10511426832E+02  0.30334908180E+02  0.24949324839E+02  0.50528861319E+02  0.30000004466E+02 0.  0.
         12    1    1    2    0    0 -0.10511426832E+02 -0.30334908180E+02 -0.24949324839E+02  0.40659138681E+02  0.00000000000E+00 0. -1.
         11    1    3    3    0    0 -0.43119664983E+01 -0.17413321142E+00  0.61601729503E+01  0.75213767686E+01  0.51100000000E-03 0. -1.
        -11    1    3    3    0    0  0.38478126653E+01  0.56242429504E+01 -0.36657831574E+01  0.77379414246E+01  0.51100000000E-03 0.  1.
        -12    1    3    3    0    0  0.10975580665E+02  0.24884798441E+02  0.22454935046E+02  0.35269543126E+02  0.00000000000E+00 0.  1.
</event>
<event>
 7    1  0.2680581E-011  0.5052885E+02  0.7816164E-02  0.1300439E+00
        -11   -1    0    0    0    0  0.00000000000E+00  0.00000000000E+00  0.45593999997E+02  0.45594000000E+02  0.51100000000E-03 0.  1.
         11   -1    0    0    0    0 -0.00000000000E+00 -0.00000000000E+00 -0.45593999997E+02  0.45594000000E+02  0.51100000000E-03 0. -1.
    9900012    2    1    2    0    0 -0.46110424371E+01 -0.35584629966E+02  0.19121676544E+02  0.50528854460E+02  0.29999983617E+02 0.  0.
         12    1    1    2    0    0  0.46110424371E+01  0.35584629966E+02 -0.19121676544E+02  0.40659145540E+02  0.00000000000E+00 0. -1.
         11    1    3    3    0    0  0.39484254165E+01 -0.73709725649E+01  0.11826408401E+02  0.14483964780E+02  0.51100000000E-03 0. -1.
        -11    1    3    3    0    0  0.48760152732E+01 -0.10709269987E+02  0.75433205994E+01  0.13977327160E+02  0.51100000000E-03 0.  1.
         12    1    3    3    0    0 -0.13435483127E+02 -0.17504387414E+02 -0.24805245586E+00  0.22067562520E+02  0.00000000000E+00 0. -1.
</event>
<event>
 7    1  0.2680581E-011  0.5052889E+02  0.7816164E-02  0.1300439E+00
        -11   -1    0    0    0    0  0.00000000000E+00  0.00000000000E+00  0.45593999997E+02  0.45594000000E+02  0.51100000000E-03 0. -1.
         11   -1    0    0    0    0 -0.00000000000E+00 -0.00000000000E+00 -0.45593999997E+02  0.45594000000E+02  0.51100000000E-03 0.  1.
    9900012    2    1    2    0    0  0.34845428845E+02 -0.13401528211E+02  0.16104604947E+02  0.50528890685E+02  0.30000093726E+02 0.  0.
         12    1    1    2    0    0 -0.34845428845E+02  0.13401528211E+02 -0.16104604947E+02  0.40659109315E+02  0.00000000000E+00 0. -1.
         11    1    3    3    0    0  0.22538526905E+02 -0.27861411279E+01  0.10898089487E+02  0.25189603652E+02  0.51100000000E-03 0. -1.
        -11    1    3    3    0    0  0.12957287963E+02  0.75276106820E+00  0.51192122757E+01  0.13952214704E+02  0.51100000000E-03 0.  1.
         12    1    3    3    0    0 -0.65038602207E+00 -0.11368148151E+02  0.87303183702E-01  0.11387072329E+02  0.00000000000E+00 0. -1.
</event>
<event>
 7    1  0.2680581E-011  0.5052892E+02  0.7816164E-02  0.1300439E+00
        -11   -1    0    0    0    0  0.00000000000E+00  0.00000000000E+00  0.45593999997E+02  0.45594000000E+02  0.51100000000E-03 0. -1.
         11   -1    0    0    0    0 -0.00000000000E+00 -0.00000000000E+00 -0.45593999997E+02  0.45594000000E+02  0.51100000000E-03 0.  1.
    9900012    2    1    2    0    0  0.22561020087E+02 -0.33252743582E+02 -0.61981095979E+01  0.50528915583E+02  0.30000169404E+02 0.  0.
         12    1    1    2    0    0 -0.22561020087E+02  0.33252743582E+02  0.61981095979E+01  0.40659084417E+02  0.00000000000E+00 0. -1.
         11    1    3    3    0    0  0.47225404304E+01 -0.65838681095E+01 -0.18855437769E+01  0.83189532391E+01  0.51100000000E-03 0.  1.
        -11    1    3    3    0    0 -0.65282032339E+01 -0.13713704374E+01  0.78965006600E+00  0.67172644602E+01  0.51100000000E-03 0. -1.
        -12    1    3    3    0    0  0.24366682890E+02 -0.25297505035E+02 -0.51022158871E+01  0.35492697883E+02  0.00000000000E+00 0.  1.
</event>
<event>
 7    1  0.2680581E-011  0.5052886E+02  0.7816164E-02  0.1300439E+00
        -11   -1    0    0    0    0  0.00000000000E+00  0.00000000000E+00  0.45593999997E+02  0.45594000000E+02  0.51100000000E-03 0. -1.
         11   -1    0    0    0    0 -0.00000000000E+00 -0.00000000000E+00 -0.45593999997E+02  0.45594000000E+02  0.51100000000E-03 0.  1.
    9900012    2    1    2    0    0  0.33567555396E+02  0.57526304204E+01 -0.22210186423E+02  0.50528856958E+02  0.29999991209E+02 0.  0.
         12    1    1    2    0    0 -0.33567555396E+02 -0.57526304204E+01  0.22210186423E+02  0.40659143042E+02  0.00000000000E+00 0. -1.
         11    1    3    3    0    0  0.26483574343E+02 -0.11309538655E+01 -0.21804916202E+02  0.34323652741E+02  0.51100000000E-03 0.  1.
        -11    1    3    3    0    0  0.91708511970E+01  0.75320817034E+01 -0.35397610226E+01  0.12384129958E+02  0.51100000000E-03 0. -1.
        -12    1    3    3    0    0 -0.20868701440E+01 -0.64849741748E+00  0.31344908025E+01  0.38210742586E+01  0.00000000000E+00 0.  1.
</event>
<event>
 7    1  0.2680581E-011  0.5052886E+02  0.7816164E-02  0.1300439E+00
        -11   -1    0    0    0    0  0.00000000000E+00  0.00000000000E+00  0.45593999997E+02  0.45594000000E+02  0.51100000000E-03 0.  1.
         11   -1    0    0    0    0 -0.00000000000E+00 -0.00000000000E+00 -0.45593999997E+02  0.45594000000E+02  0.51100000000E-03 0. -1.
    9900012    2    1    2    0    0  0.22471543924E+02  0.32613084545E+02 -0.91968460130E+01  0.50528861464E+02  0.30000004906E+02 0.  0.
         12    1    1    2    0    0 -0.22471543924E+02 -0.32613084545E+02  0.91968460130E+01  0.40659138536E+02  0.00000000000E+00 0. -1.
         11    1    3    3    0    0  0.16376309587E+02  0.86564107690E+01 -0.67949049801E+01  0.19730374985E+02  0.51100000000E-03 0. -1.
        -11    1    3    3    0    0  0.10611702586E+02  0.23736690170E+02 -0.32328547485E+01  0.26200954985E+02  0.51100000000E-03 0.  1.
        -12    1    3    3    0    0 -0.45164682498E+01  0.21998360624E+00  0.83091371570E+00  0.45975314944E+01  0.00000000000E+00 0.  1.
</event>
<event>
 7    1  0.2680581E-011  0.5052885E+02  0.7816164E-02  0.1300439E+00
        -11   -1    0    0    0    0  0.00000000000E+00  0.00000000000E+00  0.45593999997E+02  0.45594000000E+02  0.51100000000E-03 0. -1.
         11   -1    0    0    0    0 -0.00000000000E+00 -0.00000000000E+00 -0.45593999997E+02  0.45594000000E+02  0.51100000000E-03 0.  1.
    9900012    2    1    2    0    0  0.30011341536E+02  0.18058762168E+02 -0.20648646481E+02  0.50528854493E+02  0.29999983718E+02 0.  0.
         12    1    1    2    0    0 -0.30011341536E+02 -0.18058762168E+02  0.20648646481E+02  0.40659145507E+02  0.00000000000E+00 0. -1.
         11    1    3    3    0    0  0.19947454539E+01  0.84217426345E+01 -0.60078236920E+01  0.10535592257E+02  0.51100000000E-03 0.  1.
        -11    1    3    3    0    0  0.22018972629E+02  0.11754812695E+02 -0.10437056598E+01  0.24981995495E+02  0.51100000000E-03 0. -1.
         12    1    3    3    0    0  0.59976234530E+01 -0.21177931615E+01 -0.13597117129E+02  0.15011266741E+02  0.00000000000E+00 0. -1.
</event>
<event>
 7    1  0.2680581E-011  0.5052886E+02  0.7816164E-02  0.1300439E+00
        -11   -1    0    0    0    0  0.00000000000E+00  0.00000000000E+00  0.45593999997E+02  0.45594000000E+02  0.51100000000E-03 0. -1.
         11   -1    0    0    0    0 -0.00000000000E+00 -0.00000000000E+00 -0.45593999997E+02  0.45594000000E+02  0.51100000000E-03 0.  1.
    9900012    2    1    2    0    0 -0.33234852125E+02  0.20563073011E+01 -0.23331995367E+02  0.50528858306E+02  0.29999995307E+02 0.  0.
         12    1    1    2    0    0  0.33234852125E+02 -0.20563073011E+01  0.23331995367E+02  0.40659141694E+02  0.00000000000E+00 0. -1.
         11    1    3    3    0    0 -0.18677967943E+02  0.44568532262E+01 -0.97186284953E+01  0.21521658097E+02  0.51100000000E-03 0.  1.
        -11    1    3    3    0    0 -0.17791337357E+02 -0.70747237328E+01 -0.72455734733E+01  0.20471485927E+02  0.51100000000E-03 0. -1.
        -12    1    3    3    0    0  0.32344531756E+01  0.46741778077E+01 -0.63677933986E+01  0.85357142812E+01  0.00000000000E+00 0.  1.
</event>
<event>
 7    1  0.2680581E-011  0.5052885E+02  0.7816164E-02  0.1300439E+00
        -11   -1    0    0    0    0  0.00000000000E+00  0.00000000000E+00  0.45593999997E+02  0.45594000000E+02  0.51100000000E-03 0.  1.
         11   -1    0    0    0    0 -0.00000000000E+00 -0.00000000000E+00 -0.45593999997E+02  0.45594000000E+02  0.51100000000E-03 0. -1.
    9900012    2    1    2    0    0  0.51239242401E+01  0.53134809070E+01  0.39983484095E+02  0.50528847532E+02  0.29999962560E+02 0.  0.
         12    1    1    2    0    0 -0.51239242401E+01 -0.53134809070E+01 -0.39983484095E+02  0.40659152468E+02  0.00000000000E+00 0. -1.
         11    1    3    3    0    0 -0.57069077019E+01 -0.22881992164E+01 -0.10695889399E+00  0.61494789729E+01  0.51100000000E-03 0. -1.
        -11    1    3    3    0    0  0.43246180648E+01 -0.30103533950E+01  0.54970862557E+01  0.76146245169E+01  0.51100000000E-03 0.  1.
         12    1    3    3    0    0  0.65062138772E+01  0.10612033518E+02  0.34593356734E+02  0.36764744043E+02  0.00000000000E+00 0. -1.
</event>
<event>
 7    1  0.2680581E-011  0.5052887E+02  0.7816164E-02  0.1300439E+00
        -11   -1    0    0    0    0  0.00000000000E+00  0.00000000000E+00  0.45593999997E+02  0.45594000000E+02  0.51100000000E-03 0.  1.
         11   -1    0    0    0    0 -0.00000000000E+00 -0.00000000000E+00 -0.45593999997E+02  0.45594000000E+02  0.51100000000E-03 0. -1.
    9900012    2    1    2    0    0 -0.18233337416E+01  0.32649899129E+02  0.24162458461E+02  0.50528869931E+02  0.30000030643E+02 0.  0.
         12    1    1    2    0    0  0.18233337416E+01 -0.32649899129E+02 -0.24162458461E+02  0.40659130069E+02  0.00000000000E+00 0. -1.
         11    1    3    3    0    0 -0.28459919608E+01  0.16379923890E+02  0.77282500115E+00  0.16643281997E+02  0.51100000000E-03 0. -1.
        -11    1    3    3    0    0 -0.74122230027E+01  0.43333432495E+01  0.36641893049E+01  0.93351591889E+01  0.51100000000E-03 0.  1.
         12    1    3    3    0    0  0.84348812220E+01  0.11936631989E+02  0.19725444155E+02  0.24550428746E+02  0.00000000000E+00 0. -1.
</event>
<event>
 7    1  0.2680581E-011  0.5052887E+02  0.7816164E-02  0.1300439E+00
        -11   -1    0    0    0    0  0.00000000000E+00  0.00000000000E+00  0.45593999997E+02  0.45594000000E+02  0.51100000000E-03 0.  1.
         11   -1    0    0    0    0 -0.00000000000E+00 -0.00000000000E+00 -0.45593999997E+02  0.45594000000E+02  0.51100000000E-03 0. -1.
    9900012    2    1    2    0    0  0.37818288023E+02  0.13737261227E+02  0.58506049287E+01  0.50528870238E+02  0.30000031576E+02 0.  0.
         12    1    1    2    0    0 -0.37818288023E+02 -0.13737261227E+02 -0.58506049287E+01  0.40659129762E+02  0.00000000000E+00 0. -1.
         11    1    3    3    0    0  0.26226477684E+02  0.76759545966E+01 -0.40310079823E+01  0.27622408227E+02  0.51100000000E-03 0. -1.
        -11    1    3    3    0    0  0.10088517853E+02  0.11236497375E+02  0.59285946300E+01  0.16222986787E+02  0.51100000000E-03 0.  1.
        -12    1    3    3    0    0  0.15032924856E+01 -0.51751907449E+01  0.39530182810E+01  0.66834752243E+01  0.00000000000E+00 0.  1.
</event>
<event>
 7    1  0.2680581E-011  0.5052886E+02  0.7816164E-02  0.1300439E+00
        -11   -1    0    0    0    0  0.00000000000E+00  0.00000000000E+00  0.45593999997E+02  0.45594000000E+02  0.51100000000E-03 0. -1.
         11   -1    0    0    0    0 -0.00000000000E+00 -0.00000000000E+00 -0.45593999997E+02  0.45594000000E+02  0.51100000000E-03 0.  1.
    9900012    2    1    2    0    0  0.23370338795E+02 -0.32179417489E+02  0.84544816378E+01  0.50528857054E+02  0.29999991502E+02 0.  0.
         12    1    1    2    0    0 -0.23370338795E+02  0.32179417489E+02 -0.84544816378E+01  0.40659142946E+02  0.00000000000E+00 0. -1.
         11    1    3    3    0    0  0.10766210780E+02 -0.13723311538E+01  0.13275173974E+01  0.10934207335E+02  0.51100000000E-03 0. -1.
        -11    1    3    3    0    0  0.14349561329E+02 -0.89782662176E+01  0.46666500394E+01  0.17558382541E+02  0.51100000000E-03 0.  1.
        -12    1    3    3    0    0 -0.17454333138E+01 -0.21828820117E+02  0.24603142010E+01  0.22036267178E+02  0.00000000000E+00 0.  1.
</event>
<event>
 7    1  0.3694436E-011  0.5052885E+02  0.7816164E-02  0.1300439E+00
        -11   -1    0    0    0    0  0.00000000000E+00  0.00000000000E+00  0.45593999997E+02  0.45594000000E+02  0.51100000000E-03 0. -1.
         11   -1    0    0    0    0 -0.00000000000E+00 -0.00000000000E+00 -0.45593999997E+02  0.45594000000E+02  0.51100000000E-03 0.  1.
    9900012    2    1    2    0    0  0.17829334859E+02  0.15170289312E+02 -0.33243705233E+02  0.50528846087E+02  0.29999958166E+02 0.  0.
         12    1    1    2    0    0 -0.17829334859E+02 -0.15170289312E+02  0.33243705233E+02  0.40659153913E+02  0.00000000000E+00 0. -1.
         11    1    3    3    0    0 -0.67298533586E+00  0.63147184345E+01  0.17591531614E+01  0.65896280832E+01  0.51100000000E-03 0. -1.
        -11    1    3    3    0    0  0.90588268656E+01  0.13280042360E+02 -0.19817419957E+02  0.25517680210E+02  0.51100000000E-03 0.  1.
        -12    1    3    3    0    0  0.94434933288E+01 -0.44244714828E+01 -0.15185438437E+02  0.18421537793E+02  0.00000000000E+00 0.  1.
</event>
<event>
 7    1  0.2680581E-011  0.5052886E+02  0.7816164E-02  0.1300439E+00
        -11   -1    0    0    0    0  0.00000000000E+00  0.00000000000E+00  0.45593999997E+02  0.45594000000E+02  0.51100000000E-03 0. -1.
         11   -1    0    0    0    0 -0.00000000000E+00 -0.00000000000E+00 -0.45593999997E+02  0.45594000000E+02  0.51100000000E-03 0.  1.
    9900012    2    1    2    0    0 -0.24872138664E+02  0.19964073571E+02 -0.25218612861E+02  0.50528856503E+02  0.29999989827E+02 0.  0.
         12    1    1    2    0    0  0.24872138664E+02 -0.19964073571E+02  0.25218612861E+02  0.40659143497E+02  0.00000000000E+00 0. -1.
         11    1    3    3    0    0 -0.50615278173E+00 -0.18368625194E+01  0.24993485898E+01  0.31427691910E+01  0.51100000000E-03 0. -1.
        -11    1    3    3    0    0 -0.17448100975E+02  0.16377926167E+02 -0.29931162139E+02  0.38321627841E+02  0.51100000000E-03 0.  1.
         12    1    3    3    0    0 -0.69178849069E+01  0.54230099235E+01  0.22132006879E+01  0.90644594710E+01  0.00000000000E+00 0. -1.
</event>
<event>
 7    1  0.2680581E-011  0.5052884E+02  0.7816164E-02  0.1300439E+00
        -11   -1    0    0    0    0  0.00000000000E+00  0.00000000000E+00  0.45593999997E+02  0.45594000000E+02  0.51100000000E-03 0.  1.
         11   -1    0    0    0    0 -0.00000000000E+00 -0.00000000000E+00 -0.45593999997E+02  0.45594000000E+02  0.51100000000E-03 0. -1.
    9900012    2    1    2    0    0 -0.30074043232E+01  0.24996305632E+02  0.31926594787E+02  0.50528840753E+02  0.29999941952E+02 0.  0.
         12    1    1    2    0    0  0.30074043232E+01 -0.24996305632E+02 -0.31926594787E+02  0.40659159247E+02  0.00000000000E+00 0. -1.
         11    1    3    3    0    0 -0.42951277650E+01  0.24042384927E+01 -0.14673178766E+01  0.51362931438E+01  0.51100000000E-03 0. -1.
        -11    1    3    3    0    0  0.22106586155E+01  0.21809808521E+02  0.14108506355E+02  0.26069229200E+02  0.51100000000E-03 0.  1.
         12    1    3    3    0    0 -0.92293517375E+00  0.78225861871E+00  0.19285406308E+02  0.19323318409E+02  0.00000000000E+00 0. -1.
</event>
<event>
 7    1  0.2680581E-011  0.5052885E+02  0.7816164E-02  0.1300439E+00
        -11   -1    0    0    0    0  0.00000000000E+00  0.00000000000E+00  0.45593999997E+02  0.45594000000E+02  0.51100000000E-03 0. -1.
         11   -1    0    0    0    0 -0.00000000000E+00 -0.00000000000E+00 -0.45593999997E+02  0.45594000000E+02  0.51100000000E-03 0.  1.
    9900012    2    1    2    0    0 -0.79496124704E+01  0.96575682410E+01 -0.38687223326E+02  0.50528853287E+02  0.29999980050E+02 0.  0.
         12    1    1    2    0    0  0.79496124704E+01 -0.96575682410E+01  0.38687223326E+02  0.40659146713E+02  0.00000000000E+00 0. -1.
         11    1    3    3    0    0 -0.52252254303E+01  0.27123123686E+01 -0.25128226739E+01  0.64010856293E+01  0.51100000000E-03 0. -1.
        -11    1    3    3    0    0 -0.11446741807E+02  0.89524692579E+01 -0.29753099238E+02  0.33112256316E+02  0.51100000000E-03 0.  1.
         12    1    3    3    0    0  0.87223547668E+01 -0.20072133854E+01 -0.64213014142E+01  0.11015511341E+02  0.00000000000E+00 0. -1.
</event>
<event>
 7    1  0.2680581E-011  0.5052886E+02  0.7816164E-02  0.1300439E+00
        -11   -1    0    0    0    0  0.00000000000E+00  0.00000000000E+00  0.45593999997E+02  0.45594000000E+02  0.51100000000E-03 0.  1.
         11   -1    0    0    0    0 -0.00000000000E+00 -0.00000000000E+00 -0.45593999997E+02  0.45594000000E+02  0.51100000000E-03 0. -1.
    9900012    2    1    2    0    0  0.24568877217E+02  0.49770626365E+00  0.32392723976E+02  0.50528855816E+02  0.29999987739E+02 0.  0.
         12    1    1    2    0    0 -0.24568877217E+02 -0.49770626365E+00 -0.32392723976E+02  0.40659144184E+02  0.00000000000E+00 0. -1.
         11    1    3    3    0    0  0.72765892411E+01  0.24356781782E+01  0.56565967939E+01  0.95330145663E+01  0.51100000000E-03 0. -1.
        -11    1    3    3    0    0  0.19939852648E+02 -0.11684906375E+01  0.71478769133E+01  0.21214505382E+02  0.51100000000E-03 0.  1.
         12    1    3    3    0    0 -0.26475646724E+01 -0.76948127708E+00  0.19588250268E+02  0.19781335868E+02  0.00000000000E+00 0. -1.
</event>
<event>
 7    1  0.2680581E-011  0.5052887E+02  0.7816164E-02  0.1300439E+00
        -11   -1    0    0    0    0  0.00000000000E+00  0.00000000000E+00  0.45593999997E+02  0.45594000000E+02  0.51100000000E-03 0.  1.
         11   -1    0    0    0    0 -0.00000000000E+00 -0.00000000000E+00 -0.45593999997E+02  0.45594000000E+02  0.51100000000E-03 0. -1.
    9900012    2    1    2    0    0 -0.17962103693E+02  0.36320870704E+02  0.33647723457E+01  0.50528874201E+02  0.30000043622E+02 0.  0.
         12    1    1    2    0    0  0.17962103693E+02 -0.36320870704E+02 -0.33647723457E+01  0.40659125799E+02  0.00000000000E+00 0. -1.
         11    1    3    3    0    0 -0.36764791604E+01  0.25310676852E+02  0.19981802904E+01  0.25654231356E+02  0.51100000000E-03 0. -1.
        -11    1    3    3    0    0 -0.14938884959E+02  0.10474327803E+02 -0.46263286194E+01  0.18822453174E+02  0.51100000000E-03 0.  1.
         12    1    3    3    0    0  0.65326042573E+00  0.53586604924E+00  0.59929206747E+01  0.60521896715E+01  0.00000000000E+00 0. -1.
</event>
<event>
 7    1  0.2680581E-011  0.5052894E+02  0.7816164E-02  0.1300439E+00
        -11   -1    0    0    0    0  0.00000000000E+00  0.00000000000E+00  0.45593999997E+02  0.45594000000E+02  0.51100000000E-03 0.  1.
         11   -1    0    0    0    0 -0.00000000000E+00 -0.00000000000E+00 -0.45593999997E+02  0.45594000000E+02  0.51100000000E-03 0. -1.
    9900012    2    1    2    0    0  0.22410844336E+02 -0.14099623296E+02  0.30856340141E+02  0.50528941380E+02  0.30000247817E+02 0.  0.
         12    1    1    2    0    0 -0.22410844336E+02  0.14099623296E+02 -0.30856340141E+02  0.40659058620E+02  0.00000000000E+00 0. -1.
         11    1    3    3    0    0  0.94908050039E+01  0.34636585812E+01  0.67604247252E+01  0.12156300963E+02  0.51100000000E-03 0. -1.
        -11    1    3    3    0    0  0.14261257156E+02 -0.56716602938E+01  0.21001879511E+02  0.26012115051E+02  0.51100000000E-03 0.  1.
        -12    1    3    3    0    0 -0.13412178233E+01 -0.11891621583E+02  0.30940359053E+01  0.12360525366E+02  0.00000000000E+00 0.  1.
</event>
<event>
 7    1  0.2680581E-011  0.5052885E+02  0.7816164E-02  0.1300439E+00
        -11   -1    0    0    0    0  0.00000000000E+00  0.00000000000E+00  0.45593999997E+02  0.45594000000E+02  0.51100000000E-03 0.  1.
         11   -1    0    0    0    0 -0.00000000000E+00 -0.00000000000E+00 -0.45593999997E+02  0.45594000000E+02  0.51100000000E-03 0. -1.
    9900012    2    1    2    0    0  0.16228841698E+02  0.33419625645E+02  0.16520272629E+02  0.50528854794E+02  0.29999984633E+02 0.  0.
         12    1    1    2    0    0 -0.16228841698E+02 -0.33419625645E+02 -0.16520272629E+02  0.40659145206E+02  0.00000000000E+00 0. -1.
         11    1    3    3    0    0  0.25664564940E+01 -0.33973765141E+01 -0.24448330751E+01  0.49097937982E+01  0.51100000000E-03 0. -1.
        -11    1    3    3    0    0  0.59121599553E+00  0.15660160221E+02  0.26968645650E+01  0.15901673914E+02  0.51100000000E-03 0.  1.
        -12    1    3    3    0    0  0.13071169208E+02  0.21156841938E+02  0.16268241139E+02  0.29717387083E+02  0.00000000000E+00 0.  1.
</event>
<event>
 7    1  0.2680581E-011  0.5052886E+02  0.7816164E-02  0.1300439E+00
        -11   -1    0    0    0    0  0.00000000000E+00  0.00000000000E+00  0.45593999997E+02  0.45594000000E+02  0.51100000000E-03 0. -1.
         11   -1    0    0    0    0 -0.00000000000E+00 -0.00000000000E+00 -0.45593999997E+02  0.45594000000E+02  0.51100000000E-03 0.  1.
    9900012    2    1    2    0    0  0.17188556022E+02 -0.15477408410E+00 -0.36846916098E+02  0.50528860326E+02  0.30000001447E+02 0.  0.
         12    1    1    2    0    0 -0.17188556022E+02  0.15477408410E+00  0.36846916098E+02  0.40659139674E+02  0.00000000000E+00 0. -1.
         11    1    3    3    0    0  0.12020873300E+02  0.10269487099E+02 -0.10423180614E+02  0.18936907206E+02  0.51100000000E-03 0.  1.
        -11    1    3    3    0    0  0.18722882550E+01 -0.86928266139E+01 -0.57580576032E+01  0.10593673842E+02  0.51100000000E-03 0. -1.
        -12    1    3    3    0    0  0.32953944673E+01 -0.17314345694E+01 -0.20665677881E+02  0.20998279278E+02  0.00000000000E+00 0.  1.
</event>
<event>
 7    1  0.2680581E-011  0.5052886E+02  0.7816164E-02  0.1300439E+00
        -11   -1    0    0    0    0  0.00000000000E+00  0.00000000000E+00  0.45593999997E+02  0.45594000000E+02  0.51100000000E-03 0. -1.
         11   -1    0    0    0    0 -0.00000000000E+00 -0.00000000000E+00 -0.45593999997E+02  0.45594000000E+02  0.51100000000E-03 0.  1.
    9900012    2    1    2    0    0 -0.16711242966E+02 -0.33599549559E+02 -0.15651529808E+02  0.50528858871E+02  0.29999997023E+02 0.  0.
         12    1    1    2    0    0  0.16711242966E+02  0.33599549559E+02  0.15651529808E+02  0.40659141129E+02  0.00000000000E+00 0. -1.
         11    1    3    3    0    0 -0.40226533681E+01 -0.12097176688E+02 -0.12811453169E+02  0.18073648124E+02  0.51100000000E-03 0. -1.
        -11    1    3    3    0    0  0.53321283955E+01 -0.60509872449E+01 -0.32966040444E+01  0.87128432989E+01  0.51100000000E-03 0.  1.
        -12    1    3    3    0    0 -0.18020717993E+02 -0.15451385626E+02  0.45652740525E+00  0.23742367448E+02  0.00000000000E+00 0.  1.
</event>
<event>
 7    1  0.2680581E-011  0.5052886E+02  0.7816164E-02  0.1300439E+00
        -11   -1    0    0    0    0  0.00000000000E+00  0.00000000000E+00  0.45593999997E+02  0.45594000000E+02  0.51100000000E-03 0.  1.
         11   -1    0    0    0    0 -0.00000000000E+00 -0.00000000000E+00 -0.45593999997E+02  0.45594000000E+02  0.51100000000E-03 0. -1.
    9900012    2    1    2    0    0 -0.12073193786E+02 -0.34912745446E+02  0.16985396297E+02  0.50528862157E+02  0.30000007012E+02 0.  0.
         12    1    1    2    0    0  0.12073193786E+02  0.34912745446E+02 -0.16985396297E+02  0.40659137843E+02  0.00000000000E+00 0. -1.
         11    1    3    3    0    0  0.52729895241E+01 -0.24081660742E+01  0.46865461041E+01  0.74543542315E+01  0.51100000000E-03 0. -1.
        -11    1    3    3    0    0 -0.13448322079E+02 -0.21985497222E+02  0.17039386992E+02  0.30895957084E+02  0.51100000000E-03 0.  1.
         12    1    3    3    0    0 -0.38978612309E+01 -0.10519082150E+02 -0.47405367988E+01  0.12178550841E+02  0.00000000000E+00 0. -1.
</event>
<event>
 7    1  0.2680581E-011  0.5052886E+02  0.7816164E-02  0.1300439E+00
        -11   -1    0    0    0    0  0.00000000000E+00  0.00000000000E+00  0.45593999997E+02  0.45594000000E+02  0.51100000000E-03 0.  1.
         11   -1    0    0    0    0 -0.00000000000E+00 -0.00000000000E+00 -0.45593999997E+02  0.45594000000E+02  0.51100000000E-03 0. -1.
    9900012    2    1    2    0    0  0.39801964598E+02 -0.71689438622E+01  0.41923482958E+01  0.50528856794E+02  0.29999990712E+02 0.  0.
         12    1    1    2    0    0 -0.39801964598E+02  0.71689438622E+01 -0.41923482958E+01  0.40659143206E+02  0.00000000000E+00 0. -1.
         11    1    3    3    0    0  0.58330749508E+01  0.67697688885E+01  0.22513561447E+01  0.92153751382E+01  0.51100000000E-03 0. -1.
        -11    1    3    3    0    0  0.29209374683E+02 -0.55100083232E+01 -0.39442924220E+01  0.29985083025E+02  0.51100000000E-03 0.  1.
         12    1    3    3    0    0  0.47595149648E+01 -0.84287044276E+01  0.58852845731E+01  0.11328398631E+02  0.00000000000E+00 0. -1.
</event>
<event>
 7    1  0.2680581E-011  0.5052885E+02  0.7816164E-02  0.1300439E+00
        -11   -1    0    0    0    0  0.00000000000E+00  0.00000000000E+00  0.45593999997E+02  0.45594000000E+02  0.51100000000E-03 0.  1.
         11   -1    0    0    0    0 -0.00000000000E+00 -0.00000000000E+00 -0.45593999997E+02  0.45594000000E+02  0.51100000000E-03 0. -1.
    9900012    2    1    2    0    0  0.96635134349E+01 -0.71310497138E+01  0.38844961730E+02  0.50528850799E+02  0.29999972489E+02 0.  0.
         12    1    1    2    0    0 -0.96635134349E+01  0.71310497138E+01 -0.38844961730E+02  0.40659149201E+02  0.00000000000E+00 0. -1.
         11    1    3    3    0    0  0.10530364283E+02 -0.63242971922E+01  0.38531958879E+01  0.12873710643E+02  0.51100000000E-03 0. -1.
        -11    1    3    3    0    0 -0.16789271539E+01  0.29198331643E+01  0.10908722375E+01  0.35403706861E+01  0.51100000000E-03 0.  1.
         12    1    3    3    0    0  0.81207630588E+00 -0.37265856859E+01  0.33900893605E+02  0.34114769470E+02  0.00000000000E+00 0. -1.
</event>
<event>
 7    1  0.2680581E-011  0.5052889E+02  0.7816164E-02  0.1300439E+00
        -11   -1    0    0    0    0  0.00000000000E+00  0.00000000000E+00  0.45593999997E+02  0.45594000000E+02  0.51100000000E-03 0. -1.
         11   -1    0    0    0    0 -0.00000000000E+00 -0.00000000000E+00 -0.45593999997E+02  0.45594000000E+02  0.51100000000E-03 0.  1.
    9900012    2    1    2    0    0 -0.20142104167E+02  0.96209254239E+01 -0.33983773167E+02  0.50528887799E+02  0.30000084954E+02 0.  0.
         12    1    1    2    0    0  0.20142104167E+02 -0.96209254239E+01  0.33983773167E+02  0.40659112201E+02  0.00000000000E+00 0. -1.
         11    1    3    3    0    0  0.19670619729E+01  0.11354303082E+01  0.31494159536E+00  0.22929725815E+01  0.51100000000E-03 0. -1.
        -11    1    3    3    0    0 -0.16303185780E+02  0.11685064315E+02 -0.88251261750E+01  0.21913864261E+02  0.51100000000E-03 0.  1.
         12    1    3    3    0    0 -0.58059803608E+01 -0.31995691992E+01 -0.25473588587E+02  0.26322050956E+02  0.00000000000E+00 0. -1.
</event>
<event>
 7    1  0.2680581E-011  0.5052886E+02  0.7816164E-02  0.1300439E+00
        -11   -1    0    0    0    0  0.00000000000E+00  0.00000000000E+00  0.45593999997E+02  0.45594000000E+02  0.51100000000E-03 0.  1.
         11   -1    0    0    0    0 -0.00000000000E+00 -0.00000000000E+00 -0.45593999997E+02  0.45594000000E+02  0.51100000000E-03 0. -1.
    9900012    2    1    2    0    0 -0.54454452381E+01 -0.60427233190E+01  0.39837143641E+02  0.50528863358E+02  0.30000010664E+02 0.  0.
         12    1    1    2    0    0  0.54454452381E+01  0.60427233190E+01 -0.39837143641E+02  0.40659136642E+02  0.00000000000E+00 0. -1.
         11    1    3    3    0    0 -0.64576743356E+01 -0.89954785129E+01  0.87470617025E+01  0.14111388315E+02  0.51100000000E-03 0. -1.
        -11    1    3    3    0    0 -0.42646505400E+00  0.70064662389E+01  0.24175408318E+01  0.74240787667E+01  0.51100000000E-03 0.  1.
         12    1    3    3    0    0  0.14386941515E+01 -0.40537110451E+01  0.28672541107E+02  0.28993396276E+02  0.00000000000E+00 0. -1.
</event>
<event>
 7    1  0.2680581E-011  0.5052886E+02  0.7816164E-02  0.1300439E+00
        -11   -1    0    0    0    0  0.00000000000E+00  0.00000000000E+00  0.45593999997E+02  0.45594000000E+02  0.51100000000E-03 0.  1.
         11   -1    0    0    0    0 -0.00000000000E+00 -0.00000000000E+00 -0.45593999997E+02  0.45594000000E+02  0.51100000000E-03 0. -1.
    9900012    2    1    2    0    0  0.69061040922E+01  0.38765204404E+02 -0.10135577430E+02  0.50528864790E+02  0.30000015016E+02 0.  0.
         12    1    1    2    0    0 -0.69061040922E+01 -0.38765204404E+02  0.10135577430E+02  0.40659135210E+02  0.00000000000E+00 0. -1.
         11    1    3    3    0    0 -0.51682559757E+00  0.91360419971E+01  0.61530671357E+00  0.91713125933E+01  0.51100000000E-03 0. -1.
        -11    1    3    3    0    0  0.17068972565E+02  0.20201294343E+02 -0.72292598581E+01  0.27417226627E+02  0.51100000000E-03 0.  1.
         12    1    3    3    0    0 -0.96460428757E+01  0.94278680640E+01 -0.35216242850E+01  0.13940325570E+02  0.00000000000E+00 0. -1.
</event>
<event>
 7    1  0.2680581E-011  0.5052884E+02  0.7816164E-02  0.1300439E+00
        -11   -1    0    0    0    0  0.00000000000E+00  0.00000000000E+00  0.45593999997E+02  0.45594000000E+02  0.51100000000E-03 0.  1.
         11   -1    0    0    0    0 -0.00000000000E+00 -0.00000000000E+00 -0.45593999997E+02  0.45594000000E+02  0.51100000000E-03 0. -1.
    9900012    2    1    2    0    0 -0.29141999555E+02 -0.27109137759E+02 -0.83069682081E+01  0.50528841021E+02  0.29999942767E+02 0.  0.
         12    1    1    2    0    0  0.29141999555E+02  0.27109137759E+02  0.83069682081E+01  0.40659158979E+02  0.00000000000E+00 0. -1.
         11    1    3    3    0    0 -0.10187843555E+02  0.97395825735E+00 -0.30877976690E+01  0.10689960041E+02  0.51100000000E-03 0. -1.
        -11    1    3    3    0    0 -0.90803532859E+01 -0.72337719273E+00 -0.57046030641E+01  0.10747957329E+02  0.51100000000E-03 0.  1.
         12    1    3    3    0    0 -0.98738027143E+01 -0.27359718823E+02  0.48543252501E+00  0.29090923651E+02  0.00000000000E+00 0. -1.
</event>
<event>
 7    1  0.2680581E-011  0.5052886E+02  0.7816164E-02  0.1300439E+00
        -11   -1    0    0    0    0  0.00000000000E+00  0.00000000000E+00  0.45593999997E+02  0.45594000000E+02  0.51100000000E-03 0. -1.
         11   -1    0    0    0    0 -0.00000000000E+00 -0.00000000000E+00 -0.45593999997E+02  0.45594000000E+02  0.51100000000E-03 0.  1.
    9900012    2    1    2    0    0 -0.33960344762E+02  0.13810541379E+02 -0.17582079316E+02  0.50528861020E+02  0.30000003557E+02 0.  0.
         12    1    1    2    0    0  0.33960344762E+02 -0.13810541379E+02  0.17582079316E+02  0.40659138980E+02  0.00000000000E+00 0. -1.
         11    1    3    3    0    0 -0.28653011051E+01  0.11529082138E+02 -0.50608886199E+01  0.12912872618E+02  0.51100000000E-03 0. -1.
        -11    1    3    3    0    0 -0.14092037432E+02  0.57473435560E+01 -0.13348654322E+02  0.20243617498E+02  0.51100000000E-03 0.  1.
        -12    1    3    3    0    0 -0.17003006225E+02 -0.34658843157E+01  0.82746362614E+00  0.17372370904E+02  0.00000000000E+00 0.  1.
</event>
<event>
 7    1  0.2680581E-011  0.5052887E+02  0.7816164E-02  0.1300439E+00
        -11   -1    0    0    0    0  0.00000000000E+00  0.00000000000E+00  0.45593999997E+02  0.45594000000E+02  0.51100000000E-03 0.  1.
         11   -1    0    0    0    0 -0.00000000000E+00 -0.00000000000E+00 -0.45593999997E+02  0.45594000000E+02  0.51100000000E-03 0. -1.
    9900012    2    1    2    0    0 -0.27150754828E+02 -0.40622193053E+01  0.29991662480E+02  0.50528869024E+02  0.30000027885E+02 0.  0.
         12    1    1    2    0    0  0.27150754828E+02  0.40622193053E+01 -0.29991662480E+02  0.40659130976E+02  0.00000000000E+00 0. -1.
         11    1    3    3    0    0 -0.14396887577E+02 -0.38531484395E+00 -0.11391871222E+01  0.14447026926E+02  0.51100000000E-03 0. -1.
        -11    1    3    3    0    0  0.19501134516E+00 -0.41276214435E+01  0.29871064940E+01  0.50988325795E+01  0.51100000000E-03 0.  1.
        -12    1    3    3    0    0 -0.12948878596E+02  0.45071698213E+00  0.28143743108E+02  0.30983009518E+02  0.00000000000E+00 0.  1.
</event>
<event>
 7    1  0.2680581E-011  0.5052885E+02  0.7816164E-02  0.1300439E+00
        -11   -1    0    0    0    0  0.00000000000E+00  0.00000000000E+00  0.45593999997E+02  0.45594000000E+02  0.51100000000E-03 0. -1.
         11   -1    0    0    0    0 -0.00000000000E+00 -0.00000000000E+00 -0.45593999997E+02  0.45594000000E+02  0.51100000000E-03 0.  1.
    9900012    2    1    2    0    0 -0.18619646993E+02 -0.14868747754E+02 -0.32945339553E+02  0.50528852048E+02  0.29999976285E+02 0.  0.
         12    1    1    2    0    0  0.18619646993E+02  0.14868747754E+02  0.32945339553E+02  0.40659147952E+02  0.00000000000E+00 0. -1.
         11    1    3    3    0    0 -0.10631817505E+02  0.83306742906E+00 -0.12052688699E+01  0.10732297895E+02  0.51100000000E-03 0. -1.
        -11    1    3    3    0    0 -0.11191855013E+02 -0.82175885086E+01 -0.11668382362E+02  0.18136634934E+02  0.51100000000E-03 0.  1.
         12    1    3    3    0    0  0.32040255253E+01 -0.74842266747E+01 -0.20071688321E+02  0.21659919218E+02  0.00000000000E+00 0. -1.
</event>
<event>
 7    1  0.2680581E-011  0.5052888E+02  0.7816164E-02  0.1300439E+00
        -11   -1    0    0    0    0  0.00000000000E+00  0.00000000000E+00  0.45593999997E+02  0.45594000000E+02  0.51100000000E-03 0. -1.
         11   -1    0    0    0    0 -0.00000000000E+00 -0.00000000000E+00 -0.45593999997E+02  0.45594000000E+02  0.51100000000E-03 0.  1.
    9900012    2    1    2    0    0 -0.37760138481E+02  0.59384253709E+01 -0.13858958691E+02  0.50528884294E+02  0.30000074300E+02 0.  0.
         12    1    1    2    0    0  0.37760138481E+02 -0.59384253709E+01  0.13858958691E+02  0.40659115706E+02  0.00000000000E+00 0. -1.
         11    1    3    3    0    0 -0.58099410268E+01 -0.33969245549E+01 -0.53306690488E+00  0.67511978014E+01  0.51100000000E-03 0. -1.
        -11    1    3    3    0    0 -0.25219248753E+02  0.77800034375E+01  0.24995302163E+01  0.26510122835E+02  0.51100000000E-03 0.  1.
        -12    1    3    3    0    0 -0.67309487009E+01  0.15553464884E+01 -0.15825422002E+02  0.17267563657E+02  0.00000000000E+00 0.  1.
</event>
<event>
 7    1  0.2680581E-011  0.5052886E+02  0.7816164E-02  0.1300439E+00
        -11   -1    0    0    0    0  0.00000000000E+00  0.00000000000E+00  0.45593999997E+02  0.45594000000E+02  0.51100000000E-03 0.  1.
         11   -1    0    0    0    0 -0.00000000000E+00 -0.00000000000E+00 -0.45593999997E+02  0.45594000000E+02  0.51100000000E-03 0. -1.
    9900012    2    1    2    0    0  0.15201641730E+02  0.22064731289E+02  0.30581422143E+02  0.50528860087E+02  0.30000000721E+02 0.  0.
         12    1    1    2    0    0 -0.15201641730E+02 -0.22064731289E+02 -0.30581422143E+02  0.40659139913E+02  0.00000000000E+00 0. -1.
         11    1    3    3    0    0  0.30551844599E+01 -0.18618558332E+01  0.13342724512E+01  0.38185000279E+01  0.51100000000E-03 0. -1.
        -11    1    3    3    0    0  0.19661982323E+02  0.19307241622E+02  0.21170706161E+02  0.34749991763E+02  0.51100000000E-03 0.  1.
         12    1    3    3    0    0 -0.75155250530E+01  0.46193454999E+01  0.80764435312E+01  0.11960368296E+02  0.00000000000E+00 0. -1.
</event>
<event>
 7    1  0.2680581E-011  0.5052890E+02  0.7816164E-02  0.1300439E+00
        -11   -1    0    0    0    0  0.00000000000E+00  0.00000000000E+00  0.45593999997E+02  0.45594000000E+02  0.51100000000E-03 0.  1.
         11   -1    0    0    0    0 -0.00000000000E+00 -0.00000000000E+00 -0.45593999997E+02  0.45594000000E+02  0.51100000000E-03 0. -1.
    9900012    2    1    2    0    0  0.38390049131E+02  0.13389628248E+02 -0.28990885817E+00  0.50528904289E+02  0.30000135076E+02 0.  0.
         12    1    1    2    0    0 -0.38390049131E+02 -0.13389628248E+02  0.28990885817E+00  0.40659095711E+02  0.00000000000E+00 0. -1.
         11    1    3    3    0    0  0.63042861369E+01 -0.58157057771E+01  0.17757233934E+01  0.87589754659E+01  0.51100000000E-03 0. -1.
        -11    1    3    3    0    0  0.33082932895E+02  0.17187182191E+02 -0.54785617049E+01  0.37681485098E+02  0.51100000000E-03 0.  1.
         12    1    3    3    0    0 -0.99716990056E+00  0.20181518338E+01  0.34129294533E+01  0.40884437245E+01  0.00000000000E+00 0. -1.
</event>
<event>
 7    1  0.2680581E-011  0.5052884E+02  0.7816164E-02  0.1300439E+00
        -11   -1    0    0    0    0  0.00000000000E+00  0.00000000000E+00  0.45593999997E+02  0.45594000000E+02  0.51100000000E-03 0.  1.
         11   -1    0    0    0    0 -0.00000000000E+00 -0.00000000000E+00 -0.45593999997E+02  0.45594000000E+02  0.51100000000E-03 0. -1.
    9900012    2    1    2    0    0  0.17789885698E+01  0.40613245509E+02  0.75271929980E+00  0.50528842391E+02  0.29999946931E+02 0.  0.
         12    1    1    2    0    0 -0.17789885698E+01 -0.40613245509E+02 -0.75271929980E+00  0.40659157609E+02  0.00000000000E+00 0. -1.
         11    1    3    3    0    0 -0.24147655984E+01  0.25504803916E+01 -0.71497664916E+01  0.79658774952E+01  0.51100000000E-03 0. -1.
        -11    1    3    3    0    0  0.40108193362E+01  0.63642585976E+01  0.78379269127E+01  0.10863864772E+02  0.51100000000E-03 0.  1.
         12    1    3    3    0    0  0.18293483206E+00  0.31698506520E+02  0.64558878609E-01  0.31699100123E+02  0.00000000000E+00 0. -1.
</event>
<event>
 7    1  0.2680581E-011  0.5052886E+02  0.7816164E-02  0.1300439E+00
        -11   -1    0    0    0    0  0.00000000000E+00  0.00000000000E+00  0.45593999997E+02  0.45594000000E+02  0.51100000000E-03 0. -1.
         11   -1    0    0    0    0 -0.00000000000E+00 -0.00000000000E+00 -0.45593999997E+02  0.45594000000E+02  0.51100000000E-03 0.  1.
    9900012    2    1    2    0    0  0.94812240374E+01  0.10653513606E+02 -0.38075909498E+02  0.50528857787E+02  0.29999993729E+02 0.  0.
         12    1    1    2    0    0 -0.94812240374E+01 -0.10653513606E+02  0.38075909498E+02  0.40659142213E+02  0.00000000000E+00 0. -1.
         11    1    3    3    0    0  0.13203720869E+02  0.70523027269E+01 -0.15592912204E+02  0.21615090326E+02  0.51100000000E-03 0. -1.
        -11    1    3    3    0    0  0.16029683865E+01  0.33686580411E+01  0.17362511255E+01  0.41148429955E+01  0.51100000000E-03 0.  1.
         12    1    3    3    0    0 -0.53254652185E+01  0.23255283851E+00 -0.24219248419E+02  0.24798924465E+02  0.00000000000E+00 0. -1.
</event>
<event>
 7    1  0.2680581E-011  0.5052882E+02  0.7816164E-02  0.1300439E+00
        -11   -1    0    0    0    0  0.00000000000E+00  0.00000000000E+00  0.45593999997E+02  0.45594000000E+02  0.51100000000E-03 0.  1.
         11   -1    0    0    0    0 -0.00000000000E+00 -0.00000000000E+00 -0.45593999997E+02  0.45594000000E+02  0.51100000000E-03 0. -1.
    9900012    2    1    2    0    0  0.24171789926E+02 -0.32312855507E+02 -0.49772248032E+01  0.50528821135E+02  0.29999882322E+02 0.  0.
         12    1    1    2    0    0 -0.24171789926E+02  0.32312855507E+02  0.49772248032E+01  0.40659178865E+02  0.00000000000E+00 0. -1.
         11    1    3    3    0    0 -0.21558956946E+01 -0.11843844886E+02 -0.21507796403E+01  0.12229080148E+02  0.51100000000E-03 0. -1.
        -11    1    3    3    0    0 -0.24566378543E+01 -0.36676015205E+01  0.15630535010E+01  0.46828951481E+01  0.51100000000E-03 0.  1.
        -12    1    3    3    0    0  0.28784323475E+02 -0.16801409100E+02 -0.43894986639E+01  0.33616845839E+02  0.00000000000E+00 0.  1.
</event>
<event>
 7    1  0.2680581E-011  0.5052885E+02  0.7816164E-02  0.1300439E+00
        -11   -1    0    0    0    0  0.00000000000E+00  0.00000000000E+00  0.45593999997E+02  0.45594000000E+02  0.51100000000E-03 0.  1.
         11   -1    0    0    0    0 -0.00000000000E+00 -0.00000000000E+00 -0.45593999997E+02  0.45594000000E+02  0.51100000000E-03 0. -1.
    9900012    2    1    2    0    0  0.24708938832E+02 -0.30534925860E+02  0.10500145321E+02  0.50528850879E+02  0.29999972732E+02 0.  0.
         12    1    1    2    0    0 -0.24708938832E+02  0.30534925860E+02 -0.10500145321E+02  0.40659149121E+02  0.00000000000E+00 0. -1.
         11    1    3    3    0    0 -0.30872528782E+01 -0.16397726801E+01 -0.24509323717E+00  0.35042910456E+01  0.51100000000E-03 0. -1.
        -11    1    3    3    0    0  0.15008845627E+02 -0.13896103963E+01  0.64269805192E+01  0.16386047204E+02  0.51100000000E-03 0.  1.
         12    1    3    3    0    0  0.12787346083E+02 -0.27505542783E+02  0.43182580391E+01  0.30638512630E+02  0.00000000000E+00 0. -1.
</event>
<event>
 7    1  0.2680581E-011  0.5052886E+02  0.7816164E-02  0.1300439E+00
        -11   -1    0    0    0    0  0.00000000000E+00  0.00000000000E+00  0.45593999997E+02  0.45594000000E+02  0.51100000000E-03 0. -1.
         11   -1    0    0    0    0 -0.00000000000E+00 -0.00000000000E+00 -0.45593999997E+02  0.45594000000E+02  0.51100000000E-03 0.  1.
    9900012    2    1    2    0    0  0.21608404271E+02 -0.31524421491E+02 -0.13872750329E+02  0.50528862193E+02  0.30000007122E+02 0.  0.
         12    1    1    2    0    0 -0.21608404271E+02  0.31524421491E+02  0.13872750329E+02  0.40659137807E+02  0.00000000000E+00 0. -1.
         11    1    3    3    0    0 -0.60818904977E+00 -0.20546525822E+02 -0.65067568277E+01  0.21560786209E+02  0.51100000000E-03 0. -1.
        -11    1    3    3    0    0  0.81266128384E+01 -0.98570528461E+01 -0.75366667254E+01  0.14832554488E+02  0.51100000000E-03 0.  1.
        -12    1    3    3    0    0  0.14089980483E+02 -0.11208428238E+01  0.17067322387E+00  0.14135521497E+02  0.00000000000E+00 0.  1.
</event>
<event>
 7    1  0.2680581E-011  0.5052886E+02  0.7816164E-02  0.1300439E+00
        -11   -1    0    0    0    0  0.00000000000E+00  0.00000000000E+00  0.45593999997E+02  0.45594000000E+02  0.51100000000E-03 0. -1.
         11   -1    0    0    0    0 -0.00000000000E+00 -0.00000000000E+00 -0.45593999997E+02  0.45594000000E+02  0.51100000000E-03 0.  1.
    9900012    2    1    2    0    0 -0.24116610275E+02 -0.21899219965E+02 -0.24330611118E+02  0.50528863713E+02  0.30000011742E+02 0.  0.
         12    1    1    2    0    0  0.24116610275E+02  0.21899219965E+02  0.24330611118E+02  0.40659136287E+02  0.00000000000E+00 0. -1.
         11    1    3    3    0    0 -0.11463238928E+02  0.12325579794E+01 -0.17132912147E+01  0.11655917508E+02  0.51100000000E-03 0. -1.
        -11    1    3    3    0    0 -0.10193888377E+02 -0.35354233172E+01 -0.13034570128E+02  0.16920833223E+02  0.51100000000E-03 0.  1.
         12    1    3    3    0    0 -0.24594829701E+01 -0.19596354627E+02 -0.95827497750E+01  0.21952112983E+02  0.00000000000E+00 0. -1.
</event>
<event>
 7    1  0.2680581E-011  0.5052887E+02  0.7816164E-02  0.1300439E+00
        -11   -1    0    0    0    0  0.00000000000E+00  0.00000000000E+00  0.45593999997E+02  0.45594000000E+02  0.51100000000E-03 0.  1.
         11   -1    0    0    0    0 -0.00000000000E+00 -0.00000000000E+00 -0.45593999997E+02  0.45594000000E+02  0.51100000000E-03 0. -1.
    9900012    2    1    2    0    0 -0.37559422408E+02  0.26968529886E+00 -0.15568611966E+02  0.50528872853E+02  0.30000039525E+02 0.  0.
         12    1    1    2    0    0  0.37559422408E+02 -0.26968529886E+00  0.15568611966E+02  0.40659127147E+02  0.00000000000E+00 0. -1.
         11    1    3    3    0    0 -0.73375481543E+01 -0.29097583176E+01 -0.14592735656E+02  0.16590787823E+02  0.51100000000E-03 0. -1.
        -11    1    3    3    0    0 -0.16690937214E+02 -0.42620538169E+01 -0.50797472814E+01  0.17959853020E+02  0.51100000000E-03 0.  1.
        -12    1    3    3    0    0 -0.13530937040E+02  0.74414974334E+01  0.41038709716E+01  0.15978232010E+02  0.00000000000E+00 0.  1.
</event>
<event>
 7    1  0.2680581E-011  0.5052885E+02  0.7816164E-02  0.1300439E+00
        -11   -1    0    0    0    0  0.00000000000E+00  0.00000000000E+00  0.45593999997E+02  0.45594000000E+02  0.51100000000E-03 0.  1.
         11   -1    0    0    0    0 -0.00000000000E+00 -0.00000000000E+00 -0.45593999997E+02  0.45594000000E+02  0.51100000000E-03 0. -1.
    9900012    2    1    2    0    0  0.13517215848E+02  0.37902413831E+02 -0.58188108281E+01  0.50528847796E+02  0.29999963362E+02 0.  0.
         12    1    1    2    0    0 -0.13517215848E+02 -0.37902413831E+02  0.58188108281E+01  0.40659152204E+02  0.00000000000E+00 0. -1.
         11    1    3    3    0    0 -0.25377229860E+01  0.65247289477E+01 -0.10629290614E+02  0.12727684197E+02  0.51100000000E-03 0. -1.
        -11    1    3    3    0    0  0.72767119573E+01  0.40498779298E+01 -0.13713461643E+01  0.84399430519E+01  0.51100000000E-03 0.  1.
        -12    1    3    3    0    0  0.87782268762E+01  0.27327806953E+02  0.61818259502E+01  0.29361220548E+02  0.00000000000E+00 0.  1.
</event>
<event>
 7    1  0.2680581E-011  0.5052886E+02  0.7816164E-02  0.1300439E+00
        -11   -1    0    0    0    0  0.00000000000E+00  0.00000000000E+00  0.45593999997E+02  0.45594000000E+02  0.51100000000E-03 0. -1.
         11   -1    0    0    0    0 -0.00000000000E+00 -0.00000000000E+00 -0.45593999997E+02  0.45594000000E+02  0.51100000000E-03 0.  1.
    9900012    2    1    2    0    0  0.16523866736E+02 -0.12412935600E+02 -0.35014950340E+02  0.50528857247E+02  0.29999992088E+02 0.  0.
         12    1    1    2    0    0 -0.16523866736E+02  0.12412935600E+02  0.35014950340E+02  0.40659142753E+02  0.00000000000E+00 0. -1.
         11    1    3    3    0    0 -0.60529826387E+01  0.69868806662E+00 -0.81887412131E+01  0.10206970498E+02  0.51100000000E-03 0. -1.
        -11    1    3    3    0    0  0.12205374720E+02 -0.85472048343E+01 -0.24619593250E+02  0.28777599875E+02  0.51100000000E-03 0.  1.
        -12    1    3    3    0    0  0.10371474655E+02 -0.45644188323E+01 -0.22066158767E+01  0.11544286873E+02  0.00000000000E+00 0.  1.
</event>
<event>
 7    1  0.2680581E-011  0.5052887E+02  0.7816164E-02  0.1300439E+00
        -11   -1    0    0    0    0  0.00000000000E+00  0.00000000000E+00  0.45593999997E+02  0.45594000000E+02  0.51100000000E-03 0.  1.
         11   -1    0    0    0    0 -0.00000000000E+00 -0.00000000000E+00 -0.45593999997E+02  0.45594000000E+02  0.51100000000E-03 0. -1.
    9900012    2    1    2    0    0  0.25632406162E+02  0.10426083218E+02  0.29789961378E+02  0.50528865038E+02  0.30000015771E+02 0.  0.
         12    1    1    2    0    0 -0.25632406162E+02 -0.10426083218E+02 -0.29789961378E+02  0.40659134962E+02  0.00000000000E+00 0. -1.
         11    1    3    3    0    0  0.63952674926E+01  0.45930185057E+01  0.19408278869E+02  0.20944606805E+02  0.51100000000E-03 0. -1.
        -11    1    3    3    0    0 -0.36710674769E+01  0.13005909998E+01 -0.29746632308E+00  0.39059902513E+01  0.51100000000E-03 0.  1.
        -12    1    3    3    0    0  0.22908206146E+02  0.45324737126E+01  0.10679148832E+02  0.25678267983E+02  0.00000000000E+00 0.  1.
</event>
<event>
 7    1  0.2680581E-011  0.5052888E+02  0.7816164E-02  0.1300439E+00
        -11   -1    0    0    0    0  0.00000000000E+00  0.00000000000E+00  0.45593999997E+02  0.45594000000E+02  0.51100000000E-03 0.  1.
         11   -1    0    0    0    0 -0.00000000000E+00 -0.00000000000E+00 -0.45593999997E+02  0.45594000000E+02  0.51100000000E-03 0. -1.
    9900012    2    1    2    0    0 -0.60490424786E+00  0.34293674361E+02  0.21834417091E+02  0.50528883187E+02  0.30000070936E+02 0.  0.
         12    1    1    2    0    0  0.60490424786E+00 -0.34293674361E+02 -0.21834417091E+02  0.40659116813E+02  0.00000000000E+00 0. -1.
         11    1    3    3    0    0  0.27024544374E+01  0.29250189143E+02  0.48991141736E+01  0.29780499406E+02  0.51100000000E-03 0. -1.
        -11    1    3    3    0    0  0.18320905748E+01  0.63658303496E+01  0.83978884175E+01  0.10696021786E+02  0.51100000000E-03 0.  1.
         12    1    3    3    0    0 -0.51394492601E+01 -0.13223451323E+01  0.85374144999E+01  0.10052361995E+02  0.00000000000E+00 0. -1.
</event>
<event>
 7    1  0.2680581E-011  0.5052888E+02  0.7816164E-02  0.1300439E+00
        -11   -1    0    0    0    0  0.00000000000E+00  0.00000000000E+00  0.45593999997E+02  0.45594000000E+02  0.51100000000E-03 0.  1.
         11   -1    0    0    0    0 -0.00000000000E+00 -0.00000000000E+00 -0.45593999997E+02  0.45594000000E+02  0.51100000000E-03 0. -1.
    9900012    2    1    2    0    0  0.13916564899E+02 -0.38197237164E+02  0.68164803538E+00  0.50528876183E+02  0.30000049645E+02 0.  0.
         12    1    1    2    0    0 -0.13916564899E+02  0.38197237164E+02 -0.68164803538E+00  0.40659123817E+02  0.00000000000E+00 0. -1.
         11    1    3    3    0    0 -0.38098925930E+01 -0.85821089363E+01 -0.38725028398E+01  0.10156975626E+02  0.51100000000E-03 0. -1.
        -11    1    3    3    0    0  0.10218168537E+02 -0.82643517994E+00 -0.13809405353E+00  0.10252464757E+02  0.51100000000E-03 0.  1.
         12    1    3    3    0    0  0.75082889551E+01 -0.28788693048E+02  0.46922449288E+01  0.30119435800E+02  0.00000000000E+00 0. -1.
</event>
<event>
 7    1  0.2680581E-011  0.5052887E+02  0.7816164E-02  0.1300439E+00
        -11   -1    0    0    0    0  0.00000000000E+00  0.00000000000E+00  0.45593999997E+02  0.45594000000E+02  0.51100000000E-03 0.  1.
         11   -1    0    0    0    0 -0.00000000000E+00 -0.00000000000E+00 -0.45593999997E+02  0.45594000000E+02  0.51100000000E-03 0. -1.
    9900012    2    1    2    0    0  0.95378344686E+01 -0.28925505543E+02  0.26935293066E+02  0.50528866096E+02  0.30000018985E+02 0.  0.
         12    1    1    2    0    0 -0.95378344686E+01  0.28925505543E+02 -0.26935293066E+02  0.40659133904E+02  0.00000000000E+00 0. -1.
         11    1    3    3    0    0  0.48304480140E+01 -0.11561016828E+02  0.63955803453E+01  0.14067472635E+02  0.51100000000E-03 0. -1.
        -11    1    3    3    0    0 -0.91587242346E+01 -0.11168567736E+02  0.67317608880E+01  0.15935361301E+02  0.51100000000E-03 0.  1.
         12    1    3    3    0    0  0.13866110689E+02 -0.61959209791E+01  0.13807951833E+02  0.20526032160E+02  0.00000000000E+00 0. -1.
</event>
<event>
 7    1  0.2680581E-011  0.5052889E+02  0.7816164E-02  0.1300439E+00
        -11   -1    0    0    0    0  0.00000000000E+00  0.00000000000E+00  0.45593999997E+02  0.45594000000E+02  0.51100000000E-03 0.  1.
         11   -1    0    0    0    0 -0.00000000000E+00 -0.00000000000E+00 -0.45593999997E+02  0.45594000000E+02  0.51100000000E-03 0. -1.
    9900012    2    1    2    0    0  0.23303046924E+02  0.23375049128E+02  0.23743182008E+02  0.50528885284E+02  0.30000077309E+02 0.  0.
         12    1    1    2    0    0 -0.23303046924E+02 -0.23375049128E+02 -0.23743182008E+02  0.40659114716E+02  0.00000000000E+00 0. -1.
         11    1    3    3    0    0  0.22177513305E+01  0.79882890182E+01 -0.23633540905E+01  0.86207090904E+01  0.51100000000E-03 0. -1.
        -11    1    3    3    0    0  0.16521730313E+02  0.11365635823E+02  0.60450102960E+01  0.20944865718E+02  0.51100000000E-03 0.  1.
        -12    1    3    3    0    0  0.45635652796E+01  0.40211242868E+01  0.20061525802E+02  0.20963310476E+02  0.00000000000E+00 0.  1.
</event>
<event>
 7    1  0.2680581E-011  0.5052893E+02  0.7816164E-02  0.1300439E+00
        -11   -1    0    0    0    0  0.00000000000E+00  0.00000000000E+00  0.45593999997E+02  0.45594000000E+02  0.51100000000E-03 0. -1.
         11   -1    0    0    0    0 -0.00000000000E+00 -0.00000000000E+00 -0.45593999997E+02  0.45594000000E+02  0.51100000000E-03 0.  1.
    9900012    2    1    2    0    0 -0.39648619674E+02  0.59435415542E+01 -0.67691500041E+01  0.50528928195E+02  0.30000207740E+02 0.  0.
         12    1    1    2    0    0  0.39648619674E+02 -0.59435415542E+01  0.67691500041E+01  0.40659071805E+02  0.00000000000E+00 0. -1.
         11    1    3    3    0    0 -0.17086216944E+02  0.15231451471E+02 -0.19945413814E+01  0.22976381764E+02  0.51100000000E-03 0. -1.
        -11    1    3    3    0    0 -0.96946410801E+01 -0.50028684292E+01  0.37471870205E+01  0.11534997573E+02  0.51100000000E-03 0.  1.
        -12    1    3    3    0    0 -0.12867761650E+02 -0.42850414872E+01 -0.85217956432E+01  0.16017548858E+02  0.00000000000E+00 0.  1.
</event>
<event>
 7    1  0.2680581E-011  0.5052886E+02  0.7816164E-02  0.1300439E+00
        -11   -1    0    0    0    0  0.00000000000E+00  0.00000000000E+00  0.45593999997E+02  0.45594000000E+02  0.51100000000E-03 0.  1.
         11   -1    0    0    0    0 -0.00000000000E+00 -0.00000000000E+00 -0.45593999997E+02  0.45594000000E+02  0.51100000000E-03 0. -1.
    9900012    2    1    2    0    0  0.18632618401E+02  0.33179699011E+02  0.14321281792E+02  0.50528855800E+02  0.29999987688E+02 0.  0.
         12    1    1    2    0    0 -0.18632618401E+02 -0.33179699011E+02 -0.14321281792E+02  0.40659144200E+02  0.00000000000E+00 0. -1.
         11    1    3    3    0    0 -0.11889631824E+01  0.24816382268E+01 -0.16688437804E+01  0.32182606424E+01  0.51100000000E-03 0. -1.
        -11    1    3    3    0    0  0.18395146203E+01  0.19195418553E+02  0.17324376237E+02  0.25922614060E+02  0.51100000000E-03 0.  1.
        -12    1    3    3    0    0  0.17982066963E+02  0.11502642232E+02 -0.13342506649E+01  0.21387981097E+02  0.00000000000E+00 0.  1.
</event>
<event>
 7    1  0.2680581E-011  0.5052886E+02  0.7816164E-02  0.1300439E+00
        -11   -1    0    0    0    0  0.00000000000E+00  0.00000000000E+00  0.45593999997E+02  0.45594000000E+02  0.51100000000E-03 0.  1.
         11   -1    0    0    0    0 -0.00000000000E+00 -0.00000000000E+00 -0.45593999997E+02  0.45594000000E+02  0.51100000000E-03 0. -1.
    9900012    2    1    2    0    0 -0.19933578486E+02  0.32215807647E+02  0.14763451052E+02  0.50528864488E+02  0.30000014098E+02 0.  0.
         12    1    1    2    0    0  0.19933578486E+02 -0.32215807647E+02 -0.14763451052E+02  0.40659135512E+02  0.00000000000E+00 0. -1.
         11    1    3    3    0    0 -0.83846370636E+01  0.51490165011E+01  0.14470016648E+02  0.17498453979E+02  0.51100000000E-03 0. -1.
        -11    1    3    3    0    0 -0.12360448766E+02  0.11162287762E+02  0.28639372761E+01  0.16899097573E+02  0.51100000000E-03 0.  1.
         12    1    3    3    0    0  0.81150734356E+00  0.15904503383E+02 -0.25705028715E+01  0.16131312936E+02  0.00000000000E+00 0. -1.
</event>
<event>
 7    1  0.2680581E-011  0.5052886E+02  0.7816164E-02  0.1300439E+00
        -11   -1    0    0    0    0  0.00000000000E+00  0.00000000000E+00  0.45593999997E+02  0.45594000000E+02  0.51100000000E-03 0.  1.
         11   -1    0    0    0    0 -0.00000000000E+00 -0.00000000000E+00 -0.45593999997E+02  0.45594000000E+02  0.51100000000E-03 0. -1.
    9900012    2    1    2    0    0  0.33336522314E+02 -0.19615742172E+01  0.23194700853E+02  0.50528860301E+02  0.30000001370E+02 0.  0.
         12    1    1    2    0    0 -0.33336522314E+02  0.19615742172E+01 -0.23194700853E+02  0.40659139699E+02  0.00000000000E+00 0. -1.
         11    1    3    3    0    0  0.86856912472E+01 -0.99757543180E+01  0.38924295508E+01  0.13787962675E+02  0.51100000000E-03 0. -1.
        -11    1    3    3    0    0  0.20644549709E+02 -0.12429520262E+01  0.98123328393E+01  0.22891575709E+02  0.51100000000E-03 0.  1.
        -12    1    3    3    0    0  0.40062813581E+01  0.92571321270E+01  0.94899384627E+01  0.13849321917E+02  0.00000000000E+00 0.  1.
</event>
<event>
 7    1  0.2680581E-011  0.5052889E+02  0.7816164E-02  0.1300439E+00
        -11   -1    0    0    0    0  0.00000000000E+00  0.00000000000E+00  0.45593999997E+02  0.45594000000E+02  0.51100000000E-03 0.  1.
         11   -1    0    0    0    0 -0.00000000000E+00 -0.00000000000E+00 -0.45593999997E+02  0.45594000000E+02  0.51100000000E-03 0. -1.
    9900012    2    1    2    0    0 -0.11323745197E+02  0.19961901883E+02  0.33562749841E+02  0.50528893899E+02  0.30000103495E+02 0.  0.
         12    1    1    2    0    0  0.11323745197E+02 -0.19961901883E+02 -0.33562749841E+02  0.40659106101E+02  0.00000000000E+00 0. -1.
         11    1    3    3    0    0 -0.62337369757E+01  0.30159542672E+01  0.25798027164E+01  0.73899146910E+01  0.51100000000E-03 0. -1.
        -11    1    3    3    0    0 -0.11808856663E+02  0.18936237363E+02  0.27173889003E+02  0.35163197024E+02  0.51100000000E-03 0.  1.
         12    1    3    3    0    0  0.67188484419E+01 -0.19902897478E+01  0.38090581215E+01  0.79757821835E+01  0.00000000000E+00 0. -1.
</event>
<event>
 7    1  0.2680581E-011  0.5052886E+02  0.7816164E-02  0.1300439E+00
        -11   -1    0    0    0    0  0.00000000000E+00  0.00000000000E+00  0.45593999997E+02  0.45594000000E+02  0.51100000000E-03 0.  1.
         11   -1    0    0    0    0 -0.00000000000E+00 -0.00000000000E+00 -0.45593999997E+02  0.45594000000E+02  0.51100000000E-03 0. -1.
    9900012    2    1    2    0    0 -0.20920177332E+02 -0.15532602610E+02  0.31212984671E+02  0.50528856188E+02  0.29999988868E+02 0.  0.
         12    1    1    2    0    0  0.20920177332E+02  0.15532602610E+02 -0.31212984671E+02  0.40659143812E+02  0.00000000000E+00 0. -1.
         11    1    3    3    0    0  0.46594339278E+01 -0.24914244329E+01  0.17742939786E+01  0.55736558573E+01  0.51100000000E-03 0. -1.
        -11    1    3    3    0    0 -0.97644421916E+01 -0.62014048583E+01  0.24399606130E+02  0.27002639372E+02  0.51100000000E-03 0.  1.
        -12    1    3    3    0    0 -0.15815169069E+02 -0.68397733187E+01  0.50390845628E+01  0.17952560958E+02  0.00000000000E+00 0.  1.
</event>
<event>
 7    1  0.2680581E-011  0.5052885E+02  0.7816164E-02  0.1300439E+00
        -11   -1    0    0    0    0  0.00000000000E+00  0.00000000000E+00  0.45593999997E+02  0.45594000000E+02  0.51100000000E-03 0.  1.
         11   -1    0    0    0    0 -0.00000000000E+00 -0.00000000000E+00 -0.45593999997E+02  0.45594000000E+02  0.51100000000E-03 0. -1.
    9900012    2    1    2    0    0  0.22737764680E+01 -0.12847379939E+01  0.40575185172E+02  0.50528852654E+02  0.29999978128E+02 0.  0.
         12    1    1    2    0    0 -0.22737764680E+01  0.12847379939E+01 -0.40575185172E+02  0.40659147346E+02  0.00000000000E+00 0. -1.
         11    1    3    3    0    0  0.13008892640E+02 -0.56695257555E+01  0.30436033695E+02  0.33581646139E+02  0.51100000000E-03 0.  1.
        -11    1    3    3    0    0 -0.47169067069E+01  0.45071063916E+01  0.84876726502E+01  0.10705316632E+02  0.51100000000E-03 0. -1.
        -12    1    3    3    0    0 -0.60182094648E+01 -0.12231863009E+00  0.16514788265E+01  0.62418898840E+01  0.00000000000E+00 0.  1.
</event>
<event>
 7    1  0.2680581E-011  0.5052886E+02  0.7816164E-02  0.1300439E+00
        -11   -1    0    0    0    0  0.00000000000E+00  0.00000000000E+00  0.45593999997E+02  0.45594000000E+02  0.51100000000E-03 0.  1.
         11   -1    0    0    0    0 -0.00000000000E+00 -0.00000000000E+00 -0.45593999997E+02  0.45594000000E+02  0.51100000000E-03 0. -1.
    9900012    2    1    2    0    0 -0.23187390393E+02  0.10375574007E+02  0.31746777409E+02  0.50528862219E+02  0.30000007202E+02 0.  0.
         12    1    1    2    0    0  0.23187390393E+02 -0.10375574007E+02 -0.31746777409E+02  0.40659137781E+02  0.00000000000E+00 0. -1.
         11    1    3    3    0    0  0.54542174036E+01  0.28187164991E+01  0.90297341655E+01  0.10919237590E+02  0.51100000000E-03 0. -1.
        -11    1    3    3    0    0 -0.19149239788E+02  0.96752231565E+01  0.20414059562E+02  0.29614813112E+02  0.51100000000E-03 0.  1.
        -12    1    3    3    0    0 -0.94923680086E+01 -0.21183656482E+01  0.23029836814E+01  0.99948115173E+01  0.00000000000E+00 0.  1.
</event>
<event>
 7    1  0.2680581E-011  0.5052885E+02  0.7816164E-02  0.1300439E+00
        -11   -1    0    0    0    0  0.00000000000E+00  0.00000000000E+00  0.45593999997E+02  0.45594000000E+02  0.51100000000E-03 0.  1.
         11   -1    0    0    0    0 -0.00000000000E+00 -0.00000000000E+00 -0.45593999997E+02  0.45594000000E+02  0.51100000000E-03 0. -1.
    9900012    2    1    2    0    0  0.30272540246E+02 -0.17585797070E+02  0.20675568464E+02  0.50528854868E+02  0.29999984857E+02 0.  0.
         12    1    1    2    0    0 -0.30272540246E+02  0.17585797070E+02 -0.20675568464E+02  0.40659145132E+02  0.00000000000E+00 0. -1.
         11    1    3    3    0    0  0.26142658135E+02 -0.92676532290E+01  0.19706723062E+01  0.27806681217E+02  0.51100000000E-03 0.  1.
        -11    1    3    3    0    0 -0.18782541910E+00 -0.46838197100E+01  0.20121400411E+01  0.51011913579E+01  0.51100000000E-03 0. -1.
        -12    1    3    3    0    0  0.43177075309E+01 -0.36343241306E+01  0.16692756117E+02  0.17620982293E+02  0.00000000000E+00 0.  1.
</event>
<event>
 7    1  0.2680581E-011  0.5052887E+02  0.7816164E-02  0.1300439E+00
        -11   -1    0    0    0    0  0.00000000000E+00  0.00000000000E+00  0.45593999997E+02  0.45594000000E+02  0.51100000000E-03 0.  1.
         11   -1    0    0    0    0 -0.00000000000E+00 -0.00000000000E+00 -0.45593999997E+02  0.45594000000E+02  0.51100000000E-03 0. -1.
    9900012    2    1    2    0    0  0.28290512809E+02 -0.24760221887E+02  0.15483645252E+02  0.50528868515E+02  0.30000026337E+02 0.  0.
         12    1    1    2    0    0 -0.28290512809E+02  0.24760221887E+02 -0.15483645252E+02  0.40659131485E+02  0.00000000000E+00 0. -1.
         11    1    3    3    0    0  0.73456415815E+00 -0.18689869253E+01  0.69206720221E+01  0.72061361442E+01  0.51100000000E-03 0. -1.
        -11    1    3    3    0    0  0.18600379450E+02 -0.25197609253E+02  0.11881978699E+02  0.33497388642E+02  0.51100000000E-03 0.  1.
        -12    1    3    3    0    0  0.89555692008E+01  0.23063742919E+01 -0.33190054690E+01  0.98253437288E+01  0.00000000000E+00 0.  1.
</event>
<event>
 7    1  0.2680581E-011  0.5052886E+02  0.7816164E-02  0.1300439E+00
        -11   -1    0    0    0    0  0.00000000000E+00  0.00000000000E+00  0.45593999997E+02  0.45594000000E+02  0.51100000000E-03 0.  1.
         11   -1    0    0    0    0 -0.00000000000E+00 -0.00000000000E+00 -0.45593999997E+02  0.45594000000E+02  0.51100000000E-03 0. -1.
    9900012    2    1    2    0    0 -0.14835239715E+01  0.11120388931E+02  0.39080703608E+02  0.50528864645E+02  0.30000014574E+02 0.  0.
         12    1    1    2    0    0  0.14835239715E+01 -0.11120388931E+02 -0.39080703608E+02  0.40659135355E+02  0.00000000000E+00 0. -1.
         11    1    3    3    0    0 -0.77862146787E+01  0.24361042823E+01  0.11328097379E+02  0.13960140887E+02  0.51100000000E-03 0. -1.
        -11    1    3    3    0    0 -0.45859174734E+00  0.14475514877E+02  0.20424197568E+02  0.25037944882E+02  0.51100000000E-03 0.  1.
         12    1    3    3    0    0  0.67612824545E+01 -0.57912302277E+01  0.73284086604E+01  0.11530778875E+02  0.00000000000E+00 0. -1.
</event>
<event>
 7    1  0.2680581E-011  0.5052887E+02  0.7816164E-02  0.1300439E+00
        -11   -1    0    0    0    0  0.00000000000E+00  0.00000000000E+00  0.45593999997E+02  0.45594000000E+02  0.51100000000E-03 0.  1.
         11   -1    0    0    0    0 -0.00000000000E+00 -0.00000000000E+00 -0.45593999997E+02  0.45594000000E+02  0.51100000000E-03 0. -1.
    9900012    2    1    2    0    0 -0.31879429992E+02  0.24731091038E+02 -0.50239451190E+01  0.50528868859E+02  0.30000027385E+02 0.  0.
         12    1    1    2    0    0  0.31879429992E+02 -0.24731091038E+02  0.50239451190E+01  0.40659131141E+02  0.00000000000E+00 0. -1.
         11    1    3    3    0    0 -0.16311596157E+01  0.11760318123E+02 -0.30921564981E+01  0.12268952527E+02  0.51100000000E-03 0. -1.
        -11    1    3    3    0    0 -0.14846911577E+02  0.57924907588E+01 -0.10644059611E+02  0.19164543768E+02  0.51100000000E-03 0.  1.
        -12    1    3    3    0    0 -0.15401358799E+02  0.71782821569E+01  0.87122709897E+01  0.19095372564E+02  0.00000000000E+00 0.  1.
</event>
<event>
 7    1  0.2680581E-011  0.5052888E+02  0.7816164E-02  0.1300439E+00
        -11   -1    0    0    0    0  0.00000000000E+00  0.00000000000E+00  0.45593999997E+02  0.45594000000E+02  0.51100000000E-03 0.  1.
         11   -1    0    0    0    0 -0.00000000000E+00 -0.00000000000E+00 -0.45593999997E+02  0.45594000000E+02  0.51100000000E-03 0. -1.
    9900012    2    1    2    0    0 -0.64374407565E+01 -0.40019006191E+02  0.31941152136E+01  0.50528882055E+02  0.30000067495E+02 0.  0.
         12    1    1    2    0    0  0.64374407565E+01  0.40019006191E+02 -0.31941152136E+01  0.40659117945E+02  0.00000000000E+00 0. -1.
         11    1    3    3    0    0  0.21354106028E+01 -0.28026815121E+02 -0.80006989694E+01  0.29224536412E+02  0.51100000000E-03 0. -1.
        -11    1    3    3    0    0 -0.52245919278E+01 -0.48935681062E+01 -0.54875388021E+00  0.71794498887E+01  0.51100000000E-03 0.  1.
        -12    1    3    3    0    0 -0.33482594316E+01 -0.70986229648E+01  0.11743568063E+02  0.14124895754E+02  0.00000000000E+00 0.  1.
</event>
<event>
 7    1  0.2680581E-011  0.5052884E+02  0.7816164E-02  0.1300439E+00
        -11   -1    0    0    0    0  0.00000000000E+00  0.00000000000E+00  0.45593999997E+02  0.45594000000E+02  0.51100000000E-03 0.  1.
         11   -1    0    0    0    0 -0.00000000000E+00 -0.00000000000E+00 -0.45593999997E+02  0.45594000000E+02  0.51100000000E-03 0. -1.
    9900012    2    1    2    0    0 -0.20398097837E+02  0.10805751297E+02  0.33471196488E+02  0.50528835586E+02  0.29999926248E+02 0.  0.
         12    1    1    2    0    0  0.20398097837E+02 -0.10805751297E+02 -0.33471196488E+02  0.40659164414E+02  0.00000000000E+00 0. -1.
         11    1    3    3    0    0 -0.71521567710E+00  0.23491298703E+01  0.20684459877E+02  0.20829710158E+02  0.51100000000E-03 0. -1.
        -11    1    3    3    0    0 -0.18154615503E+02  0.35516315013E+01  0.15275476104E+02  0.23990504806E+02  0.51100000000E-03 0.  1.
        -12    1    3    3    0    0 -0.15282666571E+01  0.49049899259E+01 -0.24887394924E+01  0.57086206223E+01  0.00000000000E+00 0.  1.
</event>
<event>
 7    1  0.2680581E-011  0.5052886E+02  0.7816164E-02  0.1300439E+00
        -11   -1    0    0    0    0  0.00000000000E+00  0.00000000000E+00  0.45593999997E+02  0.45594000000E+02  0.51100000000E-03 0.  1.
         11   -1    0    0    0    0 -0.00000000000E+00 -0.00000000000E+00 -0.45593999997E+02  0.45594000000E+02  0.51100000000E-03 0. -1.
    9900012    2    1    2    0    0 -0.11541704973E+02  0.19872886504E+02  0.33541368027E+02  0.50528856615E+02  0.29999990167E+02 0.  0.
         12    1    1    2    0    0  0.11541704973E+02 -0.19872886504E+02 -0.33541368027E+02  0.40659143385E+02  0.00000000000E+00 0. -1.
         11    1    3    3    0    0  0.44772382091E+01  0.22333186137E-01  0.11826085107E+01  0.46308448368E+01  0.51100000000E-03 0. -1.
        -11    1    3    3    0    0 -0.41353597989E+01  0.13510292756E+02  0.28623122875E+02  0.31920406864E+02  0.51100000000E-03 0.  1.
         12    1    3    3    0    0 -0.11883583384E+02  0.63402605615E+01  0.37356366416E+01  0.13977604914E+02  0.00000000000E+00 0. -1.
</event>
<event>
 7    1  0.2680581E-011  0.5052887E+02  0.7816164E-02  0.1300439E+00
        -11   -1    0    0    0    0  0.00000000000E+00  0.00000000000E+00  0.45593999997E+02  0.45594000000E+02  0.51100000000E-03 0.  1.
         11   -1    0    0    0    0 -0.00000000000E+00 -0.00000000000E+00 -0.45593999997E+02  0.45594000000E+02  0.51100000000E-03 0. -1.
    9900012    2    1    2    0    0  0.38004120893E+02 -0.13572636583E+02  0.49634049095E+01  0.50528867484E+02  0.30000023205E+02 0.  0.
         12    1    1    2    0    0 -0.38004120893E+02  0.13572636583E+02 -0.49634049095E+01  0.40659132516E+02  0.00000000000E+00 0. -1.
         11    1    3    3    0    0  0.20693653029E+02 -0.14378754877E+02  0.11019757869E+02  0.27502925866E+02  0.51100000000E-03 0. -1.
        -11    1    3    3    0    0  0.10676408612E+02 -0.49004379116E+01  0.99266804375E+00  0.11789206194E+02  0.51100000000E-03 0.  1.
         12    1    3    3    0    0  0.66340592517E+01  0.57065562056E+01 -0.70490210028E+01  0.11236735424E+02  0.00000000000E+00 0. -1.
</event>
<event>
 7    1  0.2680581E-011  0.5052886E+02  0.7816164E-02  0.1300439E+00
        -11   -1    0    0    0    0  0.00000000000E+00  0.00000000000E+00  0.45593999997E+02  0.45594000000E+02  0.51100000000E-03 0.  1.
         11   -1    0    0    0    0 -0.00000000000E+00 -0.00000000000E+00 -0.45593999997E+02  0.45594000000E+02  0.51100000000E-03 0. -1.
    9900012    2    1    2    0    0 -0.10336788048E+02 -0.18970724987E+01  0.39277445624E+02  0.50528858274E+02  0.29999995208E+02 0.  0.
         12    1    1    2    0    0  0.10336788048E+02  0.18970724987E+01 -0.39277445624E+02  0.40659141726E+02  0.00000000000E+00 0. -1.
         11    1    3    3    0    0 -0.60142686736E+01  0.79216177228E+01  0.48547273145E+01  0.11067602838E+02  0.51100000000E-03 0. -1.
        -11    1    3    3    0    0 -0.76749934367E+01  0.21941721224E+00  0.21055406830E+02  0.22411689476E+02  0.51100000000E-03 0.  1.
         12    1    3    3    0    0  0.33524740626E+01 -0.10038107434E+02  0.13367311480E+02  0.17049565959E+02  0.00000000000E+00 0. -1.
</event>
<event>
 7    1  0.2680581E-011  0.5052885E+02  0.7816164E-02  0.1300439E+00
        -11   -1    0    0    0    0  0.00000000000E+00  0.00000000000E+00  0.45593999997E+02  0.45594000000E+02  0.51100000000E-03 0. -1.
         11   -1    0    0    0    0 -0.00000000000E+00 -0.00000000000E+00 -0.45593999997E+02  0.45594000000E+02  0.51100000000E-03 0.  1.
    9900012    2    1    2    0    0  0.53011926163E+01  0.26131964008E+02  0.30695020224E+02  0.50528850321E+02  0.29999971034E+02 0.  0.
         12    1    1    2    0    0 -0.53011926163E+01 -0.26131964008E+02 -0.30695020224E+02  0.40659149679E+02  0.00000000000E+00 0. -1.
         11    1    3    3    0    0  0.11017512999E+02  0.12221812736E+02  0.24595480910E+02  0.29592160798E+02  0.51100000000E-03 0. -1.
        -11    1    3    3    0    0 -0.24103715132E+01 -0.20803089460E+01  0.28809189056E+01  0.42938642438E+01  0.51100000000E-03 0.  1.
        -12    1    3    3    0    0 -0.33059488700E+01  0.15990460219E+02  0.32186204091E+01  0.16642825279E+02  0.00000000000E+00 0.  1.
</event>
<event>
 7    1  0.2680581E-011  0.5052886E+02  0.7816164E-02  0.1300439E+00
        -11   -1    0    0    0    0  0.00000000000E+00  0.00000000000E+00  0.45593999997E+02  0.45594000000E+02  0.51100000000E-03 0. -1.
         11   -1    0    0    0    0 -0.00000000000E+00 -0.00000000000E+00 -0.45593999997E+02  0.45594000000E+02  0.51100000000E-03 0.  1.
    9900012    2    1    2    0    0  0.13136719954E+02 -0.60548936544E+01 -0.37999085724E+02  0.50528860017E+02  0.30000000507E+02 0.  0.
         12    1    1    2    0    0 -0.13136719954E+02  0.60548936544E+01  0.37999085724E+02  0.40659139983E+02  0.00000000000E+00 0. -1.
         11    1    3    3    0    0  0.79342029060E+01 -0.10032338772E+01 -0.26546245214E+02  0.27724739659E+02  0.51100000000E-03 0. -1.
        -11    1    3    3    0    0  0.10619175736E+02  0.19314501426E+01 -0.52181034959E+01  0.11988577785E+02  0.51100000000E-03 0.  1.
         12    1    3    3    0    0 -0.54166586878E+01 -0.69831099197E+01 -0.62347370143E+01  0.10815542572E+02  0.00000000000E+00 0. -1.
</event>
<event>
 7    1  0.2680581E-011  0.5052886E+02  0.7816164E-02  0.1300439E+00
        -11   -1    0    0    0    0  0.00000000000E+00  0.00000000000E+00  0.45593999997E+02  0.45594000000E+02  0.51100000000E-03 0.  1.
         11   -1    0    0    0    0 -0.00000000000E+00 -0.00000000000E+00 -0.45593999997E+02  0.45594000000E+02  0.51100000000E-03 0. -1.
    9900012    2    1    2    0    0 -0.11060558175E+02 -0.38281308851E+02 -0.80852456463E+01  0.50528858941E+02  0.29999997237E+02 0.  0.
         12    1    1    2    0    0  0.11060558175E+02  0.38281308851E+02  0.80852456463E+01  0.40659141059E+02  0.00000000000E+00 0. -1.
         11    1    3    3    0    0  0.64267674908E+00  0.30867549664E+01 -0.25965896075E+01  0.40845278157E+01  0.51100000000E-03 0. -1.
        -11    1    3    3    0    0 -0.68188710973E+00 -0.17379346561E+02  0.49072622575E+01  0.18071742585E+02  0.51100000000E-03 0.  1.
         12    1    3    3    0    0 -0.11021347815E+02 -0.23988717256E+02 -0.10395918296E+02  0.28372588540E+02  0.00000000000E+00 0. -1.
</event>
<event>
 7    1  0.2680581E-011  0.5052887E+02  0.7816164E-02  0.1300439E+00
        -11   -1    0    0    0    0  0.00000000000E+00  0.00000000000E+00  0.45593999997E+02  0.45594000000E+02  0.51100000000E-03 0. -1.
         11   -1    0    0    0    0 -0.00000000000E+00 -0.00000000000E+00 -0.45593999997E+02  0.45594000000E+02  0.51100000000E-03 0.  1.
    9900012    2    1    2    0    0  0.21774718289E+02  0.33859223780E+02  0.57078474859E+01  0.50528869237E+02  0.30000028532E+02 0.  0.
         12    1    1    2    0    0 -0.21774718289E+02 -0.33859223780E+02 -0.57078474859E+01  0.40659130763E+02  0.00000000000E+00 0. -1.
         11    1    3    3    0    0 -0.40446030532E+01  0.14062571033E+02 -0.30476421520E+01  0.14946666547E+02  0.51100000000E-03 0. -1.
        -11    1    3    3    0    0  0.13515204195E+02  0.50681716960E+01 -0.12671756218E+00  0.14434790140E+02  0.51100000000E-03 0.  1.
        -12    1    3    3    0    0  0.12304117147E+02  0.14728481051E+02  0.88822072000E+01  0.21147412550E+02  0.00000000000E+00 0.  1.
</event>
<event>
 7    1  0.2680581E-011  0.5052886E+02  0.7816164E-02  0.1300439E+00
        -11   -1    0    0    0    0  0.00000000000E+00  0.00000000000E+00  0.45593999997E+02  0.45594000000E+02  0.51100000000E-03 0. -1.
         11   -1    0    0    0    0 -0.00000000000E+00 -0.00000000000E+00 -0.45593999997E+02  0.45594000000E+02  0.51100000000E-03 0.  1.
    9900012    2    1    2    0    0 -0.34322704586E+02  0.22708153469E+01  0.21678577616E+02  0.50528863512E+02  0.30000011132E+02 0.  0.
         12    1    1    2    0    0  0.34322704586E+02 -0.22708153469E+01 -0.21678577616E+02  0.40659136488E+02  0.00000000000E+00 0. -1.
         11    1    3    3    0    0 -0.61576790552E+01 -0.48934141060E+01 -0.51836163948E+00  0.78823354413E+01  0.51100000000E-03 0. -1.
        -11    1    3    3    0    0 -0.60942386155E+01 -0.54728273794E+01 -0.96493351690E+00  0.82475863609E+01  0.51100000000E-03 0.  1.
         12    1    3    3    0    0 -0.22070786915E+02  0.12637056832E+02  0.23161872773E+02  0.34398941710E+02  0.00000000000E+00 0. -1.
</event>
<event>
 7    1  0.2680581E-011  0.5052888E+02  0.7816164E-02  0.1300439E+00
        -11   -1    0    0    0    0  0.00000000000E+00  0.00000000000E+00  0.45593999997E+02  0.45594000000E+02  0.51100000000E-03 0. -1.
         11   -1    0    0    0    0 -0.00000000000E+00 -0.00000000000E+00 -0.45593999997E+02  0.45594000000E+02  0.51100000000E-03 0.  1.
    9900012    2    1    2    0    0  0.28274930729E+02  0.19199009379E+02 -0.22024759501E+02  0.50528884172E+02  0.30000073928E+02 0.  0.
         12    1    1    2    0    0 -0.28274930729E+02 -0.19199009379E+02  0.22024759501E+02  0.40659115828E+02  0.00000000000E+00 0. -1.
         11    1    3    3    0    0 -0.14964389186E+01 -0.58424669203E+00  0.21689542357E+01  0.26990806531E+01  0.51100000000E-03 0. -1.
        -11    1    3    3    0    0  0.18572686001E+02  0.16932170988E+02 -0.53045824169E+01  0.25686215652E+02  0.51100000000E-03 0.  1.
        -12    1    3    3    0    0  0.11198683646E+02  0.28510850835E+01 -0.18889131320E+02  0.22143587866E+02  0.00000000000E+00 0.  1.
</event>
<event>
 7    1  0.2680581E-011  0.5052886E+02  0.7816164E-02  0.1300439E+00
        -11   -1    0    0    0    0  0.00000000000E+00  0.00000000000E+00  0.45593999997E+02  0.45594000000E+02  0.51100000000E-03 0. -1.
         11   -1    0    0    0    0 -0.00000000000E+00 -0.00000000000E+00 -0.45593999997E+02  0.45594000000E+02  0.51100000000E-03 0.  1.
    9900012    2    1    2    0    0  0.25960205080E+02  0.12783926467E+02  0.28562293551E+02  0.50528860356E+02  0.30000001538E+02 0.  0.
         12    1    1    2    0    0 -0.25960205080E+02 -0.12783926467E+02 -0.28562293551E+02  0.40659139644E+02  0.00000000000E+00 0. -1.
         11    1    3    3    0    0  0.22665399882E+02  0.86777231765E+01  0.18924395189E+02  0.30775899091E+02  0.51100000000E-03 0. -1.
        -11    1    3    3    0    0  0.54039886181E+01 -0.43555281603E+01  0.25808756912E+00  0.69455257537E+01  0.51100000000E-03 0.  1.
         12    1    3    3    0    0 -0.21091834207E+01  0.84617314510E+01  0.93798107935E+01  0.12807435511E+02  0.00000000000E+00 0. -1.
</event>
<event>
 7    1  0.2680581E-011  0.5052886E+02  0.7816164E-02  0.1300439E+00
        -11   -1    0    0    0    0  0.00000000000E+00  0.00000000000E+00  0.45593999997E+02  0.45594000000E+02  0.51100000000E-03 0.  1.
         11   -1    0    0    0    0 -0.00000000000E+00 -0.00000000000E+00 -0.45593999997E+02  0.45594000000E+02  0.51100000000E-03 0. -1.
    9900012    2    1    2    0    0 -0.73865253537E+01 -0.27436189942E+02  0.29083679365E+02  0.50528859813E+02  0.29999999888E+02 0.  0.
         12    1    1    2    0    0  0.73865253537E+01  0.27436189942E+02 -0.29083679365E+02  0.40659140187E+02  0.00000000000E+00 0. -1.
         11    1    3    3    0    0 -0.69749013333E+01  0.48988649846E+00 -0.40507592716E+00  0.70038078328E+01  0.51100000000E-03 0. -1.
        -11    1    3    3    0    0  0.68456645388E+01 -0.66926758416E+01  0.88773529395E+01  0.13056126086E+02  0.51100000000E-03 0.  1.
         12    1    3    3    0    0 -0.72572885592E+01 -0.21233400599E+02  0.20611402352E+02  0.30468925894E+02  0.00000000000E+00 0. -1.
</event>
<event>
 7    1  0.2680581E-011  0.5052886E+02  0.7816164E-02  0.1300439E+00
        -11   -1    0    0    0    0  0.00000000000E+00  0.00000000000E+00  0.45593999997E+02  0.45594000000E+02  0.51100000000E-03 0. -1.
         11   -1    0    0    0    0 -0.00000000000E+00 -0.00000000000E+00 -0.45593999997E+02  0.45594000000E+02  0.51100000000E-03 0.  1.
    9900012    2    1    2    0    0  0.28191096733E+02 -0.26474486626E+02 -0.12551068991E+02  0.50528859454E+02  0.29999998798E+02 0.  0.
         12    1    1    2    0    0 -0.28191096733E+02  0.26474486626E+02  0.12551068991E+02  0.40659140546E+02  0.00000000000E+00 0. -1.
         11    1    3    3    0    0  0.66446540335E+01 -0.11435202697E+02  0.22185476266E+01  0.13410340853E+02  0.51100000000E-03 0. -1.
        -11    1    3    3    0    0  0.15014330744E+02 -0.19849838542E+02 -0.14894851402E+02  0.29005220502E+02  0.51100000000E-03 0.  1.
         12    1    3    3    0    0  0.65321119559E+01  0.48105546139E+01  0.12523478498E+00  0.81132980994E+01  0.00000000000E+00 0. -1.
</event>
<event>
 7    1  0.2680581E-011  0.5052886E+02  0.7816164E-02  0.1300439E+00
        -11   -1    0    0    0    0  0.00000000000E+00  0.00000000000E+00  0.45593999997E+02  0.45594000000E+02  0.51100000000E-03 0. -1.
         11   -1    0    0    0    0 -0.00000000000E+00 -0.00000000000E+00 -0.45593999997E+02  0.45594000000E+02  0.51100000000E-03 0.  1.
    9900012    2    1    2    0    0  0.27703880461E+02  0.29222048470E+02  0.56331824962E+01  0.50528857678E+02  0.29999993398E+02 0.  0.
         12    1    1    2    0    0 -0.27703880461E+02 -0.29222048470E+02 -0.56331824962E+01  0.40659142322E+02  0.00000000000E+00 0. -1.
         11    1    3    3    0    0 -0.99663946793E+00 -0.13843473263E+01 -0.46212002877E+01  0.49259719963E+01  0.51100000000E-03 0. -1.
        -11    1    3    3    0    0  0.10545087483E+02  0.17286828511E+02  0.11056655889E+02  0.23071258086E+02  0.51100000000E-03 0.  1.
        -12    1    3    3    0    0  0.18155432446E+02  0.13319567285E+02 -0.80227310475E+00  0.22531627595E+02  0.00000000000E+00 0.  1.
</event>
<event>
 7    1  0.2680581E-011  0.5052886E+02  0.7816164E-02  0.1300439E+00
        -11   -1    0    0    0    0  0.00000000000E+00  0.00000000000E+00  0.45593999997E+02  0.45594000000E+02  0.51100000000E-03 0. -1.
         11   -1    0    0    0    0 -0.00000000000E+00 -0.00000000000E+00 -0.45593999997E+02  0.45594000000E+02  0.51100000000E-03 0.  1.
    9900012    2    1    2    0    0 -0.31342281936E+02 -0.19348255495E+02  0.17218373140E+02  0.50528855872E+02  0.29999987908E+02 0.  0.
         12    1    1    2    0    0  0.31342281936E+02  0.19348255495E+02 -0.17218373140E+02  0.40659144128E+02  0.00000000000E+00 0. -1.
         11    1    3    3    0    0 -0.20930168956E+01 -0.22959976580E+01  0.88524028972E+01  0.93817568870E+01  0.51100000000E-03 0. -1.
        -11    1    3    3    0    0 -0.24583354303E+02 -0.20984126616E+02  0.11476317762E+02  0.34298407372E+02  0.51100000000E-03 0.  1.
         12    1    3    3    0    0 -0.46659107374E+01  0.39318687794E+01 -0.31103475199E+01  0.68486916125E+01  0.00000000000E+00 0. -1.
</event>
<event>
 7    1  0.2680581E-011  0.5052886E+02  0.7816164E-02  0.1300439E+00
        -11   -1    0    0    0    0  0.00000000000E+00  0.00000000000E+00  0.45593999997E+02  0.45594000000E+02  0.51100000000E-03 0. -1.
         11   -1    0    0    0    0 -0.00000000000E+00 -0.00000000000E+00 -0.45593999997E+02  0.45594000000E+02  0.51100000000E-03 0.  1.
    9900012    2    1    2    0    0 -0.19318157000E+02 -0.23752490557E+02 -0.26754326662E+02  0.50528855977E+02  0.29999988227E+02 0.  0.
         12    1    1    2    0    0  0.19318157000E+02  0.23752490557E+02  0.26754326662E+02  0.40659144023E+02  0.00000000000E+00 0. -1.
         11    1    3    3    0    0 -0.10782016849E+02 -0.36977692698E+01 -0.42445447244E+01  0.12163122341E+02  0.51100000000E-03 0. -1.
        -11    1    3    3    0    0 -0.13533676631E+02 -0.10358690570E+02 -0.21464185490E+02  0.27407556120E+02  0.51100000000E-03 0.  1.
         12    1    3    3    0    0  0.49975364797E+01 -0.96960307173E+01 -0.10455964484E+01  0.10958177516E+02  0.00000000000E+00 0. -1.
</event>
<event>
 7    1  0.2680581E-011  0.5052886E+02  0.7816164E-02  0.1300439E+00
        -11   -1    0    0    0    0  0.00000000000E+00  0.00000000000E+00  0.45593999997E+02  0.45594000000E+02  0.51100000000E-03 0. -1.
         11   -1    0    0    0    0 -0.00000000000E+00 -0.00000000000E+00 -0.45593999997E+02  0.45594000000E+02  0.51100000000E-03 0.  1.
    9900012    2    1    2    0    0 -0.15034044541E+02 -0.34876125666E+02  0.14518930165E+02  0.50528856258E+02  0.29999989081E+02 0.  0.
         12    1    1    2    0    0  0.15034044541E+02  0.34876125666E+02 -0.14518930165E+02  0.40659143742E+02  0.00000000000E+00 0. -1.
         11    1    3    3    0    0 -0.50899213524E+01 -0.51065162543E+01  0.57297845632E+01  0.92094646440E+01  0.51100000000E-03 0. -1.
        -11    1    3    3    0    0  0.24961097882E+01 -0.25314144403E+02  0.11358793558E+02  0.27857829461E+02  0.51100000000E-03 0.  1.
        -12    1    3    3    0    0 -0.12440232977E+02 -0.44554650091E+01 -0.25696479571E+01  0.13461562153E+02  0.00000000000E+00 0.  1.
</event>
<event>
 7    1  0.2680581E-011  0.5052886E+02  0.7816164E-02  0.1300439E+00
        -11   -1    0    0    0    0  0.00000000000E+00  0.00000000000E+00  0.45593999997E+02  0.45594000000E+02  0.51100000000E-03 0. -1.
         11   -1    0    0    0    0 -0.00000000000E+00 -0.00000000000E+00 -0.45593999997E+02  0.45594000000E+02  0.51100000000E-03 0.  1.
    9900012    2    1    2    0    0 -0.11913295640E+02  0.14966257820E+02 -0.35878272526E+02  0.50528856802E+02  0.29999990736E+02 0.  0.
         12    1    1    2    0    0  0.11913295640E+02 -0.14966257820E+02  0.35878272526E+02  0.40659143198E+02  0.00000000000E+00 0. -1.
         11    1    3    3    0    0  0.49002664319E+00  0.98820301644E+00 -0.14396576790E+02  0.14438770545E+02  0.51100000000E-03 0. -1.
        -11    1    3    3    0    0  0.49965090088E+01  0.99171299009E+01 -0.90148815295E+01  0.14303239388E+02  0.51100000000E-03 0.  1.
         12    1    3    3    0    0 -0.17399831292E+02  0.40609249025E+01 -0.12466814207E+02  0.21786846869E+02  0.00000000000E+00 0. -1.
</event>
<event>
 7    1  0.2680581E-011  0.5052886E+02  0.7816164E-02  0.1300439E+00
        -11   -1    0    0    0    0  0.00000000000E+00  0.00000000000E+00  0.45593999997E+02  0.45594000000E+02  0.51100000000E-03 0.  1.
         11   -1    0    0    0    0 -0.00000000000E+00 -0.00000000000E+00 -0.45593999997E+02  0.45594000000E+02  0.51100000000E-03 0. -1.
    9900012    2    1    2    0    0 -0.37382178008E+02  0.63163368889E+01  0.14691579105E+02  0.50528857843E+02  0.29999993901E+02 0.  0.
         12    1    1    2    0    0  0.37382178008E+02 -0.63163368889E+01 -0.14691579105E+02  0.40659142157E+02  0.00000000000E+00 0. -1.
         11    1    3    3    0    0 -0.73856816738E+01  0.44106512638E+01 -0.17983322577E+01  0.87884092718E+01  0.51100000000E-03 0. -1.
        -11    1    3    3    0    0 -0.25699295602E+02 -0.65421676453E+01  0.52426551938E+01  0.27032187956E+02  0.51100000000E-03 0.  1.
         12    1    3    3    0    0 -0.42972007318E+01  0.84478532704E+01  0.11247256169E+02  0.14708260616E+02  0.00000000000E+00 0. -1.
</event>
<event>
 7    1  0.2680581E-011  0.5052887E+02  0.7816164E-02  0.1300439E+00
        -11   -1    0    0    0    0  0.00000000000E+00  0.00000000000E+00  0.45593999997E+02  0.45594000000E+02  0.51100000000E-03 0.  1.
         11   -1    0    0    0    0 -0.00000000000E+00 -0.00000000000E+00 -0.45593999997E+02  0.45594000000E+02  0.51100000000E-03 0. -1.
    9900012    2    1    2    0    0 -0.20189916936E+02 -0.31991316539E+02  0.14902619411E+02  0.50528866400E+02  0.30000019910E+02 0.  0.
         12    1    1    2    0    0  0.20189916936E+02  0.31991316539E+02 -0.14902619411E+02  0.40659133600E+02  0.00000000000E+00 0. -1.
         11    1    3    3    0    0  0.25400620546E+01 -0.32020832799E+01 -0.43213135486E+01  0.59480251865E+01  0.51100000000E-03 0. -1.
        -11    1    3    3    0    0 -0.39264973320E+01 -0.10094175063E+02  0.13754517498E+02  0.17507041537E+02  0.51100000000E-03 0.  1.
        -12    1    3    3    0    0 -0.18803481659E+02 -0.18695058196E+02  0.54694154611E+01  0.27073799677E+02  0.00000000000E+00 0.  1.
</event>
<event>
 7    1  0.2680581E-011  0.5052886E+02  0.7816164E-02  0.1300439E+00
        -11   -1    0    0    0    0  0.00000000000E+00  0.00000000000E+00  0.45593999997E+02  0.45594000000E+02  0.51100000000E-03 0.  1.
         11   -1    0    0    0    0 -0.00000000000E+00 -0.00000000000E+00 -0.45593999997E+02  0.45594000000E+02  0.51100000000E-03 0. -1.
    9900012    2    1    2    0    0 -0.84086383946E+00 -0.39619892707E+02  0.90951973332E+01  0.50528861241E+02  0.30000004228E+02 0.  0.
         12    1    1    2    0    0  0.84086383946E+00  0.39619892707E+02 -0.90951973332E+01  0.40659138759E+02  0.00000000000E+00 0. -1.
         11    1    3    3    0    0  0.68890832240E+01 -0.90271083665E+01  0.16780557884E+01  0.11478851189E+02  0.51100000000E-03 0. -1.
        -11    1    3    3    0    0  0.15375301950E+01 -0.12943929188E+02  0.12937753451E+02  0.18365586474E+02  0.51100000000E-03 0.  1.
        -12    1    3    3    0    0 -0.92674772585E+01 -0.17648855152E+02 -0.55206119060E+01  0.20684423577E+02  0.00000000000E+00 0.  1.
</event>
<event>
 7    1  0.2680581E-011  0.5052886E+02  0.7816164E-02  0.1300439E+00
        -11   -1    0    0    0    0  0.00000000000E+00  0.00000000000E+00  0.45593999997E+02  0.45594000000E+02  0.51100000000E-03 0. -1.
         11   -1    0    0    0    0 -0.00000000000E+00 -0.00000000000E+00 -0.45593999997E+02  0.45594000000E+02  0.51100000000E-03 0.  1.
    9900012    2    1    2    0    0  0.88891309952E+01 -0.34835689502E+02 -0.18990091153E+02  0.50528862344E+02  0.30000007581E+02 0.  0.
         12    1    1    2    0    0 -0.88891309952E+01  0.34835689502E+02  0.18990091153E+02  0.40659137656E+02  0.00000000000E+00 0. -1.
         11    1    3    3    0    0  0.12273562400E+02 -0.99348018105E+01 -0.26955459098E+01  0.16018944691E+02  0.51100000000E-03 0. -1.
        -11    1    3    3    0    0 -0.29663692335E+01 -0.28147302538E+01  0.30861406680E+01  0.51231159771E+01  0.51100000000E-03 0.  1.
        -12    1    3    3    0    0 -0.41806217142E+00 -0.22086157438E+02 -0.19380685911E+02  0.29386801676E+02  0.00000000000E+00 0.  1.
</event>
<event>
 7    1  0.2680581E-011  0.5052886E+02  0.7816164E-02  0.1300439E+00
        -11   -1    0    0    0    0  0.00000000000E+00  0.00000000000E+00  0.45593999997E+02  0.45594000000E+02  0.51100000000E-03 0. -1.
         11   -1    0    0    0    0 -0.00000000000E+00 -0.00000000000E+00 -0.45593999997E+02  0.45594000000E+02  0.51100000000E-03 0.  1.
    9900012    2    1    2    0    0 -0.31638550215E+02  0.12836135470E+02 -0.22077176498E+02  0.50528856433E+02  0.29999989612E+02 0.  0.
         12    1    1    2    0    0  0.31638550215E+02 -0.12836135470E+02  0.22077176498E+02  0.40659143567E+02  0.00000000000E+00 0. -1.
         11    1    3    3    0    0 -0.13882122057E+02  0.99089010019E+01 -0.11456872806E+02  0.20546522008E+02  0.51100000000E-03 0. -1.
        -11    1    3    3    0    0 -0.14117780426E+02  0.86294733024E+01  0.95683319888E+00  0.16573927225E+02  0.51100000000E-03 0.  1.
         12    1    3    3    0    0 -0.36386477322E+01 -0.57022388344E+01 -0.11577136890E+02  0.13408407199E+02  0.00000000000E+00 0. -1.
</event>
<event>
 7    1  0.2680581E-011  0.5052886E+02  0.7816164E-02  0.1300439E+00
        -11   -1    0    0    0    0  0.00000000000E+00  0.00000000000E+00  0.45593999997E+02  0.45594000000E+02  0.51100000000E-03 0.  1.
         11   -1    0    0    0    0 -0.00000000000E+00 -0.00000000000E+00 -0.45593999997E+02  0.45594000000E+02  0.51100000000E-03 0. -1.
    9900012    2    1    2    0    0  0.40056542217E+02  0.57497012888E+01 -0.39471921756E+01  0.50528856313E+02  0.29999989249E+02 0.  0.
         12    1    1    2    0    0 -0.40056542217E+02 -0.57497012888E+01  0.39471921756E+01  0.40659143687E+02  0.00000000000E+00 0. -1.
         11    1    3    3    0    0  0.64550236521E+01 -0.52068185259E+01 -0.75849876888E+01  0.11238786768E+02  0.51100000000E-03 0. -1.
        -11    1    3    3    0    0  0.28011890427E+02  0.15822977863E+01  0.10651689070E+01  0.28076756520E+02  0.51100000000E-03 0.  1.
         12    1    3    3    0    0  0.55896281375E+01  0.93742220284E+01  0.25726266062E+01  0.11213313026E+02  0.00000000000E+00 0. -1.
</event>
<event>
 7    1  0.2680581E-011  0.5052887E+02  0.7816164E-02  0.1300439E+00
        -11   -1    0    0    0    0  0.00000000000E+00  0.00000000000E+00  0.45593999997E+02  0.45594000000E+02  0.51100000000E-03 0.  1.
         11   -1    0    0    0    0 -0.00000000000E+00 -0.00000000000E+00 -0.45593999997E+02  0.45594000000E+02  0.51100000000E-03 0. -1.
    9900012    2    1    2    0    0 -0.81724927796E+01 -0.28636900172E+02  0.27682177172E+02  0.50528872824E+02  0.30000039437E+02 0.  0.
         12    1    1    2    0    0  0.81724927796E+01  0.28636900172E+02 -0.27682177172E+02  0.40659127176E+02  0.00000000000E+00 0. -1.
         11    1    3    3    0    0 -0.80011513231E+00 -0.22184851442E+01  0.59311122968E+01  0.63827857475E+01  0.51100000000E-03 0. -1.
        -11    1    3    3    0    0 -0.11335678768E+02 -0.13552883766E+02  0.24695966998E+02  0.30365590028E+02  0.51100000000E-03 0.  1.
         12    1    3    3    0    0  0.39633011204E+01 -0.12865531261E+02 -0.29449021229E+01  0.13780497049E+02  0.00000000000E+00 0. -1.
</event>
<event>
 7    1  0.2680581E-011  0.5052886E+02  0.7816164E-02  0.1300439E+00
        -11   -1    0    0    0    0  0.00000000000E+00  0.00000000000E+00  0.45593999997E+02  0.45594000000E+02  0.51100000000E-03 0.  1.
         11   -1    0    0    0    0 -0.00000000000E+00 -0.00000000000E+00 -0.45593999997E+02  0.45594000000E+02  0.51100000000E-03 0. -1.
    9900012    2    1    2    0    0 -0.74493008512E+01  0.15989134099E+02  0.36633608065E+02  0.50528859179E+02  0.29999997961E+02 0.  0.
         12    1    1    2    0    0  0.74493008512E+01 -0.15989134099E+02 -0.36633608065E+02  0.40659140821E+02  0.00000000000E+00 0. -1.
         11    1    3    3    0    0  0.38656096296E+00 -0.50826119591E+01  0.24721410260E+01  0.56651438833E+01  0.51100000000E-03 0. -1.
        -11    1    3    3    0    0  0.36668195773E+01  0.11925741123E+02  0.78922895876E+01  0.14763370290E+02  0.51100000000E-03 0.  1.
         12    1    3    3    0    0 -0.11502681391E+02  0.91460049350E+01  0.26269177452E+02  0.30100345006E+02  0.00000000000E+00 0. -1.
</event>
<event>
 7    1  0.2680581E-011  0.5052886E+02  0.7816164E-02  0.1300439E+00
        -11   -1    0    0    0    0  0.00000000000E+00  0.00000000000E+00  0.45593999997E+02  0.45594000000E+02  0.51100000000E-03 0.  1.
         11   -1    0    0    0    0 -0.00000000000E+00 -0.00000000000E+00 -0.45593999997E+02  0.45594000000E+02  0.51100000000E-03 0. -1.
    9900012    2    1    2    0    0  0.20314910493E+01  0.34646705203E+02  0.21181223593E+02  0.50528863632E+02  0.30000011496E+02 0.  0.
         12    1    1    2    0    0 -0.20314910493E+01 -0.34646705203E+02 -0.21181223593E+02  0.40659136368E+02  0.00000000000E+00 0. -1.
         11    1    3    3    0    0 -0.53599925453E+01  0.48649615962E+01  0.40067080035E+01  0.82735168281E+01  0.51100000000E-03 0. -1.
        -11    1    3    3    0    0 -0.43433353527E+01  0.11736589606E+02  0.16513854474E+02  0.20720026241E+02  0.51100000000E-03 0.  1.
        -12    1    3    3    0    0  0.11734818947E+02  0.18045154001E+02  0.66066111517E+00  0.21535320563E+02  0.00000000000E+00 0.  1.
</event>
<event>
 7    1  0.2680581E-011  0.5052886E+02  0.7816164E-02  0.1300439E+00
        -11   -1    0    0    0    0  0.00000000000E+00  0.00000000000E+00  0.45593999997E+02  0.45594000000E+02  0.51100000000E-03 0. -1.
         11   -1    0    0    0    0 -0.00000000000E+00 -0.00000000000E+00 -0.45593999997E+02  0.45594000000E+02  0.51100000000E-03 0.  1.
    9900012    2    1    2    0    0 -0.36488200885E+02 -0.21464152009E+01 -0.17809257619E+02  0.50528861310E+02  0.30000004439E+02 0.  0.
         12    1    1    2    0    0  0.36488200885E+02  0.21464152009E+01  0.17809257619E+02  0.40659138690E+02  0.00000000000E+00 0. -1.
         11    1    3    3    0    0 -0.13191776093E+02 -0.18412214345E+01  0.11979396330E+01  0.13373410652E+02  0.51100000000E-03 0. -1.
        -11    1    3    3    0    0 -0.75573313387E+01  0.85348444255E+01 -0.66348687773E+00  0.11419152395E+02  0.51100000000E-03 0.  1.
        -12    1    3    3    0    0 -0.15739093454E+02 -0.88400381919E+01 -0.18343710374E+02  0.25736298263E+02  0.00000000000E+00 0.  1.
</event>
<event>
 7    1  0.2680581E-011  0.5052886E+02  0.7816164E-02  0.1300439E+00
        -11   -1    0    0    0    0  0.00000000000E+00  0.00000000000E+00  0.45593999997E+02  0.45594000000E+02  0.51100000000E-03 0. -1.
         11   -1    0    0    0    0 -0.00000000000E+00 -0.00000000000E+00 -0.45593999997E+02  0.45594000000E+02  0.51100000000E-03 0.  1.
    9900012    2    1    2    0    0 -0.29757473684E+01 -0.22219278515E+02 -0.33920705827E+02  0.50528859651E+02  0.29999999396E+02 0.  0.
         12    1    1    2    0    0  0.29757473684E+01  0.22219278515E+02  0.33920705827E+02  0.40659140349E+02  0.00000000000E+00 0. -1.
         11    1    3    3    0    0 -0.11036704865E+02  0.18081939280E+00 -0.42748814226E+01  0.11837067262E+02  0.51100000000E-03 0. -1.
        -11    1    3    3    0    0  0.15392502219E+01 -0.41474098131E+01 -0.18268237407E+01  0.47861868585E+01  0.51100000000E-03 0.  1.
         12    1    3    3    0    0  0.65217072749E+01 -0.18252688095E+02 -0.27819000663E+02  0.33905605530E+02  0.00000000000E+00 0. -1.
</event>
<event>
 7    1  0.2680581E-011  0.5052886E+02  0.7816164E-02  0.1300439E+00
        -11   -1    0    0    0    0  0.00000000000E+00  0.00000000000E+00  0.45593999997E+02  0.45594000000E+02  0.51100000000E-03 0.  1.
         11   -1    0    0    0    0 -0.00000000000E+00 -0.00000000000E+00 -0.45593999997E+02  0.45594000000E+02  0.51100000000E-03 0. -1.
    9900012    2    1    2    0    0 -0.10400496015E+02  0.38207395882E+02  0.92298489051E+01  0.50528861688E+02  0.30000005588E+02 0.  0.
         12    1    1    2    0    0  0.10400496015E+02 -0.38207395882E+02 -0.92298489051E+01  0.40659138312E+02  0.00000000000E+00 0. -1.
         11    1    3    3    0    0 -0.98201688373E+01  0.28758356206E+02  0.25744676824E+01  0.30497649938E+02  0.51100000000E-03 0. -1.
        -11    1    3    3    0    0 -0.60280120501E+01  0.10059553150E+02  0.82308253820E+01  0.14327526848E+02  0.51100000000E-03 0.  1.
         12    1    3    3    0    0  0.54476848720E+01 -0.61051347342E+00 -0.15754441593E+01  0.57036849023E+01  0.00000000000E+00 0. -1.
</event>
<event>
 7    1  0.2680581E-011  0.5052886E+02  0.7816164E-02  0.1300439E+00
        -11   -1    0    0    0    0  0.00000000000E+00  0.00000000000E+00  0.45593999997E+02  0.45594000000E+02  0.51100000000E-03 0.  1.
         11   -1    0    0    0    0 -0.00000000000E+00 -0.00000000000E+00 -0.45593999997E+02  0.45594000000E+02  0.51100000000E-03 0. -1.
    9900012    2    1    2    0    0  0.21421974592E+02  0.34207263209E+02  0.49120108066E+01  0.50528859554E+02  0.29999999100E+02 0.  0.
         12    1    1    2    0    0 -0.21421974592E+02 -0.34207263209E+02 -0.49120108066E+01  0.40659140446E+02  0.00000000000E+00 0. -1.
         11    1    3    3    0    0 -0.23400412159E+01 -0.53996836378E-01  0.27574415452E+01  0.36169313909E+01  0.51100000000E-03 0. -1.
        -11    1    3    3    0    0  0.20185673741E+02  0.10983877429E+02 -0.17198304966E+01  0.23044843348E+02  0.51100000000E-03 0.  1.
         12    1    3    3    0    0  0.35763420668E+01  0.23277382617E+02  0.38743997579E+01  0.23867084815E+02  0.00000000000E+00 0. -1.
</event>
<event>
 7    1  0.2680581E-011  0.5052886E+02  0.7816164E-02  0.1300439E+00
        -11   -1    0    0    0    0  0.00000000000E+00  0.00000000000E+00  0.45593999997E+02  0.45594000000E+02  0.51100000000E-03 0. -1.
         11   -1    0    0    0    0 -0.00000000000E+00 -0.00000000000E+00 -0.45593999997E+02  0.45594000000E+02  0.51100000000E-03 0.  1.
    9900012    2    1    2    0    0  0.42771604664E+00  0.32034231575E+02 -0.25035788056E+02  0.50528860594E+02  0.30000002262E+02 0.  0.
         12    1    1    2    0    0 -0.42771604664E+00 -0.32034231575E+02  0.25035788056E+02  0.40659139406E+02  0.00000000000E+00 0. -1.
         11    1    3    3    0    0 -0.56538043660E+01  0.10044329893E+02  0.26198062318E+00  0.11529210767E+02  0.51100000000E-03 0. -1.
        -11    1    3    3    0    0 -0.37984093616E+01  0.18062631078E+02 -0.12179313324E+02  0.22113846984E+02  0.51100000000E-03 0.  1.
         12    1    3    3    0    0  0.98799297742E+01  0.39272706047E+01 -0.13118455356E+02  0.16885802843E+02  0.00000000000E+00 0. -1.
</event>
<event>
 7    1  0.2680581E-011  0.5052892E+02  0.7816164E-02  0.1300439E+00
        -11   -1    0    0    0    0  0.00000000000E+00  0.00000000000E+00  0.45593999997E+02  0.45594000000E+02  0.51100000000E-03 0. -1.
         11   -1    0    0    0    0 -0.00000000000E+00 -0.00000000000E+00 -0.45593999997E+02  0.45594000000E+02  0.51100000000E-03 0.  1.
    9900012    2    1    2    0    0  0.61095218008E+01 -0.28176042482E+02 -0.28669581614E+02  0.50528923074E+02  0.30000192174E+02 0.  0.
         12    1    1    2    0    0 -0.61095218008E+01  0.28176042482E+02  0.28669581614E+02  0.40659076926E+02  0.00000000000E+00 0. -1.
         11    1    3    3    0    0  0.19658445253E+01 -0.10337097455E+02 -0.13702794633E+02  0.17276767913E+02  0.51100000000E-03 0. -1.
        -11    1    3    3    0    0 -0.83226878538E+01 -0.14365469830E+02 -0.67450432831E+01  0.17920085538E+02  0.51100000000E-03 0.  1.
         12    1    3    3    0    0  0.12466365129E+02 -0.34734751975E+01 -0.82217436981E+01  0.15332069623E+02  0.00000000000E+00 0. -1.
</event>
<event>
 7    1  0.2680581E-011  0.5052885E+02  0.7816164E-02  0.1300439E+00
        -11   -1    0    0    0    0  0.00000000000E+00  0.00000000000E+00  0.45593999997E+02  0.45594000000E+02  0.51100000000E-03 0. -1.
         11   -1    0    0    0    0 -0.00000000000E+00 -0.00000000000E+00 -0.45593999997E+02  0.45594000000E+02  0.51100000000E-03 0.  1.
    9900012    2    1    2    0    0  0.80464013925E+01 -0.28189734522E+02 -0.28173765117E+02  0.50528846681E+02  0.29999959971E+02 0.  0.
         12    1    1    2    0    0 -0.80464013925E+01  0.28189734522E+02  0.28173765117E+02  0.40659153319E+02  0.00000000000E+00 0. -1.
         11    1    3    3    0    0 -0.10240013567E+02 -0.14048509414E+02 -0.12384993969E+02  0.21344942504E+02  0.51100000000E-03 0.  1.
        -11    1    3    3    0    0  0.19066567151E+01 -0.18596913532E+01 -0.58467360056E+01  0.64248045837E+01  0.51100000000E-03 0. -1.
        -12    1    3    3    0    0  0.16379758245E+02 -0.12281533755E+02 -0.99420351417E+01  0.22759099593E+02  0.00000000000E+00 0.  1.
</event>
<event>
 7    1  0.2680581E-011  0.5052878E+02  0.7816164E-02  0.1300439E+00
        -11   -1    0    0    0    0  0.00000000000E+00  0.00000000000E+00  0.45593999997E+02  0.45594000000E+02  0.51100000000E-03 0.  1.
         11   -1    0    0    0    0 -0.00000000000E+00 -0.00000000000E+00 -0.45593999997E+02  0.45594000000E+02  0.51100000000E-03 0. -1.
    9900012    2    1    2    0    0 -0.23883685354E+02 -0.14197806248E+02  0.29684409419E+02  0.50528778525E+02  0.29999752805E+02 0.  0.
         12    1    1    2    0    0  0.23883685354E+02  0.14197806248E+02 -0.29684409419E+02  0.40659221475E+02  0.00000000000E+00 0. -1.
         11    1    3    3    0    0 -0.12339005392E+02  0.13766880146E+01  0.43624963037E+01  0.13159699776E+02  0.51100000000E-03 0. -1.
        -11    1    3    3    0    0  0.29872492880E+01  0.27403254073E+01  0.29855558064E+01  0.50345392421E+01  0.51100000000E-03 0.  1.
        -12    1    3    3    0    0 -0.14531929250E+02 -0.18314819670E+02  0.22336357309E+02  0.32334539507E+02  0.00000000000E+00 0.  1.
</event>
<event>
 7    1  0.2680581E-011  0.5052886E+02  0.7816164E-02  0.1300439E+00
        -11   -1    0    0    0    0  0.00000000000E+00  0.00000000000E+00  0.45593999997E+02  0.45594000000E+02  0.51100000000E-03 0.  1.
         11   -1    0    0    0    0 -0.00000000000E+00 -0.00000000000E+00 -0.45593999997E+02  0.45594000000E+02  0.51100000000E-03 0. -1.
    9900012    2    1    2    0    0  0.39267391209E+02  0.10541372587E+02  0.34222087824E+00  0.50528860025E+02  0.30000000531E+02 0.  0.
         12    1    1    2    0    0 -0.39267391209E+02 -0.10541372587E+02 -0.34222087824E+00  0.40659139975E+02  0.00000000000E+00 0. -1.
         11    1    3    3    0    0  0.12242040975E+02 -0.10056682698E+02 -0.33010036870E+01  0.16183357492E+02  0.51100000000E-03 0. -1.
        -11    1    3    3    0    0  0.63819452923E+01  0.32146986675E+01  0.30708882825E+00  0.71524692971E+01  0.51100000000E-03 0.  1.
         12    1    3    3    0    0  0.20643404942E+02  0.17383356617E+02  0.33361357370E+01  0.27193033235E+02  0.00000000000E+00 0. -1.
</event>
<event>
 7    1  0.2680581E-011  0.5052884E+02  0.7816164E-02  0.1300439E+00
        -11   -1    0    0    0    0  0.00000000000E+00  0.00000000000E+00  0.45593999997E+02  0.45594000000E+02  0.51100000000E-03 0.  1.
         11   -1    0    0    0    0 -0.00000000000E+00 -0.00000000000E+00 -0.45593999997E+02  0.45594000000E+02  0.51100000000E-03 0. -1.
    9900012    2    1    2    0    0 -0.19350909771E+00 -0.40599252337E+02 -0.21978962471E+01  0.50528837637E+02  0.29999932482E+02 0.  0.
         12    1    1    2    0    0  0.19350909771E+00  0.40599252337E+02  0.21978962471E+01  0.40659162363E+02  0.00000000000E+00 0. -1.
         11    1    3    3    0    0 -0.20874163009E+01 -0.78766714320E+01 -0.46919856951E+01  0.94028713533E+01  0.51100000000E-03 0.  1.
        -11    1    3    3    0    0 -0.46380870737E+01 -0.85496741575E+01 -0.92912397486E+01  0.13451242182E+02  0.51100000000E-03 0. -1.
        -12    1    3    3    0    0  0.65319942769E+01 -0.24172906748E+02  0.11785329197E+02  0.27674724102E+02  0.00000000000E+00 0.  1.
</event>
<event>
 7    1  0.4549115E-011  0.5052886E+02  0.7816164E-02  0.1300439E+00
        -11   -1    0    0    0    0  0.00000000000E+00  0.00000000000E+00  0.45593999997E+02  0.45594000000E+02  0.51100000000E-03 0. -1.
         11   -1    0    0    0    0 -0.00000000000E+00 -0.00000000000E+00 -0.45593999997E+02  0.45594000000E+02  0.51100000000E-03 0.  1.
    9900012    2    1    2    0    0 -0.20242519942E+02 -0.23322263854E+01 -0.35184748978E+02  0.50528862599E+02  0.30000008357E+02 0.  0.
         12    1    1    2    0    0  0.20242519942E+02  0.23322263854E+01  0.35184748978E+02  0.40659137401E+02  0.00000000000E+00 0. -1.
         11    1    3    3    0    0 -0.15815641799E+01 -0.13261993613E+00  0.24793197718E+01  0.29438002810E+01  0.51100000000E-03 0. -1.
        -11    1    3    3    0    0  0.37885134717E+00  0.76167493753E+01 -0.88917544368E+01  0.11714166493E+02  0.51100000000E-03 0.  1.
        -12    1    3    3    0    0 -0.19039807110E+02 -0.98163558246E+01 -0.28772314313E+02  0.35870895826E+02  0.00000000000E+00 0.  1.
</event>
<event>
 7    1  0.2680581E-011  0.5052886E+02  0.7816164E-02  0.1300439E+00
        -11   -1    0    0    0    0  0.00000000000E+00  0.00000000000E+00  0.45593999997E+02  0.45594000000E+02  0.51100000000E-03 0.  1.
         11   -1    0    0    0    0 -0.00000000000E+00 -0.00000000000E+00 -0.45593999997E+02  0.45594000000E+02  0.51100000000E-03 0. -1.
    9900012    2    1    2    0    0 -0.28013823341E+02  0.22145071261E+02  0.19441885356E+02  0.50528863443E+02  0.30000010921E+02 0.  0.
         12    1    1    2    0    0  0.28013823341E+02 -0.22145071261E+02 -0.19441885356E+02  0.40659136557E+02  0.00000000000E+00 0. -1.
         11    1    3    3    0    0 -0.12239571065E+02 -0.19223377324E+01  0.66836638021E+01  0.14077423212E+02  0.51100000000E-03 0. -1.
        -11    1    3    3    0    0 -0.17037108783E+02  0.98056534296E+01  0.55733246462E+01  0.20432226083E+02  0.51100000000E-03 0.  1.
         12    1    3    3    0    0  0.12628565059E+01  0.14261755564E+02  0.71848969082E+01  0.16019214147E+02  0.00000000000E+00 0. -1.
</event>
<event>
 7    1  0.2680581E-011  0.5052887E+02  0.7816164E-02  0.1300439E+00
        -11   -1    0    0    0    0  0.00000000000E+00  0.00000000000E+00  0.45593999997E+02  0.45594000000E+02  0.51100000000E-03 0. -1.
         11   -1    0    0    0    0 -0.00000000000E+00 -0.00000000000E+00 -0.45593999997E+02  0.45594000000E+02  0.51100000000E-03 0.  1.
    9900012    2    1    2    0    0 -0.30489479658E+02 -0.39490618301E+01 -0.26607544503E+02  0.50528869615E+02  0.30000029683E+02 0.  0.
         12    1    1    2    0    0  0.30489479658E+02  0.39490618301E+01  0.26607544503E+02  0.40659130385E+02  0.00000000000E+00 0. -1.
         11    1    3    3    0    0 -0.48809815319E+01 -0.55439957608E+00  0.34824434130E+01  0.60215240588E+01  0.51100000000E-03 0. -1.
        -11    1    3    3    0    0 -0.23404056936E+01  0.43337193553E+01 -0.14834278561E+02  0.15630561185E+02  0.51100000000E-03 0.  1.
         12    1    3    3    0    0 -0.23268092432E+02 -0.77283816093E+01 -0.15255709355E+02  0.28876784372E+02  0.00000000000E+00 0. -1.
</event>
<event>
 7    1  0.2680581E-011  0.5052872E+02  0.7816164E-02  0.1300439E+00
        -11   -1    0    0    0    0  0.00000000000E+00  0.00000000000E+00  0.45593999997E+02  0.45594000000E+02  0.51100000000E-03 0.  1.
         11   -1    0    0    0    0 -0.00000000000E+00 -0.00000000000E+00 -0.45593999997E+02  0.45594000000E+02  0.51100000000E-03 0. -1.
    9900012    2    1    2    0    0 -0.74253794606E+01 -0.34323243062E+02  0.20492824199E+02  0.50528719165E+02  0.29999572370E+02 0.  0.
         12    1    1    2    0    0  0.74253794606E+01  0.34323243062E+02 -0.20492824199E+02  0.40659280835E+02  0.00000000000E+00 0. -1.
         11    1    3    3    0    0 -0.70828231668E+00 -0.74742956585E+01  0.13015964543E+02  0.15026047141E+02  0.51100000000E-03 0. -1.
        -11    1    3    3    0    0 -0.19296307066E+01 -0.10095434278E+02  0.13588432276E+02  0.17037803846E+02  0.51100000000E-03 0.  1.
         12    1    3    3    0    0 -0.47874664373E+01 -0.16753513125E+02 -0.61115726199E+01  0.18464868177E+02  0.00000000000E+00 0. -1.
</event>
<event>
 7    1  0.2680581E-011  0.5052886E+02  0.7816164E-02  0.1300439E+00
        -11   -1    0    0    0    0  0.00000000000E+00  0.00000000000E+00  0.45593999997E+02  0.45594000000E+02  0.51100000000E-03 0.  1.
         11   -1    0    0    0    0 -0.00000000000E+00 -0.00000000000E+00 -0.45593999997E+02  0.45594000000E+02  0.51100000000E-03 0. -1.
    9900012    2    1    2    0    0 -0.10952100412E+02 -0.34999929167E+02  0.17556260711E+02  0.50528857913E+02  0.29999994112E+02 0.  0.
         12    1    1    2    0    0  0.10952100412E+02  0.34999929167E+02 -0.17556260711E+02  0.40659142087E+02  0.00000000000E+00 0. -1.
         11    1    3    3    0    0  0.30351564069E+01  0.38026100961E+00 -0.40409832990E+01  0.50681672361E+01  0.51100000000E-03 0. -1.
        -11    1    3    3    0    0 -0.23731043423E+01 -0.15524697057E+02  0.32517263892E+01  0.16038128559E+02  0.51100000000E-03 0.  1.
        -12    1    3    3    0    0 -0.11614152476E+02 -0.19855493120E+02  0.18345517621E+02  0.29422562117E+02  0.00000000000E+00 0.  1.
</event>
<event>
 7    1  0.2680581E-011  0.5052886E+02  0.7816164E-02  0.1300439E+00
        -11   -1    0    0    0    0  0.00000000000E+00  0.00000000000E+00  0.45593999997E+02  0.45594000000E+02  0.51100000000E-03 0.  1.
         11   -1    0    0    0    0 -0.00000000000E+00 -0.00000000000E+00 -0.45593999997E+02  0.45594000000E+02  0.51100000000E-03 0. -1.
    9900012    2    1    2    0    0  0.16648120606E+02  0.31989702450E+01  0.36956356141E+02  0.50528860935E+02  0.30000003297E+02 0.  0.
         12    1    1    2    0    0 -0.16648120606E+02 -0.31989702450E+01 -0.36956356141E+02  0.40659139065E+02  0.00000000000E+00 0. -1.
         11    1    3    3    0    0  0.58373603508E+01  0.44668148600E+01  0.29464132109E+02  0.30367125186E+02  0.51100000000E-03 0. -1.
        -11    1    3    3    0    0  0.92727361309E+00 -0.27547695438E+00  0.98949238483E+01  0.99420944540E+01  0.51100000000E-03 0.  1.
         12    1    3    3    0    0  0.98834866425E+01 -0.99236766057E+00 -0.24026998165E+01  0.10219641295E+02  0.00000000000E+00 0. -1.
</event>
<event>
 7    1  0.2680581E-011  0.5052888E+02  0.7816164E-02  0.1300439E+00
        -11   -1    0    0    0    0  0.00000000000E+00  0.00000000000E+00  0.45593999997E+02  0.45594000000E+02  0.51100000000E-03 0.  1.
         11   -1    0    0    0    0 -0.00000000000E+00 -0.00000000000E+00 -0.45593999997E+02  0.45594000000E+02  0.51100000000E-03 0. -1.
    9900012    2    1    2    0    0 -0.40018680051E+02 -0.20413318226E+01  0.68921887024E+01  0.50528879821E+02  0.30000060704E+02 0.  0.
         12    1    1    2    0    0  0.40018680051E+02  0.20413318226E+01 -0.68921887024E+01  0.40659120179E+02  0.00000000000E+00 0. -1.
         11    1    3    3    0    0 -0.17890073567E+02  0.40151931474E+01 -0.39675679814E+01  0.18759480382E+02  0.51100000000E-03 0.  1.
        -11    1    3    3    0    0 -0.22849387014E+02 -0.10331409450E+02  0.11108955817E+02  0.27427019666E+02  0.51100000000E-03 0. -1.
         12    1    3    3    0    0  0.72078053016E+00  0.42748844798E+01 -0.24919913370E+00  0.43423797734E+01  0.00000000000E+00 0. -1.
</event>
<event>
 7    1  0.2680581E-011  0.5052885E+02  0.7816164E-02  0.1300439E+00
        -11   -1    0    0    0    0  0.00000000000E+00  0.00000000000E+00  0.45593999997E+02  0.45594000000E+02  0.51100000000E-03 0.  1.
         11   -1    0    0    0    0 -0.00000000000E+00 -0.00000000000E+00 -0.45593999997E+02  0.45594000000E+02  0.51100000000E-03 0. -1.
    9900012    2    1    2    0    0  0.24199149401E+01 -0.11129673776E+02  0.39031280440E+02  0.50528849991E+02  0.29999970033E+02 0.  0.
         12    1    1    2    0    0 -0.24199149401E+01  0.11129673776E+02 -0.39031280440E+02  0.40659150009E+02  0.00000000000E+00 0. -1.
         11    1    3    3    0    0 -0.29160238467E+01  0.44960467468E+01  0.21043883144E+01  0.57572634005E+01  0.51100000000E-03 0. -1.
        -11    1    3    3    0    0  0.16115789375E+01 -0.50914563535E+01  0.32199574089E+02  0.32639434528E+02  0.51100000000E-03 0.  1.
        -12    1    3    3    0    0  0.37243598493E+01 -0.10534264169E+02  0.47273180360E+01  0.12132152063E+02  0.00000000000E+00 0.  1.
</event>
<event>
 7    1  0.2680581E-011  0.5052886E+02  0.7816164E-02  0.1300439E+00
        -11   -1    0    0    0    0  0.00000000000E+00  0.00000000000E+00  0.45593999997E+02  0.45594000000E+02  0.51100000000E-03 0.  1.
         11   -1    0    0    0    0 -0.00000000000E+00 -0.00000000000E+00 -0.45593999997E+02  0.45594000000E+02  0.51100000000E-03 0. -1.
    9900012    2    1    2    0    0  0.22302777189E+02 -0.23120767424E+02  0.24923522034E+02  0.50528859488E+02  0.29999998898E+02 0.  0.
         12    1    1    2    0    0 -0.22302777189E+02  0.23120767424E+02 -0.24923522034E+02  0.40659140512E+02  0.00000000000E+00 0. -1.
         11    1    3    3    0    0  0.12577445764E+02 -0.16762880708E+02  0.20766048408E+01  0.21059406438E+02  0.51100000000E-03 0. -1.
        -11    1    3    3    0    0  0.30379532336E+01  0.42483738756E+01  0.30863089742E+01  0.60665594683E+01  0.51100000000E-03 0.  1.
        -12    1    3    3    0    0  0.66873781916E+01 -0.10606260592E+02  0.19760608219E+02  0.23402893582E+02  0.00000000000E+00 0.  1.
</event>
<event>
 7    1  0.2680581E-011  0.5052886E+02  0.7816164E-02  0.1300439E+00
        -11   -1    0    0    0    0  0.00000000000E+00  0.00000000000E+00  0.45593999997E+02  0.45594000000E+02  0.51100000000E-03 0.  1.
         11   -1    0    0    0    0 -0.00000000000E+00 -0.00000000000E+00 -0.45593999997E+02  0.45594000000E+02  0.51100000000E-03 0. -1.
    9900012    2    1    2    0    0  0.13793846880E+02  0.23857770810E+02  0.29894851956E+02  0.50528860643E+02  0.30000002410E+02 0.  0.
         12    1    1    2    0    0 -0.13793846880E+02 -0.23857770810E+02 -0.29894851956E+02  0.40659139357E+02  0.00000000000E+00 0. -1.
         11    1    3    3    0    0 -0.20810420308E+01 -0.16346831119E+01  0.23643413783E+01  0.35486666827E+01  0.51100000000E-03 0. -1.
        -11    1    3    3    0    0 -0.33852763120E+01  0.16402967279E+02  0.12924712201E+02  0.21155746666E+02  0.51100000000E-03 0.  1.
         12    1    3    3    0    0  0.19260165222E+02  0.90894866437E+01  0.14605798377E+02  0.25824447294E+02  0.00000000000E+00 0. -1.
</event>
<event>
 7    1  0.2680581E-011  0.5052885E+02  0.7816164E-02  0.1300439E+00
        -11   -1    0    0    0    0  0.00000000000E+00  0.00000000000E+00  0.45593999997E+02  0.45594000000E+02  0.51100000000E-03 0.  1.
         11   -1    0    0    0    0 -0.00000000000E+00 -0.00000000000E+00 -0.45593999997E+02  0.45594000000E+02  0.51100000000E-03 0. -1.
    9900012    2    1    2    0    0  0.24810675004E+02 -0.28252503157E+02  0.15472325106E+02  0.50528851300E+02  0.29999974011E+02 0.  0.
         12    1    1    2    0    0 -0.24810675004E+02  0.28252503157E+02 -0.15472325106E+02  0.40659148700E+02  0.00000000000E+00 0. -1.
         11    1    3    3    0    0  0.21798753307E+01  0.61632428420E+01  0.12524842685E+01  0.66562854424E+01  0.51100000000E-03 0. -1.
        -11    1    3    3    0    0  0.20349229426E+01 -0.55782552899E+01  0.32889547282E+01  0.67878617346E+01  0.51100000000E-03 0.  1.
         12    1    3    3    0    0  0.20595876731E+02 -0.28837490710E+02  0.10930886109E+02  0.37084704123E+02  0.00000000000E+00 0. -1.
</event>
<event>
 7    1  0.2680581E-011  0.5052887E+02  0.7816164E-02  0.1300439E+00
        -11   -1    0    0    0    0  0.00000000000E+00  0.00000000000E+00  0.45593999997E+02  0.45594000000E+02  0.51100000000E-03 0. -1.
         11   -1    0    0    0    0 -0.00000000000E+00 -0.00000000000E+00 -0.45593999997E+02  0.45594000000E+02  0.51100000000E-03 0.  1.
    9900012    2    1    2    0    0  0.14409846456E+02  0.36700508710E+02 -0.99294586405E+01  0.50528866176E+02  0.30000019227E+02 0.  0.
         12    1    1    2    0    0 -0.14409846456E+02 -0.36700508710E+02  0.99294586405E+01  0.40659133824E+02  0.00000000000E+00 0. -1.
         11    1    3    3    0    0  0.55815327004E+01  0.21563212687E+02  0.82821579693E+01  0.23763833646E+02  0.51100000000E-03 0. -1.
        -11    1    3    3    0    0  0.51442570916E+01  0.66278516909E+01 -0.29237476986E+01  0.88848241360E+01  0.51100000000E-03 0.  1.
         12    1    3    3    0    0  0.36840566636E+01  0.85094443321E+01 -0.15287868911E+02  0.17880208393E+02  0.00000000000E+00 0. -1.
</event>
<event>
 7    1  0.2680581E-011  0.5052887E+02  0.7816164E-02  0.1300439E+00
        -11   -1    0    0    0    0  0.00000000000E+00  0.00000000000E+00  0.45593999997E+02  0.45594000000E+02  0.51100000000E-03 0.  1.
         11   -1    0    0    0    0 -0.00000000000E+00 -0.00000000000E+00 -0.45593999997E+02  0.45594000000E+02  0.51100000000E-03 0. -1.
    9900012    2    1    2    0    0 -0.18337025799E+02 -0.10735064928E+02  0.34665205753E+02  0.50528872807E+02  0.30000039385E+02 0.  0.
         12    1    1    2    0    0  0.18337025799E+02  0.10735064928E+02 -0.34665205753E+02  0.40659127193E+02  0.00000000000E+00 0. -1.
         11    1    3    3    0    0  0.17931781048E+01 -0.12305579501E+02  0.91920576892E+01  0.15464045376E+02  0.51100000000E-03 0. -1.
        -11    1    3    3    0    0 -0.44482388094E+01  0.15185936103E+01 -0.49764732749E+00  0.47265852560E+01  0.51100000000E-03 0.  1.
        -12    1    3    3    0    0 -0.15681965094E+02  0.51920962250E-01  0.25970795392E+02  0.30338242175E+02  0.00000000000E+00 0.  1.
</event>
<event>
 7    1  0.2680581E-011  0.5052891E+02  0.7816164E-02  0.1300439E+00
        -11   -1    0    0    0    0  0.00000000000E+00  0.00000000000E+00  0.45593999997E+02  0.45594000000E+02  0.51100000000E-03 0.  1.
         11   -1    0    0    0    0 -0.00000000000E+00 -0.00000000000E+00 -0.45593999997E+02  0.45594000000E+02  0.51100000000E-03 0. -1.
    9900012    2    1    2    0    0 -0.10649418177E+01 -0.23385789096E+02  0.33243532022E+02  0.50528909331E+02  0.30000150403E+02 0.  0.
         12    1    1    2    0    0  0.10649418177E+01  0.23385789096E+02 -0.33243532022E+02  0.40659090669E+02  0.00000000000E+00 0. -1.
         11    1    3    3    0    0 -0.63937208728E+01 -0.47677889841E+01  0.35272599308E+01  0.87208394823E+01  0.51100000000E-03 0. -1.
        -11    1    3    3    0    0 -0.77555691250E+01 -0.30653305137E+01  0.13224502455E+02  0.15634339418E+02  0.51100000000E-03 0.  1.
        -12    1    3    3    0    0  0.13084348180E+02 -0.15552669598E+02  0.16491769636E+02  0.26173730431E+02  0.00000000000E+00 0.  1.
</event>
<event>
 7    1  0.2680581E-011  0.5052887E+02  0.7816164E-02  0.1300439E+00
        -11   -1    0    0    0    0  0.00000000000E+00  0.00000000000E+00  0.45593999997E+02  0.45594000000E+02  0.51100000000E-03 0.  1.
         11   -1    0    0    0    0 -0.00000000000E+00 -0.00000000000E+00 -0.45593999997E+02  0.45594000000E+02  0.51100000000E-03 0. -1.
    9900012    2    1    2    0    0  0.20786361511E+02  0.32242340686E+02  0.13473064018E+02  0.50528870498E+02  0.30000032366E+02 0.  0.
         12    1    1    2    0    0 -0.20786361511E+02 -0.32242340686E+02 -0.13473064018E+02  0.40659129502E+02  0.00000000000E+00 0. -1.
         11    1    3    3    0    0  0.11030744617E+02  0.11765441299E+02 -0.25757249024E+01  0.16332094012E+02  0.51100000000E-03 0. -1.
        -11    1    3    3    0    0  0.13333533070E+02  0.21470017708E+02  0.10168634881E+02  0.27242354893E+02  0.51100000000E-03 0.  1.
         12    1    3    3    0    0 -0.35779161764E+01 -0.99311832073E+00  0.58801540399E+01  0.69544215933E+01  0.00000000000E+00 0. -1.
</event>
<event>
 7    1  0.2680581E-011  0.5052880E+02  0.7816164E-02  0.1300439E+00
        -11   -1    0    0    0    0  0.00000000000E+00  0.00000000000E+00  0.45593999997E+02  0.45594000000E+02  0.51100000000E-03 0. -1.
         11   -1    0    0    0    0 -0.00000000000E+00 -0.00000000000E+00 -0.45593999997E+02  0.45594000000E+02  0.51100000000E-03 0.  1.
    9900012    2    1    2    0    0  0.25064018558E+02 -0.16080291726E+02 -0.27683740611E+02  0.50528802978E+02  0.29999827133E+02 0.  0.
         12    1    1    2    0    0 -0.25064018558E+02  0.16080291726E+02  0.27683740611E+02  0.40659197022E+02  0.00000000000E+00 0. -1.
         11    1    3    3    0    0  0.16668748863E+00  0.24323980833E+01  0.10205683631E+01  0.26430863020E+01  0.51100000000E-03 0. -1.
        -11    1    3    3    0    0 -0.24132912482E+01 -0.88376009749E+01 -0.90304129821E+01  0.12863729029E+02  0.51100000000E-03 0.  1.
         12    1    3    3    0    0  0.27310622317E+02 -0.96750888340E+01 -0.19673895992E+02  0.35021987648E+02  0.00000000000E+00 0. -1.
</event>
<event>
 7    1  0.2680581E-011  0.5052900E+02  0.7816164E-02  0.1300438E+00
        -11   -1    0    0    0    0  0.00000000000E+00  0.00000000000E+00  0.45593999997E+02  0.45594000000E+02  0.51100000000E-03 0.  1.
         11   -1    0    0    0    0 -0.00000000000E+00 -0.00000000000E+00 -0.45593999997E+02  0.45594000000E+02  0.51100000000E-03 0. -1.
    9900012    2    1    2    0    0 -0.39276024379E+02  0.70455510870E+01 -0.78043638781E+01  0.50529003743E+02  0.30000437373E+02 0.  0.
         12    1    1    2    0    0  0.39276024379E+02 -0.70455510870E+01  0.78043638781E+01  0.40658996257E+02  0.00000000000E+00 0. -1.
         11    1    3    3    0    0 -0.18362757512E+02  0.10163702895E+02 -0.11637473406E+02  0.23998385519E+02  0.51100000000E-03 0.  1.
        -11    1    3    3    0    0 -0.24931667816E+01 -0.39062550565E+01 -0.43530824130E+01  0.63579899278E+01  0.51100000000E-03 0. -1.
         12    1    3    3    0    0 -0.18420100085E+02  0.78810324823E+00  0.81861919408E+01  0.20172628296E+02  0.00000000000E+00 0. -1.
</event>
<event>
 7    1  0.2680581E-011  0.5052887E+02  0.7816164E-02  0.1300439E+00
        -11   -1    0    0    0    0  0.00000000000E+00  0.00000000000E+00  0.45593999997E+02  0.45594000000E+02  0.51100000000E-03 0.  1.
         11   -1    0    0    0    0 -0.00000000000E+00 -0.00000000000E+00 -0.45593999997E+02  0.45594000000E+02  0.51100000000E-03 0. -1.
    9900012    2    1    2    0    0  0.26515030394E+01 -0.39134336651E+02 -0.10706927481E+02  0.50528867329E+02  0.30000022734E+02 0.  0.
         12    1    1    2    0    0 -0.26515030394E+01  0.39134336651E+02  0.10706927481E+02  0.40659132671E+02  0.00000000000E+00 0. -1.
         11    1    3    3    0    0  0.19063334956E+01 -0.75557945813E+01 -0.82473513359E+01  0.11346494766E+02  0.51100000000E-03 0. -1.
        -11    1    3    3    0    0 -0.52174761987E+01 -0.30923471832E+02 -0.63979404677E+01  0.32006512001E+02  0.51100000000E-03 0.  1.
         12    1    3    3    0    0  0.59626457424E+01 -0.65507023763E+00  0.39383643230E+01  0.71758605621E+01  0.00000000000E+00 0. -1.
</event>
<event>
 7    1  0.2680581E-011  0.5052887E+02  0.7816164E-02  0.1300439E+00
        -11   -1    0    0    0    0  0.00000000000E+00  0.00000000000E+00  0.45593999997E+02  0.45594000000E+02  0.51100000000E-03 0.  1.
         11   -1    0    0    0    0 -0.00000000000E+00 -0.00000000000E+00 -0.45593999997E+02  0.45594000000E+02  0.51100000000E-03 0. -1.
    9900012    2    1    2    0    0  0.80940240906E+01 -0.26751683386E+02  0.29529635887E+02  0.50528865902E+02  0.30000018397E+02 0.  0.
         12    1    1    2    0    0 -0.80940240906E+01  0.26751683386E+02 -0.29529635887E+02  0.40659134098E+02  0.00000000000E+00 0. -1.
         11    1    3    3    0    0  0.29881990359E+01 -0.49091342289E+01 -0.43014259520E+01  0.71785233744E+01  0.51100000000E-03 0. -1.
        -11    1    3    3    0    0  0.53275011807E+01 -0.13645204962E+02  0.89812666201E+01  0.17182463084E+02  0.51100000000E-03 0.  1.
         12    1    3    3    0    0 -0.22167612592E+00 -0.81973441951E+01  0.24849795219E+02  0.26167879444E+02  0.00000000000E+00 0. -1.
</event>
<event>
 7    1  0.2680581E-011  0.5052886E+02  0.7816164E-02  0.1300439E+00
        -11   -1    0    0    0    0  0.00000000000E+00  0.00000000000E+00  0.45593999997E+02  0.45594000000E+02  0.51100000000E-03 0.  1.
         11   -1    0    0    0    0 -0.00000000000E+00 -0.00000000000E+00 -0.45593999997E+02  0.45594000000E+02  0.51100000000E-03 0. -1.
    9900012    2    1    2    0    0  0.15653396900E+02  0.37366127420E+02  0.34510038541E+01  0.50528859079E+02  0.29999997655E+02 0.  0.
         12    1    1    2    0    0 -0.15653396900E+02 -0.37366127420E+02 -0.34510038541E+01  0.40659140921E+02  0.00000000000E+00 0. -1.
         11    1    3    3    0    0 -0.17647010978E+01  0.24392881713E+00  0.14189989278E+01  0.22775490007E+01  0.51100000000E-03 0. -1.
        -11    1    3    3    0    0  0.93421799538E+01  0.20410342155E+02  0.13728746850E+02  0.26312295292E+02  0.51100000000E-03 0.  1.
         12    1    3    3    0    0  0.80759180436E+01  0.16711856448E+02 -0.11696741924E+02  0.21939014786E+02  0.00000000000E+00 0. -1.
</event>
<event>
 7    1  0.2680581E-011  0.5052886E+02  0.7816164E-02  0.1300439E+00
        -11   -1    0    0    0    0  0.00000000000E+00  0.00000000000E+00  0.45593999997E+02  0.45594000000E+02  0.51100000000E-03 0.  1.
         11   -1    0    0    0    0 -0.00000000000E+00 -0.00000000000E+00 -0.45593999997E+02  0.45594000000E+02  0.51100000000E-03 0. -1.
    9900012    2    1    2    0    0  0.16215971443E+02  0.30492769221E+02  0.21456917848E+02  0.50528855541E+02  0.29999986903E+02 0.  0.
         12    1    1    2    0    0 -0.16215971443E+02 -0.30492769221E+02 -0.21456917848E+02  0.40659144459E+02  0.00000000000E+00 0. -1.
         11    1    3    3    0    0  0.10497433078E+02  0.13891474717E+02 -0.27665795606E+01  0.17630176794E+02  0.51100000000E-03 0. -1.
        -11    1    3    3    0    0 -0.13641274148E+01  0.85731708668E+01  0.31014770857E+01  0.92184197502E+01  0.51100000000E-03 0.  1.
        -12    1    3    3    0    0  0.70826657793E+01  0.80281236368E+01  0.21122020323E+02  0.23680258997E+02  0.00000000000E+00 0.  1.
</event>
<event>
 7    1  0.2680581E-011  0.5052886E+02  0.7816164E-02  0.1300439E+00
        -11   -1    0    0    0    0  0.00000000000E+00  0.00000000000E+00  0.45593999997E+02  0.45594000000E+02  0.51100000000E-03 0.  1.
         11   -1    0    0    0    0 -0.00000000000E+00 -0.00000000000E+00 -0.45593999997E+02  0.45594000000E+02  0.51100000000E-03 0. -1.
    9900012    2    1    2    0    0  0.35006035365E+01 -0.90952371408E+01  0.39473891748E+02  0.50528859656E+02  0.29999999410E+02 0.  0.
         12    1    1    2    0    0 -0.35006035365E+01  0.90952371408E+01 -0.39473891748E+02  0.40659140344E+02  0.00000000000E+00 0. -1.
         11    1    3    3    0    0  0.22029233867E+01 -0.75158536251E+01  0.19659870459E+02  0.21162500653E+02  0.51100000000E-03 0.  1.
        -11    1    3    3    0    0  0.95169472304E+01 -0.10040125356E+01  0.18759958539E+02  0.21059828356E+02  0.51100000000E-03 0. -1.
         12    1    3    3    0    0 -0.82192670805E+01 -0.57537098007E+00  0.10540627511E+01  0.83065306470E+01  0.00000000000E+00 0. -1.
</event>
<event>
 7    1  0.2680581E-011  0.5052886E+02  0.7816164E-02  0.1300439E+00
        -11   -1    0    0    0    0  0.00000000000E+00  0.00000000000E+00  0.45593999997E+02  0.45594000000E+02  0.51100000000E-03 0. -1.
         11   -1    0    0    0    0 -0.00000000000E+00 -0.00000000000E+00 -0.45593999997E+02  0.45594000000E+02  0.51100000000E-03 0.  1.
    9900012    2    1    2    0    0  0.22874869690E+02 -0.32563734802E+02 -0.83372115669E+01  0.50528860999E+02  0.30000003493E+02 0.  0.
         12    1    1    2    0    0 -0.22874869690E+02  0.32563734802E+02  0.83372115669E+01  0.40659139001E+02  0.00000000000E+00 0. -1.
         11    1    3    3    0    0  0.28343089854E+01  0.14986311386E+01  0.57083467961E+01  0.65470929518E+01  0.51100000000E-03 0. -1.
        -11    1    3    3    0    0  0.24050632519E+01 -0.28168278239E+01 -0.62510555062E+01  0.72659853728E+01  0.51100000000E-03 0.  1.
        -12    1    3    3    0    0  0.17635497452E+02 -0.31245538117E+02 -0.77945028567E+01  0.36715782674E+02  0.00000000000E+00 0.  1.
</event>
<event>
 7    1  0.2680581E-011  0.5052886E+02  0.7816164E-02  0.1300439E+00
        -11   -1    0    0    0    0  0.00000000000E+00  0.00000000000E+00  0.45593999997E+02  0.45594000000E+02  0.51100000000E-03 0.  1.
         11   -1    0    0    0    0 -0.00000000000E+00 -0.00000000000E+00 -0.45593999997E+02  0.45594000000E+02  0.51100000000E-03 0. -1.
    9900012    2    1    2    0    0 -0.22850606048E+01 -0.36133168646E+02  0.18502377539E+02  0.50528863844E+02  0.30000012141E+02 0.  0.
         12    1    1    2    0    0  0.22850606048E+01  0.36133168646E+02 -0.18502377539E+02  0.40659136156E+02  0.00000000000E+00 0. -1.
         11    1    3    3    0    0 -0.33201438761E+01  0.20692966253E+01  0.79353154508E+01  0.88472919838E+01  0.51100000000E-03 0. -1.
        -11    1    3    3    0    0 -0.21107976302E+01 -0.10991709529E+02  0.87907745610E+01  0.14232036490E+02  0.51100000000E-03 0.  1.
         12    1    3    3    0    0  0.31458809015E+01 -0.27210755741E+02  0.17762875267E+01  0.27449535370E+02  0.00000000000E+00 0. -1.
</event>
<event>
 7    1  0.2680581E-011  0.5052886E+02  0.7816164E-02  0.1300439E+00
        -11   -1    0    0    0    0  0.00000000000E+00  0.00000000000E+00  0.45593999997E+02  0.45594000000E+02  0.51100000000E-03 0.  1.
         11   -1    0    0    0    0 -0.00000000000E+00 -0.00000000000E+00 -0.45593999997E+02  0.45594000000E+02  0.51100000000E-03 0. -1.
    9900012    2    1    2    0    0 -0.12051595185E+02  0.30158718752E+02  0.24461733520E+02  0.50528859945E+02  0.30000000288E+02 0.  0.
         12    1    1    2    0    0  0.12051595185E+02 -0.30158718752E+02 -0.24461733520E+02  0.40659140055E+02  0.00000000000E+00 0. -1.
         11    1    3    3    0    0 -0.51654889387E+01  0.16200554140E+02  0.14346685187E+02  0.22247867460E+02  0.51100000000E-03 0.  1.
        -11    1    3    3    0    0  0.69720880045E+01  0.96111413447E+01  0.41161167717E+01  0.12566879749E+02  0.51100000000E-03 0. -1.
         12    1    3    3    0    0 -0.13858194251E+02  0.43470232667E+01  0.59989315614E+01  0.15714112735E+02  0.00000000000E+00 0. -1.
</event>
<event>
 7    1  0.2680581E-011  0.5052886E+02  0.7816164E-02  0.1300439E+00
        -11   -1    0    0    0    0  0.00000000000E+00  0.00000000000E+00  0.45593999997E+02  0.45594000000E+02  0.51100000000E-03 0.  1.
         11   -1    0    0    0    0 -0.00000000000E+00 -0.00000000000E+00 -0.45593999997E+02  0.45594000000E+02  0.51100000000E-03 0. -1.
    9900012    2    1    2    0    0  0.16729055960E+01 -0.20033397394E+01  0.40575285742E+02  0.50528858392E+02  0.29999995570E+02 0.  0.
         12    1    1    2    0    0 -0.16729055960E+01  0.20033397394E+01 -0.40575285742E+02  0.40659141608E+02  0.00000000000E+00 0. -1.
         11    1    3    3    0    0  0.43262643353E+00 -0.68743284783E+00  0.23727055414E+02  0.23740953823E+02  0.51100000000E-03 0.  1.
        -11    1    3    3    0    0  0.29080024136E+01  0.15325175613E+01 -0.42838085944E+01  0.53996392887E+01  0.51100000000E-03 0. -1.
         12    1    3    3    0    0 -0.16677232511E+01 -0.28484244528E+01  0.21132038922E+02  0.21388265281E+02  0.00000000000E+00 0. -1.
</event>
<event>
 7    1  0.2680581E-011  0.5052889E+02  0.7816164E-02  0.1300439E+00
        -11   -1    0    0    0    0  0.00000000000E+00  0.00000000000E+00  0.45593999997E+02  0.45594000000E+02  0.51100000000E-03 0.  1.
         11   -1    0    0    0    0 -0.00000000000E+00 -0.00000000000E+00 -0.45593999997E+02  0.45594000000E+02  0.51100000000E-03 0. -1.
    9900012    2    1    2    0    0  0.76969315775E+01 -0.21245263995E+01  0.39867368990E+02  0.50528886897E+02  0.30000082213E+02 0.  0.
         12    1    1    2    0    0 -0.76969315775E+01  0.21245263995E+01 -0.39867368990E+02  0.40659113103E+02  0.00000000000E+00 0. -1.
         11    1    3    3    0    0  0.78185936825E+00 -0.72776984844E+01  0.24484604146E+02  0.25555274206E+02  0.51100000000E-03 0. -1.
        -11    1    3    3    0    0  0.86487870927E+00  0.44243779985E+01  0.17841592984E+02  0.18402325296E+02  0.51100000000E-03 0.  1.
         12    1    3    3    0    0  0.60501935000E+01  0.72879408638E+00 -0.24588281399E+01  0.65712873952E+01  0.00000000000E+00 0. -1.
</event>
<event>
 7    1  0.2680581E-011  0.5052886E+02  0.7816164E-02  0.1300439E+00
        -11   -1    0    0    0    0  0.00000000000E+00  0.00000000000E+00  0.45593999997E+02  0.45594000000E+02  0.51100000000E-03 0. -1.
         11   -1    0    0    0    0 -0.00000000000E+00 -0.00000000000E+00 -0.45593999997E+02  0.45594000000E+02  0.51100000000E-03 0.  1.
    9900012    2    1    2    0    0  0.15056928243E+02  0.28712131786E+02 -0.24537075152E+02  0.50528860107E+02  0.30000000782E+02 0.  0.
         12    1    1    2    0    0 -0.15056928243E+02 -0.28712131786E+02  0.24537075152E+02  0.40659139893E+02  0.00000000000E+00 0. -1.
         11    1    3    3    0    0  0.66449200193E+01  0.18847728754E+02  0.76456116153E+00  0.19999409873E+02  0.51100000000E-03 0. -1.
        -11    1    3    3    0    0  0.22864571020E+01  0.90159527292E+01 -0.84035334918E+01  0.12535336657E+02  0.51100000000E-03 0.  1.
         12    1    3    3    0    0  0.61255511215E+01  0.84845030270E+00 -0.16898102822E+02  0.17994113578E+02  0.00000000000E+00 0. -1.
</event>
<event>
 7    1  0.2680581E-011  0.5052886E+02  0.7816164E-02  0.1300439E+00
        -11   -1    0    0    0    0  0.00000000000E+00  0.00000000000E+00  0.45593999997E+02  0.45594000000E+02  0.51100000000E-03 0. -1.
         11   -1    0    0    0    0 -0.00000000000E+00 -0.00000000000E+00 -0.45593999997E+02  0.45594000000E+02  0.51100000000E-03 0.  1.
    9900012    2    1    2    0    0  0.39550617776E+02 -0.68079607637E+01 -0.65242674077E+01  0.50528858821E+02  0.29999996871E+02 0.  0.
         12    1    1    2    0    0 -0.39550617776E+02  0.68079607637E+01  0.65242674077E+01  0.40659141179E+02  0.00000000000E+00 0. -1.
         11    1    3    3    0    0  0.18389621112E+01  0.57947770026E+01 -0.11103616815E+01  0.61801396005E+01  0.51100000000E-03 0. -1.
        -11    1    3    3    0    0 -0.29582708162E-01 -0.50604826999E+01 -0.27735177481E+01  0.57707678218E+01  0.51100000000E-03 0.  1.
        -12    1    3    3    0    0  0.37741238373E+02 -0.75422550664E+01 -0.26403879781E+01  0.38577951398E+02  0.00000000000E+00 0.  1.
</event>
<event>
 7    1  0.2680581E-011  0.5052886E+02  0.7816164E-02  0.1300439E+00
        -11   -1    0    0    0    0  0.00000000000E+00  0.00000000000E+00  0.45593999997E+02  0.45594000000E+02  0.51100000000E-03 0. -1.
         11   -1    0    0    0    0 -0.00000000000E+00 -0.00000000000E+00 -0.45593999997E+02  0.45594000000E+02  0.51100000000E-03 0.  1.
    9900012    2    1    2    0    0 -0.24480067075E+02 -0.24761032817E+02 -0.20994833569E+02  0.50528862445E+02  0.30000007887E+02 0.  0.
         12    1    1    2    0    0  0.24480067075E+02  0.24761032817E+02  0.20994833569E+02  0.40659137555E+02  0.00000000000E+00 0. -1.
         11    1    3    3    0    0 -0.19204427000E+02 -0.89620897481E+01 -0.14112810492E+02  0.25461745606E+02  0.51100000000E-03 0. -1.
        -11    1    3    3    0    0 -0.48800944589E+01 -0.12368286821E+02 -0.12644774281E+02  0.18348846223E+02  0.51100000000E-03 0.  1.
         12    1    3    3    0    0 -0.39554561648E+00 -0.34306562476E+01  0.57627512046E+01  0.67182706160E+01  0.00000000000E+00 0. -1.
</event>
<event>
 7    1  0.2680581E-011  0.5052885E+02  0.7816164E-02  0.1300439E+00
        -11   -1    0    0    0    0  0.00000000000E+00  0.00000000000E+00  0.45593999997E+02  0.45594000000E+02  0.51100000000E-03 0. -1.
         11   -1    0    0    0    0 -0.00000000000E+00 -0.00000000000E+00 -0.45593999997E+02  0.45594000000E+02  0.51100000000E-03 0.  1.
    9900012    2    1    2    0    0  0.17021433121E+02  0.21583152776E+02 -0.29960059113E+02  0.50528845910E+02  0.29999957629E+02 0.  0.
         12    1    1    2    0    0 -0.17021433121E+02 -0.21583152776E+02  0.29960059113E+02  0.40659154090E+02  0.00000000000E+00 0. -1.
         11    1    3    3    0    0  0.11356378810E+01 -0.36036104905E+01  0.34316286268E+00  0.37938691300E+01  0.51100000000E-03 0. -1.
        -11    1    3    3    0    0  0.30566074285E+01  0.16368438417E+02 -0.56612285219E+01  0.17587442504E+02  0.51100000000E-03 0.  1.
         12    1    3    3    0    0  0.12829187811E+02  0.88183248495E+01 -0.24641993454E+02  0.29147534277E+02  0.00000000000E+00 0. -1.
</event>
<event>
 7    1  0.2680581E-011  0.5052889E+02  0.7816164E-02  0.1300439E+00
        -11   -1    0    0    0    0  0.00000000000E+00  0.00000000000E+00  0.45593999997E+02  0.45594000000E+02  0.51100000000E-03 0.  1.
         11   -1    0    0    0    0 -0.00000000000E+00 -0.00000000000E+00 -0.45593999997E+02  0.45594000000E+02  0.51100000000E-03 0. -1.
    9900012    2    1    2    0    0  0.13146483376E+02  0.22008623644E+02  0.31558737524E+02  0.50528887197E+02  0.30000083124E+02 0.  0.
         12    1    1    2    0    0 -0.13146483376E+02 -0.22008623644E+02 -0.31558737524E+02  0.40659112803E+02  0.00000000000E+00 0. -1.
         11    1    3    3    0    0  0.62951194033E-01 -0.39024488235E+01  0.54946116470E+00  0.39414435815E+01  0.51100000000E-03 0. -1.
        -11    1    3    3    0    0  0.12155311640E+02  0.41068707530E+01  0.96888034538E+01  0.16077652226E+02  0.51100000000E-03 0.  1.
        -12    1    3    3    0    0  0.92822054130E+00  0.21804201714E+02  0.21320472905E+02  0.30509791390E+02  0.00000000000E+00 0.  1.
</event>
<event>
 7    1  0.2680581E-011  0.5052886E+02  0.7816164E-02  0.1300439E+00
        -11   -1    0    0    0    0  0.00000000000E+00  0.00000000000E+00  0.45593999997E+02  0.45594000000E+02  0.51100000000E-03 0.  1.
         11   -1    0    0    0    0 -0.00000000000E+00 -0.00000000000E+00 -0.45593999997E+02  0.45594000000E+02  0.51100000000E-03 0. -1.
    9900012    2    1    2    0    0  0.40615391460E+02 -0.86528368158E+00  0.16754395706E+01  0.50528857890E+02  0.29999994044E+02 0.  0.
         12    1    1    2    0    0 -0.40615391460E+02  0.86528368158E+00 -0.16754395706E+01  0.40659142110E+02  0.00000000000E+00 0. -1.
         11    1    3    3    0    0  0.27149907291E+02 -0.59208054088E+01 -0.48869325679E+01  0.28214455741E+02  0.51100000000E-03 0. -1.
        -11    1    3    3    0    0  0.21954199701E+01  0.40929262075E+01 -0.45186275495E+01  0.64799621123E+01  0.51100000000E-03 0.  1.
         12    1    3    3    0    0  0.11270064200E+02  0.96259551979E+00  0.11080999688E+02  0.15834440037E+02  0.00000000000E+00 0. -1.
</event>
<event>
 7    1  0.2680581E-011  0.5052887E+02  0.7816164E-02  0.1300439E+00
        -11   -1    0    0    0    0  0.00000000000E+00  0.00000000000E+00  0.45593999997E+02  0.45594000000E+02  0.51100000000E-03 0. -1.
         11   -1    0    0    0    0 -0.00000000000E+00 -0.00000000000E+00 -0.45593999997E+02  0.45594000000E+02  0.51100000000E-03 0.  1.
    9900012    2    1    2    0    0  0.38734409290E+02  0.11402004285E+02 -0.47754382607E+01  0.50528868488E+02  0.30000026256E+02 0.  0.
         12    1    1    2    0    0 -0.38734409290E+02 -0.11402004285E+02  0.47754382607E+01  0.40659131512E+02  0.00000000000E+00 0. -1.
         11    1    3    3    0    0  0.33719158776E+00 -0.42711233353E+00  0.39143879412E+01  0.39520319240E+01  0.51100000000E-03 0. -1.
        -11    1    3    3    0    0  0.20006847959E+02 -0.47326470786E+01 -0.70185039166E+00  0.20570962735E+02  0.51100000000E-03 0.  1.
         12    1    3    3    0    0  0.18390369743E+02  0.16561763697E+02 -0.79879758103E+01  0.26005873829E+02  0.00000000000E+00 0. -1.
</event>
<event>
 7    1  0.2680581E-011  0.5052886E+02  0.7816164E-02  0.1300439E+00
        -11   -1    0    0    0    0  0.00000000000E+00  0.00000000000E+00  0.45593999997E+02  0.45594000000E+02  0.51100000000E-03 0.  1.
         11   -1    0    0    0    0 -0.00000000000E+00 -0.00000000000E+00 -0.45593999997E+02  0.45594000000E+02  0.51100000000E-03 0. -1.
    9900012    2    1    2    0    0  0.13171750490E+02 -0.26549063169E+02  0.27835552234E+02  0.50528859154E+02  0.29999997886E+02 0.  0.
         12    1    1    2    0    0 -0.13171750490E+02  0.26549063169E+02 -0.27835552234E+02  0.40659140846E+02  0.00000000000E+00 0. -1.
         11    1    3    3    0    0  0.12060878702E+01 -0.24004964112E+00  0.10937726906E+02  0.11006640810E+02  0.51100000000E-03 0. -1.
        -11    1    3    3    0    0  0.81007943612E+01 -0.22717685800E+02  0.21658360728E+02  0.32416056316E+02  0.51100000000E-03 0.  1.
         12    1    3    3    0    0  0.38648682584E+01 -0.35913277278E+01 -0.47605353991E+01  0.71061620295E+01  0.00000000000E+00 0. -1.
</event>
<event>
 7    1  0.2680581E-011  0.5052886E+02  0.7816164E-02  0.1300439E+00
        -11   -1    0    0    0    0  0.00000000000E+00  0.00000000000E+00  0.45593999997E+02  0.45594000000E+02  0.51100000000E-03 0.  1.
         11   -1    0    0    0    0 -0.00000000000E+00 -0.00000000000E+00 -0.45593999997E+02  0.45594000000E+02  0.51100000000E-03 0. -1.
    9900012    2    1    2    0    0 -0.10412619026E+02  0.25808485285E+02  0.29642279772E+02  0.50528864522E+02  0.30000014201E+02 0.  0.
         12    1    1    2    0    0  0.10412619026E+02 -0.25808485285E+02 -0.29642279772E+02  0.40659135478E+02  0.00000000000E+00 0. -1.
         11    1    3    3    0    0  0.44100898337E+01  0.12606862486E+02  0.10182089232E+02  0.16794547195E+02  0.51100000000E-03 0.  1.
        -11    1    3    3    0    0 -0.52675581067E+01  0.38487455088E+01 -0.33200261908E+01  0.73200126071E+01  0.51100000000E-03 0. -1.
        -12    1    3    3    0    0 -0.95551507534E+01  0.93528772907E+01  0.22780216731E+02  0.26414304720E+02  0.00000000000E+00 0.  1.
</event>
<event>
 7    1  0.2680581E-011  0.5052886E+02  0.7816164E-02  0.1300439E+00
        -11   -1    0    0    0    0  0.00000000000E+00  0.00000000000E+00  0.45593999997E+02  0.45594000000E+02  0.51100000000E-03 0.  1.
         11   -1    0    0    0    0 -0.00000000000E+00 -0.00000000000E+00 -0.45593999997E+02  0.45594000000E+02  0.51100000000E-03 0. -1.
    9900012    2    1    2    0    0  0.30713032809E+02  0.25742677617E+02  0.68694588135E+01  0.50528864500E+02  0.30000014133E+02 0.  0.
         12    1    1    2    0    0 -0.30713032809E+02 -0.25742677617E+02 -0.68694588135E+01  0.40659135500E+02  0.00000000000E+00 0. -1.
         11    1    3    3    0    0  0.22994781382E+02  0.16701565611E+02 -0.32233412080E+01  0.28602310981E+02  0.51100000000E-03 0.  1.
        -11    1    3    3    0    0  0.53658698702E+00  0.10516803344E+01 -0.40202290422E+01  0.41900118058E+01  0.51100000000E-03 0. -1.
        -12    1    3    3    0    0  0.71816644404E+01  0.79894316717E+01  0.14113029064E+02  0.17736541713E+02  0.00000000000E+00 0.  1.
</event>
<event>
 7    1  0.2680581E-011  0.5052886E+02  0.7816164E-02  0.1300439E+00
        -11   -1    0    0    0    0  0.00000000000E+00  0.00000000000E+00  0.45593999997E+02  0.45594000000E+02  0.51100000000E-03 0.  1.
         11   -1    0    0    0    0 -0.00000000000E+00 -0.00000000000E+00 -0.45593999997E+02  0.45594000000E+02  0.51100000000E-03 0. -1.
    9900012    2    1    2    0    0 -0.35098608314E+02 -0.20513537444E+02 -0.66932910195E+00  0.50528861722E+02  0.30000005691E+02 0.  0.
         12    1    1    2    0    0  0.35098608314E+02  0.20513537444E+02  0.66932910195E+00  0.40659138278E+02  0.00000000000E+00 0. -1.
         11    1    3    3    0    0 -0.32514673001E+01 -0.73202545177E+01 -0.78819535828E+01  0.11237586856E+02  0.51100000000E-03 0. -1.
        -11    1    3    3    0    0 -0.59266778597E+00  0.32432461467E+01  0.91106395392E+00  0.34205172799E+01  0.51100000000E-03 0.  1.
        -12    1    3    3    0    0 -0.31254473228E+02 -0.16436529073E+02  0.63015605269E+01  0.35870757586E+02  0.00000000000E+00 0.  1.
</event>
<event>
 7    1  0.2680581E-011  0.5052886E+02  0.7816164E-02  0.1300439E+00
        -11   -1    0    0    0    0  0.00000000000E+00  0.00000000000E+00  0.45593999997E+02  0.45594000000E+02  0.51100000000E-03 0. -1.
         11   -1    0    0    0    0 -0.00000000000E+00 -0.00000000000E+00 -0.45593999997E+02  0.45594000000E+02  0.51100000000E-03 0.  1.
    9900012    2    1    2    0    0  0.30723754493E+02 -0.15696985780E+01 -0.26584816082E+02  0.50528862160E+02  0.30000007023E+02 0.  0.
         12    1    1    2    0    0 -0.30723754493E+02  0.15696985780E+01  0.26584816082E+02  0.40659137840E+02  0.00000000000E+00 0. -1.
         11    1    3    3    0    0  0.53915329665E+01  0.23939934857E+01 -0.14182808289E+02  0.15360725366E+02  0.51100000000E-03 0. -1.
        -11    1    3    3    0    0  0.78375557221E+01  0.59403798555E+01 -0.11377151514E+02  0.15038449699E+02  0.51100000000E-03 0.  1.
         12    1    3    3    0    0  0.17494665804E+02 -0.99040719191E+01 -0.10248562793E+01  0.20129687096E+02  0.00000000000E+00 0. -1.
</event>
<event>
 7    1  0.2680581E-011  0.5052886E+02  0.7816164E-02  0.1300439E+00
        -11   -1    0    0    0    0  0.00000000000E+00  0.00000000000E+00  0.45593999997E+02  0.45594000000E+02  0.51100000000E-03 0.  1.
         11   -1    0    0    0    0 -0.00000000000E+00 -0.00000000000E+00 -0.45593999997E+02  0.45594000000E+02  0.51100000000E-03 0. -1.
    9900012    2    1    2    0    0 -0.12339148698E+02 -0.24626132203E+00  0.38740812757E+02  0.50528858245E+02  0.29999995121E+02 0.  0.
         12    1    1    2    0    0  0.12339148698E+02  0.24626132203E+00 -0.38740812757E+02  0.40659141755E+02  0.00000000000E+00 0. -1.
         11    1    3    3    0    0  0.73795756366E+01  0.12558835351E+00  0.11087843035E+01  0.74634651406E+01  0.51100000000E-03 0. -1.
        -11    1    3    3    0    0 -0.42252307042E+01 -0.14192699444E+01  0.38682141480E+01  0.59016932007E+01  0.51100000000E-03 0.  1.
        -12    1    3    3    0    0 -0.15493493630E+02  0.10474202689E+01  0.33763814305E+02  0.37163699904E+02  0.00000000000E+00 0.  1.
</event>
<event>
 7    1  0.2680581E-011  0.5052883E+02  0.7816164E-02  0.1300439E+00
        -11   -1    0    0    0    0  0.00000000000E+00  0.00000000000E+00  0.45593999997E+02  0.45594000000E+02  0.51100000000E-03 0. -1.
         11   -1    0    0    0    0 -0.00000000000E+00 -0.00000000000E+00 -0.45593999997E+02  0.45594000000E+02  0.51100000000E-03 0.  1.
    9900012    2    1    2    0    0  0.27528954474E+01 -0.40049096751E+02  0.64543948385E+01  0.50528833793E+02  0.29999920798E+02 0.  0.
         12    1    1    2    0    0 -0.27528954474E+01  0.40049096751E+02 -0.64543948385E+01  0.40659166207E+02  0.00000000000E+00 0. -1.
         11    1    3    3    0    0  0.12638612224E+01 -0.10408930724E+02  0.10831349062E+02  0.15075188449E+02  0.51100000000E-03 0. -1.
        -11    1    3    3    0    0  0.93916937697E+01 -0.14002728072E+02  0.16119118831E+01  0.16937489941E+02  0.51100000000E-03 0.  1.
         12    1    3    3    0    0 -0.79026595447E+01 -0.15637437955E+02 -0.59888661068E+01  0.18516155403E+02  0.00000000000E+00 0. -1.
</event>
<event>
 7    1  0.2680581E-011  0.5052884E+02  0.7816164E-02  0.1300439E+00
        -11   -1    0    0    0    0  0.00000000000E+00  0.00000000000E+00  0.45593999997E+02  0.45594000000E+02  0.51100000000E-03 0.  1.
         11   -1    0    0    0    0 -0.00000000000E+00 -0.00000000000E+00 -0.45593999997E+02  0.45594000000E+02  0.51100000000E-03 0. -1.
    9900012    2    1    2    0    0  0.26286691642E+02 -0.29022181324E+02  0.10949431709E+02  0.50528840872E+02  0.29999942313E+02 0.  0.
         12    1    1    2    0    0 -0.26286691642E+02  0.29022181324E+02 -0.10949431709E+02  0.40659159128E+02  0.00000000000E+00 0. -1.
         11    1    3    3    0    0  0.62682347496E+01 -0.10750106849E+02 -0.97682036726E+01  0.15820030575E+02  0.51100000000E-03 0. -1.
        -11    1    3    3    0    0  0.80962777608E+01 -0.65534009405E+01  0.42715248981E+01  0.11258006159E+02  0.51100000000E-03 0.  1.
        -12    1    3    3    0    0  0.11922179131E+02 -0.11718673535E+02  0.16446110484E+02  0.23450804138E+02  0.00000000000E+00 0.  1.
</event>
<event>
 7    1  0.2680581E-011  0.5052886E+02  0.7816164E-02  0.1300439E+00
        -11   -1    0    0    0    0  0.00000000000E+00  0.00000000000E+00  0.45593999997E+02  0.45594000000E+02  0.51100000000E-03 0.  1.
         11   -1    0    0    0    0 -0.00000000000E+00 -0.00000000000E+00 -0.45593999997E+02  0.45594000000E+02  0.51100000000E-03 0. -1.
    9900012    2    1    2    0    0  0.35928776071E+02 -0.12223194714E+02  0.14590480021E+02  0.50528861467E+02  0.30000004916E+02 0.  0.
         12    1    1    2    0    0 -0.35928776071E+02  0.12223194714E+02 -0.14590480021E+02  0.40659138533E+02  0.00000000000E+00 0. -1.
         11    1    3    3    0    0  0.15640610784E+02 -0.99345372667E+01  0.48793147448E+01  0.19160674545E+02  0.51100000000E-03 0. -1.
        -11    1    3    3    0    0  0.20181272959E+02  0.47766605740E+01  0.18854714199E+01  0.20824391161E+02  0.51100000000E-03 0.  1.
         12    1    3    3    0    0  0.10689232832E+00 -0.70653180214E+01  0.78256938566E+01  0.10543795761E+02  0.00000000000E+00 0. -1.
</event>
<event>
 7    1  0.2680581E-011  0.5052887E+02  0.7816164E-02  0.1300439E+00
        -11   -1    0    0    0    0  0.00000000000E+00  0.00000000000E+00  0.45593999997E+02  0.45594000000E+02  0.51100000000E-03 0.  1.
         11   -1    0    0    0    0 -0.00000000000E+00 -0.00000000000E+00 -0.45593999997E+02  0.45594000000E+02  0.51100000000E-03 0. -1.
    9900012    2    1    2    0    0  0.97062821712E+01  0.38868689242E+02  0.69410222914E+01  0.50528871783E+02  0.30000036270E+02 0.  0.
         12    1    1    2    0    0 -0.97062821712E+01 -0.38868689242E+02 -0.69410222914E+01  0.40659128217E+02  0.00000000000E+00 0. -1.
         11    1    3    3    0    0  0.31406989074E+01  0.14497677217E+02 -0.34624178447E+01  0.15232694178E+02  0.51100000000E-03 0. -1.
        -11    1    3    3    0    0  0.14169572716E+02  0.19465987356E+02  0.10450806645E+02  0.26247301090E+02  0.51100000000E-03 0.  1.
         12    1    3    3    0    0 -0.76039894526E+01  0.49050246682E+01 -0.47366509215E-01  0.90488765147E+01  0.00000000000E+00 0. -1.
</event>
<event>
 7    1  0.3143003E-011  0.5052886E+02  0.7816164E-02  0.1300439E+00
        -11   -1    0    0    0    0  0.00000000000E+00  0.00000000000E+00  0.45593999997E+02  0.45594000000E+02  0.51100000000E-03 0.  1.
         11   -1    0    0    0    0 -0.00000000000E+00 -0.00000000000E+00 -0.45593999997E+02  0.45594000000E+02  0.51100000000E-03 0. -1.
    9900012    2    1    2    0    0  0.28409328932E+02  0.13350207867E+01  0.29056724864E+02  0.50528861904E+02  0.30000006245E+02 0.  0.
         12    1    1    2    0    0 -0.28409328932E+02 -0.13350207867E+01 -0.29056724864E+02  0.40659138096E+02  0.00000000000E+00 0. -1.
         11    1    3    3    0    0 -0.10669060221E+01  0.14378539880E+01 -0.21862984532E+01  0.28258828246E+01  0.51100000000E-03 0. -1.
        -11    1    3    3    0    0  0.30579954514E+01 -0.44069126063E+01  0.16055525011E+02  0.16927849791E+02  0.51100000000E-03 0.  1.
        -12    1    3    3    0    0  0.26418239503E+02  0.43040794049E+01  0.15187498306E+02  0.30775129289E+02  0.00000000000E+00 0.  1.
</event>
<event>
 7    1  0.2680581E-011  0.5052886E+02  0.7816164E-02  0.1300439E+00
        -11   -1    0    0    0    0  0.00000000000E+00  0.00000000000E+00  0.45593999997E+02  0.45594000000E+02  0.51100000000E-03 0.  1.
         11   -1    0    0    0    0 -0.00000000000E+00 -0.00000000000E+00 -0.45593999997E+02  0.45594000000E+02  0.51100000000E-03 0. -1.
    9900012    2    1    2    0    0 -0.91474293881E+01 -0.11111776176E+02  0.38026551821E+02  0.50528859852E+02  0.30000000005E+02 0.  0.
         12    1    1    2    0    0  0.91474293881E+01  0.11111776176E+02 -0.38026551821E+02  0.40659140148E+02  0.00000000000E+00 0. -1.
         11    1    3    3    0    0  0.40783927765E+01  0.22669206626E+01  0.45800318133E+00  0.46884948656E+01  0.51100000000E-03 0. -1.
        -11    1    3    3    0    0 -0.14756938728E+01  0.32658564392E+01  0.60624781198E+00  0.36346976984E+01  0.51100000000E-03 0.  1.
        -12    1    3    3    0    0 -0.11750128292E+02 -0.16644553278E+02  0.36962300828E+02  0.42205667288E+02  0.00000000000E+00 0.  1.
</event>
<event>
 7    1  0.2680581E-011  0.5052886E+02  0.7816164E-02  0.1300439E+00
        -11   -1    0    0    0    0  0.00000000000E+00  0.00000000000E+00  0.45593999997E+02  0.45594000000E+02  0.51100000000E-03 0.  1.
         11   -1    0    0    0    0 -0.00000000000E+00 -0.00000000000E+00 -0.45593999997E+02  0.45594000000E+02  0.51100000000E-03 0. -1.
    9900012    2    1    2    0    0 -0.37263489007E+02  0.64885770440E+01  0.14916310537E+02  0.50528861236E+02  0.30000004212E+02 0.  0.
         12    1    1    2    0    0  0.37263489007E+02 -0.64885770440E+01 -0.14916310537E+02  0.40659138764E+02  0.00000000000E+00 0. -1.
         11    1    3    3    0    0 -0.18618778223E+02 -0.66104203365E+01  0.14690540252E+02  0.24620490099E+02  0.51100000000E-03 0. -1.
        -11    1    3    3    0    0 -0.13048281408E+02  0.30884880545E+01  0.37270422353E+01  0.13917156687E+02  0.51100000000E-03 0.  1.
        -12    1    3    3    0    0 -0.55964293759E+01  0.10010509326E+02 -0.35012719500E+01  0.11991214450E+02  0.00000000000E+00 0.  1.
</event>
<event>
 7    1  0.2680581E-011  0.5052886E+02  0.7816164E-02  0.1300439E+00
        -11   -1    0    0    0    0  0.00000000000E+00  0.00000000000E+00  0.45593999997E+02  0.45594000000E+02  0.51100000000E-03 0.  1.
         11   -1    0    0    0    0 -0.00000000000E+00 -0.00000000000E+00 -0.45593999997E+02  0.45594000000E+02  0.51100000000E-03 0. -1.
    9900012    2    1    2    0    0  0.96221887247E+01  0.37771468181E+01  0.39323181425E+02  0.50528856485E+02  0.29999989773E+02 0.  0.
         12    1    1    2    0    0 -0.96221887247E+01 -0.37771468181E+01 -0.39323181425E+02  0.40659143515E+02  0.00000000000E+00 0. -1.
         11    1    3    3    0    0  0.82636446593E+00 -0.28311260472E+01 -0.18519982098E+01  0.34825350761E+01  0.51100000000E-03 0. -1.
        -11    1    3    3    0    0 -0.42873009865E+01  0.65270746798E+01  0.71330156616E+01  0.10576557394E+02  0.51100000000E-03 0.  1.
        -12    1    3    3    0    0  0.13083125245E+02  0.81198185528E-01  0.34042163973E+02  0.36469764015E+02  0.00000000000E+00 0.  1.
</event>
<event>
 7    1  0.2680581E-011  0.5052887E+02  0.7816164E-02  0.1300439E+00
        -11   -1    0    0    0    0  0.00000000000E+00  0.00000000000E+00  0.45593999997E+02  0.45594000000E+02  0.51100000000E-03 0.  1.
         11   -1    0    0    0    0 -0.00000000000E+00 -0.00000000000E+00 -0.45593999997E+02  0.45594000000E+02  0.51100000000E-03 0. -1.
    9900012    2    1    2    0    0 -0.37075037621E+01  0.39688951026E+01  0.40294757123E+02  0.50528866167E+02  0.30000019200E+02 0.  0.
         12    1    1    2    0    0  0.37075037621E+01 -0.39688951026E+01 -0.40294757123E+02  0.40659133833E+02  0.00000000000E+00 0. -1.
         11    1    3    3    0    0  0.31114328261E+01  0.12042055235E+02  0.23647246191E+02  0.26718614507E+02  0.51100000000E-03 0. -1.
        -11    1    3    3    0    0  0.12959389366E+01  0.21412580402E+01  0.74209779463E+01  0.78316893237E+01  0.51100000000E-03 0.  1.
         12    1    3    3    0    0 -0.81148755248E+01 -0.10214418172E+02  0.92265329855E+01  0.15978562336E+02  0.00000000000E+00 0. -1.
</event>
<event>
 7    1  0.2680581E-011  0.5052886E+02  0.7816164E-02  0.1300439E+00
        -11   -1    0    0    0    0  0.00000000000E+00  0.00000000000E+00  0.45593999997E+02  0.45594000000E+02  0.51100000000E-03 0. -1.
         11   -1    0    0    0    0 -0.00000000000E+00 -0.00000000000E+00 -0.45593999997E+02  0.45594000000E+02  0.51100000000E-03 0.  1.
    9900012    2    1    2    0    0 -0.10857290604E+02 -0.18169297413E+02 -0.34715435456E+02  0.50528860970E+02  0.30000003405E+02 0.  0.
         12    1    1    2    0    0  0.10857290604E+02  0.18169297413E+02  0.34715435456E+02  0.40659139030E+02  0.00000000000E+00 0. -1.
         11    1    3    3    0    0 -0.16755158991E+02 -0.70121698030E+01 -0.21453422822E+02  0.28109699913E+02  0.51100000000E-03 0. -1.
        -11    1    3    3    0    0 -0.29327511786E+00 -0.80391924561E+01 -0.13233958762E+02  0.15487165345E+02  0.51100000000E-03 0.  1.
         12    1    3    3    0    0  0.61911435054E+01 -0.31179351541E+01 -0.28053871494E-01  0.69319957119E+01  0.00000000000E+00 0. -1.
</event>
<event>
 7    1  0.2680581E-011  0.5052898E+02  0.7816164E-02  0.1300438E+00
        -11   -1    0    0    0    0  0.00000000000E+00  0.00000000000E+00  0.45593999997E+02  0.45594000000E+02  0.51100000000E-03 0. -1.
         11   -1    0    0    0    0 -0.00000000000E+00 -0.00000000000E+00 -0.45593999997E+02  0.45594000000E+02  0.51100000000E-03 0.  1.
    9900012    2    1    2    0    0  0.14212512389E+02 -0.12609897212E+02 -0.35946496882E+02  0.50528983113E+02  0.30000374668E+02 0.  0.
         12    1    1    2    0    0 -0.14212512389E+02  0.12609897212E+02  0.35946496882E+02  0.40659016887E+02  0.00000000000E+00 0. -1.
         11    1    3    3    0    0 -0.38380845043E+01  0.49945884088E+01 -0.14676143420E+02  0.15970785578E+02  0.51100000000E-03 0. -1.
        -11    1    3    3    0    0  0.37618872674E+01 -0.63796645121E+01 -0.12315219722E+01  0.75078999546E+01  0.51100000000E-03 0.  1.
        -12    1    3    3    0    0  0.14288709626E+02 -0.11224821109E+02 -0.20038831490E+02  0.27050297581E+02  0.00000000000E+00 0.  1.
</event>
<event>
 7    1  0.2680581E-011  0.5052886E+02  0.7816164E-02  0.1300439E+00
        -11   -1    0    0    0    0  0.00000000000E+00  0.00000000000E+00  0.45593999997E+02  0.45594000000E+02  0.51100000000E-03 0. -1.
         11   -1    0    0    0    0 -0.00000000000E+00 -0.00000000000E+00 -0.45593999997E+02  0.45594000000E+02  0.51100000000E-03 0.  1.
    9900012    2    1    2    0    0  0.28781557556E+02  0.33768922747E+01 -0.28519890430E+02  0.50528860720E+02  0.30000002646E+02 0.  0.
         12    1    1    2    0    0 -0.28781557556E+02 -0.33768922747E+01  0.28519890430E+02  0.40659139280E+02  0.00000000000E+00 0. -1.
         11    1    3    3    0    0  0.13133236371E+02  0.97487548035E+00 -0.49923181622E+01  0.14083874490E+02  0.51100000000E-03 0.  1.
        -11    1    3    3    0    0 -0.33577208038E+01 -0.39486297529E+01  0.44238102516E+00  0.52020829630E+01  0.51100000000E-03 0. -1.
        -12    1    3    3    0    0  0.19006041989E+02  0.63506465472E+01 -0.23969953293E+02  0.31242903267E+02  0.00000000000E+00 0.  1.
</event>
<event>
 7    1  0.2680581E-011  0.5052886E+02  0.7816164E-02  0.1300439E+00
        -11   -1    0    0    0    0  0.00000000000E+00  0.00000000000E+00  0.45593999997E+02  0.45594000000E+02  0.51100000000E-03 0.  1.
         11   -1    0    0    0    0 -0.00000000000E+00 -0.00000000000E+00 -0.45593999997E+02  0.45594000000E+02  0.51100000000E-03 0. -1.
    9900012    2    1    2    0    0 -0.27343840185E+01  0.24830908529E+02  0.32079818670E+02  0.50528860312E+02  0.30000001403E+02 0.  0.
         12    1    1    2    0    0  0.27343840185E+01 -0.24830908529E+02 -0.32079818670E+02  0.40659139688E+02  0.00000000000E+00 0. -1.
         11    1    3    3    0    0 -0.79203079046E+01  0.12593096990E+02  0.85707247215E+01  0.17169003804E+02  0.51100000000E-03 0. -1.
        -11    1    3    3    0    0 -0.29996189458E+01  0.94910600481E+01  0.22579149249E+02  0.24675816414E+02  0.51100000000E-03 0.  1.
        -12    1    3    3    0    0  0.81855428319E+01  0.27467514906E+01  0.92994469987E+00  0.86840400937E+01  0.00000000000E+00 0.  1.
</event>
<event>
 7    1  0.2680581E-011  0.5052885E+02  0.7816164E-02  0.1300439E+00
        -11   -1    0    0    0    0  0.00000000000E+00  0.00000000000E+00  0.45593999997E+02  0.45594000000E+02  0.51100000000E-03 0.  1.
         11   -1    0    0    0    0 -0.00000000000E+00 -0.00000000000E+00 -0.45593999997E+02  0.45594000000E+02  0.51100000000E-03 0. -1.
    9900012    2    1    2    0    0 -0.34817269953E+02  0.15440847966E+02  0.14230394512E+02  0.50528853417E+02  0.29999980448E+02 0.  0.
         12    1    1    2    0    0  0.34817269953E+02 -0.15440847966E+02 -0.14230394512E+02  0.40659146583E+02  0.00000000000E+00 0. -1.
         11    1    3    3    0    0 -0.12965053412E+02 -0.11212178082E+01  0.13961862630E+02  0.19086208311E+02  0.51100000000E-03 0. -1.
        -11    1    3    3    0    0 -0.62207848622E+01  0.10678777276E+02  0.60609337847E+01  0.13764787213E+02  0.51100000000E-03 0.  1.
         12    1    3    3    0    0 -0.15631431679E+02  0.58832884980E+01 -0.57924019031E+01  0.17677857893E+02  0.00000000000E+00 0. -1.
</event>
<event>
 7    1  0.2680581E-011  0.5052887E+02  0.7816164E-02  0.1300439E+00
        -11   -1    0    0    0    0  0.00000000000E+00  0.00000000000E+00  0.45593999997E+02  0.45594000000E+02  0.51100000000E-03 0. -1.
         11   -1    0    0    0    0 -0.00000000000E+00 -0.00000000000E+00 -0.45593999997E+02  0.45594000000E+02  0.51100000000E-03 0.  1.
    9900012    2    1    2    0    0  0.19095810072E+02  0.30279045056E+02 -0.19279376643E+02  0.50528869469E+02  0.30000029238E+02 0.  0.
         12    1    1    2    0    0 -0.19095810072E+02 -0.30279045056E+02  0.19279376643E+02  0.40659130531E+02  0.00000000000E+00 0. -1.
         11    1    3    3    0    0 -0.22829376498E+01  0.18145611533E+00  0.84210555573E+00  0.24400558729E+01  0.51100000000E-03 0. -1.
        -11    1    3    3    0    0  0.52728600592E+01  0.19345060733E+02  0.15364857920E+00  0.20051384893E+02  0.51100000000E-03 0.  1.
         12    1    3    3    0    0  0.16105887662E+02  0.10752528207E+02 -0.20275130778E+02  0.28037428703E+02  0.00000000000E+00 0. -1.
</event>
<event>
 7    1  0.2680581E-011  0.5052886E+02  0.7816164E-02  0.1300439E+00
        -11   -1    0    0    0    0  0.00000000000E+00  0.00000000000E+00  0.45593999997E+02  0.45594000000E+02  0.51100000000E-03 0.  1.
         11   -1    0    0    0    0 -0.00000000000E+00 -0.00000000000E+00 -0.45593999997E+02  0.45594000000E+02  0.51100000000E-03 0. -1.
    9900012    2    1    2    0    0  0.27802359630E+02  0.13984496472E+02  0.26165402101E+02  0.50528860687E+02  0.30000002545E+02 0.  0.
         12    1    1    2    0    0 -0.27802359630E+02 -0.13984496472E+02 -0.26165402101E+02  0.40659139313E+02  0.00000000000E+00 0. -1.
         11    1    3    3    0    0  0.99197558926E+01  0.10758011217E+02  0.26783787876E+02  0.30520610340E+02  0.51100000000E-03 0. -1.
        -11    1    3    3    0    0  0.66555903365E+01  0.45923653705E+01  0.21447681726E+01  0.83658073848E+01  0.51100000000E-03 0.  1.
        -12    1    3    3    0    0  0.11227013401E+02 -0.13658801151E+01 -0.27631539475E+01  0.11642442962E+02  0.00000000000E+00 0.  1.
</event>
<event>
 7    1  0.2680581E-011  0.5052887E+02  0.7816164E-02  0.1300439E+00
        -11   -1    0    0    0    0  0.00000000000E+00  0.00000000000E+00  0.45593999997E+02  0.45594000000E+02  0.51100000000E-03 0. -1.
         11   -1    0    0    0    0 -0.00000000000E+00 -0.00000000000E+00 -0.45593999997E+02  0.45594000000E+02  0.51100000000E-03 0.  1.
    9900012    2    1    2    0    0 -0.21641637703E+01 -0.33257959749E+02 -0.23289247164E+02  0.50528874027E+02  0.30000043092E+02 0.  0.
         12    1    1    2    0    0  0.21641637703E+01  0.33257959749E+02  0.23289247164E+02  0.40659125973E+02  0.00000000000E+00 0. -1.
         11    1    3    3    0    0  0.10086531938E+02 -0.12704687611E+02 -0.45913636557E+01  0.16859057930E+02  0.51100000000E-03 0. -1.
        -11    1    3    3    0    0 -0.11452883291E+01 -0.10296789347E+02 -0.10210257188E+01  0.10410477895E+02  0.51100000000E-03 0.  1.
        -12    1    3    3    0    0 -0.11105407379E+02 -0.10256482791E+02 -0.17676857789E+02  0.23259338202E+02  0.00000000000E+00 0.  1.
</event>
<event>
 7    1  0.2680581E-011  0.5052887E+02  0.7816164E-02  0.1300439E+00
        -11   -1    0    0    0    0  0.00000000000E+00  0.00000000000E+00  0.45593999997E+02  0.45594000000E+02  0.51100000000E-03 0. -1.
         11   -1    0    0    0    0 -0.00000000000E+00 -0.00000000000E+00 -0.45593999997E+02  0.45594000000E+02  0.51100000000E-03 0.  1.
    9900012    2    1    2    0    0  0.20148642323E+02  0.28498147898E+02 -0.20857920564E+02  0.50528867308E+02  0.30000022668E+02 0.  0.
         12    1    1    2    0    0 -0.20148642323E+02 -0.28498147898E+02  0.20857920564E+02  0.40659132692E+02  0.00000000000E+00 0. -1.
         11    1    3    3    0    0 -0.27265057663E+01 -0.75275246831E+00 -0.63307737773E+01  0.69339142519E+01  0.51100000000E-03 0. -1.
        -11    1    3    3    0    0  0.65582301147E+01  0.12633145054E+01  0.23317652727E+01  0.70741413136E+01  0.51100000000E-03 0.  1.
        -12    1    3    3    0    0  0.16316917974E+02  0.27987585861E+02 -0.16858912059E+02  0.36520811742E+02  0.00000000000E+00 0.  1.
</event>
<event>
 7    1  0.2680581E-011  0.5052886E+02  0.7816164E-02  0.1300439E+00
        -11   -1    0    0    0    0  0.00000000000E+00  0.00000000000E+00  0.45593999997E+02  0.45594000000E+02  0.51100000000E-03 0.  1.
         11   -1    0    0    0    0 -0.00000000000E+00 -0.00000000000E+00 -0.45593999997E+02  0.45594000000E+02  0.51100000000E-03 0. -1.
    9900012    2    1    2    0    0  0.31419169461E+02 -0.23625080690E+02  0.10385439297E+02  0.50528855928E+02  0.29999988080E+02 0.  0.
         12    1    1    2    0    0 -0.31419169461E+02  0.23625080690E+02 -0.10385439297E+02  0.40659144072E+02  0.00000000000E+00 0. -1.
         11    1    3    3    0    0  0.87817378699E+01  0.14908195432E+01  0.47403630907E+01  0.10090218304E+02  0.51100000000E-03 0. -1.
        -11    1    3    3    0    0  0.96521839803E+01 -0.27510539590E+01 -0.64067178146E+01  0.11907098173E+02  0.51100000000E-03 0.  1.
         12    1    3    3    0    0  0.12985247611E+02 -0.22364846274E+02  0.12051794021E+02  0.28531539452E+02  0.00000000000E+00 0. -1.
</event>
<event>
 7    1  0.2680581E-011  0.5052890E+02  0.7816164E-02  0.1300439E+00
        -11   -1    0    0    0    0  0.00000000000E+00  0.00000000000E+00  0.45593999997E+02  0.45594000000E+02  0.51100000000E-03 0.  1.
         11   -1    0    0    0    0 -0.00000000000E+00 -0.00000000000E+00 -0.45593999997E+02  0.45594000000E+02  0.51100000000E-03 0. -1.
    9900012    2    1    2    0    0  0.17144727052E+02  0.28020790042E+02  0.23959463918E+02  0.50528901984E+02  0.30000128069E+02 0.  0.
         12    1    1    2    0    0 -0.17144727052E+02 -0.28020790042E+02 -0.23959463918E+02  0.40659098016E+02  0.00000000000E+00 0. -1.
         11    1    3    3    0    0  0.13513096198E+02  0.24957645437E+00  0.38482919939E+01  0.14052594380E+02  0.51100000000E-03 0. -1.
        -11    1    3    3    0    0  0.75227061202E+01  0.12668699605E+02  0.82827414311E+01  0.16902392225E+02  0.51100000000E-03 0.  1.
        -12    1    3    3    0    0 -0.38910752666E+01  0.15102513982E+02  0.11828430493E+02  0.19573915378E+02  0.00000000000E+00 0.  1.
</event>
<event>
 7    1  0.2680581E-011  0.5052886E+02  0.7816164E-02  0.1300439E+00
        -11   -1    0    0    0    0  0.00000000000E+00  0.00000000000E+00  0.45593999997E+02  0.45594000000E+02  0.51100000000E-03 0. -1.
         11   -1    0    0    0    0 -0.00000000000E+00 -0.00000000000E+00 -0.45593999997E+02  0.45594000000E+02  0.51100000000E-03 0.  1.
    9900012    2    1    2    0    0 -0.16621019418E+02 -0.31923751456E+02 -0.18915108800E+02  0.50528861613E+02  0.30000005358E+02 0.  0.
         12    1    1    2    0    0  0.16621019418E+02  0.31923751456E+02  0.18915108800E+02  0.40659138387E+02  0.00000000000E+00 0. -1.
         11    1    3    3    0    0 -0.80074004833E+01 -0.77387117876E+01  0.37110169936E+01  0.11737877577E+02  0.51100000000E-03 0. -1.
        -11    1    3    3    0    0 -0.17906886642E+01 -0.17190630994E+02 -0.39742082812E+01  0.17734674837E+02  0.51100000000E-03 0.  1.
         12    1    3    3    0    0 -0.68229302706E+01 -0.69944086742E+01 -0.18651917512E+02  0.21056309198E+02  0.00000000000E+00 0. -1.
</event>
<event>
 7    1  0.2680581E-011  0.5052885E+02  0.7816164E-02  0.1300439E+00
        -11   -1    0    0    0    0  0.00000000000E+00  0.00000000000E+00  0.45593999997E+02  0.45594000000E+02  0.51100000000E-03 0.  1.
         11   -1    0    0    0    0 -0.00000000000E+00 -0.00000000000E+00 -0.45593999997E+02  0.45594000000E+02  0.51100000000E-03 0. -1.
    9900012    2    1    2    0    0  0.12103671888E+02 -0.32794137091E+02  0.20765651425E+02  0.50528848757E+02  0.29999966282E+02 0.  0.
         12    1    1    2    0    0 -0.12103671888E+02  0.32794137091E+02 -0.20765651425E+02  0.40659151243E+02  0.00000000000E+00 0. -1.
         11    1    3    3    0    0 -0.41411900355E+01 -0.52484447674E+01  0.19219936020E+00  0.66882410424E+01  0.51100000000E-03 0. -1.
        -11    1    3    3    0    0  0.37102331468E+01  0.34047461132E+01  0.99860411848E+00  0.51337448852E+01  0.51100000000E-03 0.  1.
        -12    1    3    3    0    0  0.12534628777E+02 -0.30950438436E+02  0.19574847946E+02  0.38706862829E+02  0.00000000000E+00 0.  1.
</event>
<event>
 7    1  0.2680581E-011  0.5052886E+02  0.7816164E-02  0.1300439E+00
        -11   -1    0    0    0    0  0.00000000000E+00  0.00000000000E+00  0.45593999997E+02  0.45594000000E+02  0.51100000000E-03 0.  1.
         11   -1    0    0    0    0 -0.00000000000E+00 -0.00000000000E+00 -0.45593999997E+02  0.45594000000E+02  0.51100000000E-03 0. -1.
    9900012    2    1    2    0    0 -0.30375244643E+02  0.16703289205E+02  0.21248771570E+02  0.50528860183E+02  0.30000001013E+02 0.  0.
         12    1    1    2    0    0  0.30375244643E+02 -0.16703289205E+02 -0.21248771570E+02  0.40659139817E+02  0.00000000000E+00 0. -1.
         11    1    3    3    0    0 -0.14021917798E+02  0.10349349342E+02  0.18802375451E+02  0.25636936896E+02  0.51100000000E-03 0.  1.
        -11    1    3    3    0    0 -0.81440413860E+01  0.69063354965E+01  0.93179452556E+01  0.14172049398E+02  0.51100000000E-03 0. -1.
         12    1    3    3    0    0 -0.82092854588E+01 -0.55239563366E+00 -0.68715491361E+01  0.10719873890E+02  0.00000000000E+00 0. -1.
</event>
<event>
 7    1  0.2680581E-011  0.5052884E+02  0.7816164E-02  0.1300439E+00
        -11   -1    0    0    0    0  0.00000000000E+00  0.00000000000E+00  0.45593999997E+02  0.45594000000E+02  0.51100000000E-03 0.  1.
         11   -1    0    0    0    0 -0.00000000000E+00 -0.00000000000E+00 -0.45593999997E+02  0.45594000000E+02  0.51100000000E-03 0. -1.
    9900012    2    1    2    0    0 -0.31645231769E+01  0.26759813482E+02  0.30447748684E+02  0.50528840830E+02  0.29999942186E+02 0.  0.
         12    1    1    2    0    0  0.31645231769E+01 -0.26759813482E+02 -0.30447748684E+02  0.40659159170E+02  0.00000000000E+00 0. -1.
         11    1    3    3    0    0  0.18116819750E+01 -0.40170362118E+01  0.73512493292E+01  0.85708598441E+01  0.51100000000E-03 0. -1.
        -11    1    3    3    0    0 -0.71517860703E+01  0.80465935965E+01  0.21634364964E+01  0.10980718111E+02  0.51100000000E-03 0.  1.
        -12    1    3    3    0    0  0.21755809184E+01  0.22730256097E+02  0.20933062858E+02  0.30977262874E+02  0.00000000000E+00 0.  1.
</event>
<event>
 7    1  0.2680581E-011  0.5052885E+02  0.7816164E-02  0.1300439E+00
        -11   -1    0    0    0    0  0.00000000000E+00  0.00000000000E+00  0.45593999997E+02  0.45594000000E+02  0.51100000000E-03 0.  1.
         11   -1    0    0    0    0 -0.00000000000E+00 -0.00000000000E+00 -0.45593999997E+02  0.45594000000E+02  0.51100000000E-03 0. -1.
    9900012    2    1    2    0    0 -0.21766103239E+02  0.33612926233E+02  0.70409099831E+01  0.50528850063E+02  0.29999970252E+02 0.  0.
         12    1    1    2    0    0  0.21766103239E+02 -0.33612926233E+02 -0.70409099831E+01  0.40659149937E+02  0.00000000000E+00 0. -1.
         11    1    3    3    0    0  0.40902544630E+01  0.10082969077E+02  0.21888337302E+01  0.11098983753E+02  0.51100000000E-03 0. -1.
        -11    1    3    3    0    0 -0.19682202611E+02  0.22417047434E+02  0.98427772343E+01  0.31413267567E+02  0.51100000000E-03 0.  1.
        -12    1    3    3    0    0 -0.61741550908E+01  0.11129097227E+01 -0.49907009814E+01  0.80165987440E+01  0.00000000000E+00 0.  1.
</event>
<event>
 7    1  0.2680581E-011  0.5052886E+02  0.7816164E-02  0.1300439E+00
        -11   -1    0    0    0    0  0.00000000000E+00  0.00000000000E+00  0.45593999997E+02  0.45594000000E+02  0.51100000000E-03 0. -1.
         11   -1    0    0    0    0 -0.00000000000E+00 -0.00000000000E+00 -0.45593999997E+02  0.45594000000E+02  0.51100000000E-03 0.  1.
    9900012    2    1    2    0    0  0.15840662464E+02 -0.29634379805E+02 -0.22891977546E+02  0.50528859703E+02  0.29999999554E+02 0.  0.
         12    1    1    2    0    0 -0.15840662464E+02  0.29634379805E+02  0.22891977546E+02  0.40659140297E+02  0.00000000000E+00 0. -1.
         11    1    3    3    0    0 -0.45419837577E+01 -0.37246235684E+01 -0.66502674649E+01  0.88729079110E+01  0.51100000000E-03 0. -1.
        -11    1    3    3    0    0  0.59101166159E+01 -0.22696141863E+01 -0.12064278858E+02  0.13624516564E+02  0.51100000000E-03 0.  1.
         12    1    3    3    0    0  0.14472529606E+02 -0.23640142050E+02 -0.41774312223E+01  0.28031435228E+02  0.00000000000E+00 0. -1.
</event>
<event>
 7    1  0.2680581E-011  0.5052885E+02  0.7816164E-02  0.1300439E+00
        -11   -1    0    0    0    0  0.00000000000E+00  0.00000000000E+00  0.45593999997E+02  0.45594000000E+02  0.51100000000E-03 0.  1.
         11   -1    0    0    0    0 -0.00000000000E+00 -0.00000000000E+00 -0.45593999997E+02  0.45594000000E+02  0.51100000000E-03 0. -1.
    9900012    2    1    2    0    0  0.11572836750E+01 -0.13779765658E+02  0.38235388449E+02  0.50528853712E+02  0.29999981341E+02 0.  0.
         12    1    1    2    0    0 -0.11572836750E+01  0.13779765658E+02 -0.38235388449E+02  0.40659146288E+02  0.00000000000E+00 0. -1.
         11    1    3    3    0    0  0.49094438414E+00  0.30710773535E+01 -0.11950192589E+01  0.33317583630E+01  0.51100000000E-03 0. -1.
        -11    1    3    3    0    0  0.52599228089E+01  0.10529373180E+01  0.18554197354E+02  0.19314080477E+02  0.51100000000E-03 0.  1.
        -12    1    3    3    0    0 -0.45935835180E+01 -0.17903780329E+02  0.20876210354E+02  0.27883014872E+02  0.00000000000E+00 0.  1.
</event>
<event>
 7    1  0.2680581E-011  0.5052885E+02  0.7816164E-02  0.1300439E+00
        -11   -1    0    0    0    0  0.00000000000E+00  0.00000000000E+00  0.45593999997E+02  0.45594000000E+02  0.51100000000E-03 0. -1.
         11   -1    0    0    0    0 -0.00000000000E+00 -0.00000000000E+00 -0.45593999997E+02  0.45594000000E+02  0.51100000000E-03 0.  1.
    9900012    2    1    2    0    0 -0.96793404544E+01  0.29104659701E+02 -0.26690734674E+02  0.50528853853E+02  0.29999981771E+02 0.  0.
         12    1    1    2    0    0  0.96793404544E+01 -0.29104659701E+02  0.26690734674E+02  0.40659146147E+02  0.00000000000E+00 0. -1.
         11    1    3    3    0    0  0.71126122395E+01  0.11756463377E+01  0.97511849816E+00  0.72747682800E+01  0.51100000000E-03 0. -1.
        -11    1    3    3    0    0 -0.26180431121E+01  0.75969960071E+01 -0.99457892943E+01  0.12786212223E+02  0.51100000000E-03 0.  1.
        -12    1    3    3    0    0 -0.14173909582E+02  0.20332017356E+02 -0.17720063878E+02  0.30467873350E+02  0.00000000000E+00 0.  1.
</event>
<event>
 7    1  0.2680581E-011  0.5052885E+02  0.7816164E-02  0.1300439E+00
        -11   -1    0    0    0    0  0.00000000000E+00  0.00000000000E+00  0.45593999997E+02  0.45594000000E+02  0.51100000000E-03 0.  1.
         11   -1    0    0    0    0 -0.00000000000E+00 -0.00000000000E+00 -0.45593999997E+02  0.45594000000E+02  0.51100000000E-03 0. -1.
    9900012    2    1    2    0    0 -0.33774159808E+02 -0.21737886059E+02 -0.63195923746E+01  0.50528845940E+02  0.29999957719E+02 0.  0.
         12    1    1    2    0    0  0.33774159808E+02  0.21737886059E+02  0.63195923746E+01  0.40659154060E+02  0.00000000000E+00 0. -1.
         11    1    3    3    0    0  0.31607701385E+01 -0.67862600088E+00  0.24568986448E+01  0.40604620832E+01  0.51100000000E-03 0. -1.
        -11    1    3    3    0    0 -0.23750948699E+02 -0.95066877118E+01 -0.12614352428E+02  0.28523789419E+02  0.51100000000E-03 0.  1.
         12    1    3    3    0    0 -0.13183981248E+02 -0.11552572347E+02  0.38378614082E+01  0.17944594438E+02  0.00000000000E+00 0. -1.
</event>
<event>
 7    1  0.2680581E-011  0.5052885E+02  0.7816164E-02  0.1300439E+00
        -11   -1    0    0    0    0  0.00000000000E+00  0.00000000000E+00  0.45593999997E+02  0.45594000000E+02  0.51100000000E-03 0. -1.
         11   -1    0    0    0    0 -0.00000000000E+00 -0.00000000000E+00 -0.45593999997E+02  0.45594000000E+02  0.51100000000E-03 0.  1.
    9900012    2    1    2    0    0 -0.18586070640E+02 -0.15102215521E+02 -0.32857994989E+02  0.50528846415E+02  0.29999959164E+02 0.  0.
         12    1    1    2    0    0  0.18586070640E+02  0.15102215521E+02  0.32857994989E+02  0.40659153585E+02  0.00000000000E+00 0. -1.
         11    1    3    3    0    0 -0.71662219122E+01  0.45828060851E+01 -0.75100639726E+00  0.85393711114E+01  0.51100000000E-03 0. -1.
        -11    1    3    3    0    0 -0.56651543306E+01 -0.97176708783E+01 -0.45650585111E+01  0.12139475292E+02  0.51100000000E-03 0.  1.
        -12    1    3    3    0    0 -0.57546943976E+01 -0.99673507283E+01 -0.27541930081E+02  0.29850000012E+02  0.00000000000E+00 0.  1.
</event>
<event>
 7    1  0.2680581E-011  0.5052886E+02  0.7816164E-02  0.1300439E+00
        -11   -1    0    0    0    0  0.00000000000E+00  0.00000000000E+00  0.45593999997E+02  0.45594000000E+02  0.51100000000E-03 0. -1.
         11   -1    0    0    0    0 -0.00000000000E+00 -0.00000000000E+00 -0.45593999997E+02  0.45594000000E+02  0.51100000000E-03 0.  1.
    9900012    2    1    2    0    0  0.12713490247E+02 -0.24699702314E+02 -0.29689349962E+02  0.50528860439E+02  0.30000001789E+02 0.  0.
         12    1    1    2    0    0 -0.12713490247E+02  0.24699702314E+02  0.29689349962E+02  0.40659139561E+02  0.00000000000E+00 0. -1.
         11    1    3    3    0    0  0.19141358567E+02 -0.67881222828E+01 -0.15841159421E+02  0.25756796074E+02  0.51100000000E-03 0. -1.
        -11    1    3    3    0    0 -0.13117740527E+01  0.35536467489E+00 -0.19593879756E+01  0.23845831329E+01  0.51100000000E-03 0.  1.
        -12    1    3    3    0    0 -0.51160942674E+01 -0.18266944706E+02 -0.11888802566E+02  0.22387481232E+02  0.00000000000E+00 0.  1.
</event>
<event>
 7    1  0.2680581E-011  0.5052882E+02  0.7816164E-02  0.1300439E+00
        -11   -1    0    0    0    0  0.00000000000E+00  0.00000000000E+00  0.45593999997E+02  0.45594000000E+02  0.51100000000E-03 0. -1.
         11   -1    0    0    0    0 -0.00000000000E+00 -0.00000000000E+00 -0.45593999997E+02  0.45594000000E+02  0.51100000000E-03 0.  1.
    9900012    2    1    2    0    0  0.35853718085E+02 -0.10724648571E+02 -0.15895327199E+02  0.50528823739E+02  0.29999890236E+02 0.  0.
         12    1    1    2    0    0 -0.35853718085E+02  0.10724648571E+02  0.15895327199E+02  0.40659176261E+02  0.00000000000E+00 0. -1.
         11    1    3    3    0    0  0.10856638544E+02  0.28243784685E+01 -0.66895203630E+01  0.13061140729E+02  0.51100000000E-03 0. -1.
        -11    1    3    3    0    0  0.20345711982E+02 -0.10659131588E+02 -0.16547462084E+02  0.28308719221E+02  0.51100000000E-03 0.  1.
         12    1    3    3    0    0  0.46513675592E+01 -0.28898954514E+01  0.73416552479E+01  0.91589637880E+01  0.00000000000E+00 0. -1.
</event>
<event>
 7    1  0.2680581E-011  0.5052886E+02  0.7816164E-02  0.1300439E+00
        -11   -1    0    0    0    0  0.00000000000E+00  0.00000000000E+00  0.45593999997E+02  0.45594000000E+02  0.51100000000E-03 0.  1.
         11   -1    0    0    0    0 -0.00000000000E+00 -0.00000000000E+00 -0.45593999997E+02  0.45594000000E+02  0.51100000000E-03 0. -1.
    9900012    2    1    2    0    0  0.16338978765E+02 -0.36748109192E+02  0.59816365161E+01  0.50528859187E+02  0.29999997984E+02 0.  0.
         12    1    1    2    0    0 -0.16338978765E+02  0.36748109192E+02 -0.59816365161E+01  0.40659140813E+02  0.00000000000E+00 0. -1.
         11    1    3    3    0    0  0.39671694409E+00 -0.26311212589E+01 -0.43676594733E+01  0.51143555751E+01  0.51100000000E-03 0. -1.
        -11    1    3    3    0    0  0.37273011549E+01 -0.29814332701E+02  0.22297289725E+01  0.30129037486E+02  0.51100000000E-03 0.  1.
        -12    1    3    3    0    0  0.12214960666E+02 -0.43026552322E+01  0.81195670169E+01  0.15285466125E+02  0.00000000000E+00 0.  1.
</event>
<event>
 7    1  0.2971620E-011  0.5052886E+02  0.7816164E-02  0.1300439E+00
        -11   -1    0    0    0    0  0.00000000000E+00  0.00000000000E+00  0.45593999997E+02  0.45594000000E+02  0.51100000000E-03 0. -1.
         11   -1    0    0    0    0 -0.00000000000E+00 -0.00000000000E+00 -0.45593999997E+02  0.45594000000E+02  0.51100000000E-03 0.  1.
    9900012    2    1    2    0    0 -0.37386363766E+01 -0.50835921272E+01 -0.40166473464E+02  0.50528857099E+02  0.29999991639E+02 0.  0.
         12    1    1    2    0    0  0.37386363766E+01  0.50835921272E+01  0.40166473464E+02  0.40659142901E+02  0.00000000000E+00 0. -1.
         11    1    3    3    0    0 -0.83093068454E+01 -0.31369713350E+01 -0.23826816535E+02  0.25428376980E+02  0.51100000000E-03 0. -1.
        -11    1    3    3    0    0  0.66786526313E+01 -0.24849692496E+01 -0.19783063815E+02  0.21027341423E+02  0.51100000000E-03 0.  1.
         12    1    3    3    0    0 -0.21079821625E+01  0.53834845738E+00  0.34434068855E+01  0.40731386962E+01  0.00000000000E+00 0. -1.
</event>
<event>
 7    1  0.2680581E-011  0.5052886E+02  0.7816164E-02  0.1300439E+00
        -11   -1    0    0    0    0  0.00000000000E+00  0.00000000000E+00  0.45593999997E+02  0.45594000000E+02  0.51100000000E-03 0.  1.
         11   -1    0    0    0    0 -0.00000000000E+00 -0.00000000000E+00 -0.45593999997E+02  0.45594000000E+02  0.51100000000E-03 0. -1.
    9900012    2    1    2    0    0  0.28226928893E+02 -0.26514769045E+02  0.12384398492E+02  0.50528858122E+02  0.29999994747E+02 0.  0.
         12    1    1    2    0    0 -0.28226928893E+02  0.26514769045E+02 -0.12384398492E+02  0.40659141878E+02  0.00000000000E+00 0. -1.
         11    1    3    3    0    0  0.15221035268E+02 -0.12244515866E+02  0.48351440029E+01  0.20124281384E+02  0.51100000000E-03 0.  1.
        -11    1    3    3    0    0  0.42279390108E+01 -0.12701141881E+02  0.14022049628E+02  0.19385880155E+02  0.51100000000E-03 0. -1.
         12    1    3    3    0    0  0.87779546142E+01 -0.15691112980E+01 -0.64727951390E+01  0.11018696583E+02  0.00000000000E+00 0. -1.
</event>
<event>
 7    1  0.2680581E-011  0.5052887E+02  0.7816164E-02  0.1300439E+00
        -11   -1    0    0    0    0  0.00000000000E+00  0.00000000000E+00  0.45593999997E+02  0.45594000000E+02  0.51100000000E-03 0. -1.
         11   -1    0    0    0    0 -0.00000000000E+00 -0.00000000000E+00 -0.45593999997E+02  0.45594000000E+02  0.51100000000E-03 0.  1.
    9900012    2    1    2    0    0 -0.39355458764E+02  0.95189868052E+01 -0.37015871323E+01  0.50528868287E+02  0.30000025647E+02 0.  0.
         12    1    1    2    0    0  0.39355458764E+02 -0.95189868052E+01  0.37015871323E+01  0.40659131713E+02  0.00000000000E+00 0. -1.
         11    1    3    3    0    0 -0.14220832246E+02  0.93765300210E+01 -0.49551791034E+01  0.17739931940E+02  0.51100000000E-03 0. -1.
        -11    1    3    3    0    0 -0.15856377379E+02  0.88644398718E+01 -0.46517725971E+01  0.18752119517E+02  0.51100000000E-03 0.  1.
        -12    1    3    3    0    0 -0.92782491384E+01 -0.87219830876E+01  0.59053645682E+01  0.14036816831E+02  0.00000000000E+00 0.  1.
</event>
<event>
 7    1  0.2680581E-011  0.5052892E+02  0.7816164E-02  0.1300439E+00
        -11   -1    0    0    0    0  0.00000000000E+00  0.00000000000E+00  0.45593999997E+02  0.45594000000E+02  0.51100000000E-03 0. -1.
         11   -1    0    0    0    0 -0.00000000000E+00 -0.00000000000E+00 -0.45593999997E+02  0.45594000000E+02  0.51100000000E-03 0.  1.
    9900012    2    1    2    0    0  0.18389984812E+02 -0.14446379390E+02 -0.33260655037E+02  0.50528922387E+02  0.30000190086E+02 0.  0.
         12    1    1    2    0    0 -0.18389984812E+02  0.14446379390E+02  0.33260655037E+02  0.40659077613E+02  0.00000000000E+00 0. -1.
         11    1    3    3    0    0  0.73519216990E+01 -0.16005933886E+01 -0.49495981307E+01  0.90061742033E+01  0.51100000000E-03 0. -1.
        -11    1    3    3    0    0  0.29807530597E+00  0.73989470927E+01 -0.79887879348E+01  0.10892841681E+02  0.51100000000E-03 0.  1.
        -12    1    3    3    0    0  0.10739987807E+02 -0.20244733094E+02 -0.20322268972E+02  0.30629906502E+02  0.00000000000E+00 0.  1.
</event>
<event>
 7    1  0.2791557E-011  0.5052886E+02  0.7816164E-02  0.1300439E+00
        -11   -1    0    0    0    0  0.00000000000E+00  0.00000000000E+00  0.45593999997E+02  0.45594000000E+02  0.51100000000E-03 0. -1.
         11   -1    0    0    0    0 -0.00000000000E+00 -0.00000000000E+00 -0.45593999997E+02  0.45594000000E+02  0.51100000000E-03 0.  1.
    9900012    2    1    2    0    0 -0.29036945492E+02 -0.74049677633E+00 -0.28451247650E+02  0.50528855496E+02  0.29999986767E+02 0.  0.
         12    1    1    2    0    0  0.29036945492E+02  0.74049677633E+00  0.28451247650E+02  0.40659144504E+02  0.00000000000E+00 0. -1.
         11    1    3    3    0    0 -0.44133632358E+01  0.37299799743E+01  0.10643997586E+01  0.58756678571E+01  0.51100000000E-03 0. -1.
        -11    1    3    3    0    0 -0.73229902133E+01  0.48600471031E+01 -0.21856457921E+02  0.23557397917E+02  0.51100000000E-03 0.  1.
        -12    1    3    3    0    0 -0.17300592042E+02 -0.93305238538E+01 -0.76591894873E+01  0.21095789722E+02  0.00000000000E+00 0.  1.
</event>
<event>
 7    1  0.2680581E-011  0.5052887E+02  0.7816164E-02  0.1300439E+00
        -11   -1    0    0    0    0  0.00000000000E+00  0.00000000000E+00  0.45593999997E+02  0.45594000000E+02  0.51100000000E-03 0. -1.
         11   -1    0    0    0    0 -0.00000000000E+00 -0.00000000000E+00 -0.45593999997E+02  0.45594000000E+02  0.51100000000E-03 0.  1.
    9900012    2    1    2    0    0  0.19757951697E+02  0.20799728590E+02 -0.28812490196E+02  0.50528868726E+02  0.30000026980E+02 0.  0.
         12    1    1    2    0    0 -0.19757951697E+02 -0.20799728590E+02  0.28812490196E+02  0.40659131274E+02  0.00000000000E+00 0. -1.
         11    1    3    3    0    0  0.16997013819E+01  0.89298720178E+01 -0.14855440013E+01  0.92107784841E+01  0.51100000000E-03 0. -1.
        -11    1    3    3    0    0  0.17248674989E+02  0.15146134445E+02 -0.12551709833E+02  0.26162331652E+02  0.51100000000E-03 0.  1.
        -12    1    3    3    0    0  0.80957532610E+00 -0.32762778725E+01 -0.14775236361E+02  0.15155758590E+02  0.00000000000E+00 0.  1.
</event>
<event>
 7    1  0.2680581E-011  0.5052889E+02  0.7816164E-02  0.1300439E+00
        -11   -1    0    0    0    0  0.00000000000E+00  0.00000000000E+00  0.45593999997E+02  0.45594000000E+02  0.51100000000E-03 0.  1.
         11   -1    0    0    0    0 -0.00000000000E+00 -0.00000000000E+00 -0.45593999997E+02  0.45594000000E+02  0.51100000000E-03 0. -1.
    9900012    2    1    2    0    0  0.93221304773E+01 -0.39575814204E+02 -0.12633169817E+00  0.50528890981E+02  0.30000094624E+02 0.  0.
         12    1    1    2    0    0 -0.93221304773E+01  0.39575814204E+02  0.12633169817E+00  0.40659109019E+02  0.00000000000E+00 0. -1.
         11    1    3    3    0    0  0.42984073100E+01 -0.78019012077E+01 -0.48744352381E+01  0.10154116752E+02  0.51100000000E-03 0. -1.
        -11    1    3    3    0    0  0.12967753381E+01 -0.34356195485E+02  0.84333613352E+00  0.34391001884E+02  0.51100000000E-03 0.  1.
        -12    1    3    3    0    0  0.37269478293E+01  0.25822824889E+01  0.39047674064E+01  0.59837723446E+01  0.00000000000E+00 0.  1.
</event>
<event>
 7    1  0.2680581E-011  0.5052886E+02  0.7816164E-02  0.1300439E+00
        -11   -1    0    0    0    0  0.00000000000E+00  0.00000000000E+00  0.45593999997E+02  0.45594000000E+02  0.51100000000E-03 0.  1.
         11   -1    0    0    0    0 -0.00000000000E+00 -0.00000000000E+00 -0.45593999997E+02  0.45594000000E+02  0.51100000000E-03 0. -1.
    9900012    2    1    2    0    0 -0.15155212327E+02  0.10779319755E+02  0.36156487501E+02  0.50528858550E+02  0.29999996049E+02 0.  0.
         12    1    1    2    0    0  0.15155212327E+02 -0.10779319755E+02 -0.36156487501E+02  0.40659141450E+02  0.00000000000E+00 0. -1.
         11    1    3    3    0    0 -0.10977232098E+01  0.50341706377E+01 -0.38406954088E+01  0.64264151545E+01  0.51100000000E-03 0. -1.
        -11    1    3    3    0    0 -0.51222590027E+00  0.49281192251E+01  0.12275023449E+02  0.13237255585E+02  0.51100000000E-03 0.  1.
        -12    1    3    3    0    0 -0.13545263217E+02  0.81702989234E+00  0.27722159460E+02  0.30865187811E+02  0.00000000000E+00 0.  1.
</event>
<event>
 7    1  0.2680581E-011  0.5052887E+02  0.7816164E-02  0.1300439E+00
        -11   -1    0    0    0    0  0.00000000000E+00  0.00000000000E+00  0.45593999997E+02  0.45594000000E+02  0.51100000000E-03 0.  1.
         11   -1    0    0    0    0 -0.00000000000E+00 -0.00000000000E+00 -0.45593999997E+02  0.45594000000E+02  0.51100000000E-03 0. -1.
    9900012    2    1    2    0    0  0.33873465360E+02  0.34711353700E+01  0.22219459106E+02  0.50528870653E+02  0.30000032837E+02 0.  0.
         12    1    1    2    0    0 -0.33873465360E+02 -0.34711353700E+01 -0.22219459106E+02  0.40659129347E+02  0.00000000000E+00 0. -1.
         11    1    3    3    0    0  0.23265256645E+02  0.12321460609E+02  0.11810201589E+02  0.28854313718E+02  0.51100000000E-03 0. -1.
        -11    1    3    3    0    0  0.11979290639E+02 -0.22623309194E+01  0.56771084356E+01  0.13448089302E+02  0.51100000000E-03 0.  1.
         12    1    3    3    0    0 -0.13710819240E+01 -0.65879943195E+01  0.47321490817E+01  0.82264676337E+01  0.00000000000E+00 0. -1.
</event>
<event>
 7    1  0.2890136E-011  0.5052886E+02  0.7816164E-02  0.1300439E+00
        -11   -1    0    0    0    0  0.00000000000E+00  0.00000000000E+00  0.45593999997E+02  0.45594000000E+02  0.51100000000E-03 0. -1.
         11   -1    0    0    0    0 -0.00000000000E+00 -0.00000000000E+00 -0.45593999997E+02  0.45594000000E+02  0.51100000000E-03 0.  1.
    9900012    2    1    2    0    0 -0.25412199466E+01 -0.35921379623E+02 -0.18877554354E+02  0.50528863619E+02  0.30000011457E+02 0.  0.
         12    1    1    2    0    0  0.25412199466E+01  0.35921379623E+02  0.18877554354E+02  0.40659136381E+02  0.00000000000E+00 0. -1.
         11    1    3    3    0    0 -0.22892776642E+01 -0.73902545059E+01  0.42933631196E+01  0.88481422357E+01  0.51100000000E-03 0. -1.
        -11    1    3    3    0    0 -0.47130560058E+01 -0.23143040269E+02 -0.79345130383E+01  0.24915250495E+02  0.51100000000E-03 0.  1.
         12    1    3    3    0    0  0.44611137234E+01 -0.53880848479E+01 -0.15236404436E+02  0.16765470888E+02  0.00000000000E+00 0. -1.
</event>
<event>
 7    1  0.2680581E-011  0.5052888E+02  0.7816164E-02  0.1300439E+00
        -11   -1    0    0    0    0  0.00000000000E+00  0.00000000000E+00  0.45593999997E+02  0.45594000000E+02  0.51100000000E-03 0.  1.
         11   -1    0    0    0    0 -0.00000000000E+00 -0.00000000000E+00 -0.45593999997E+02  0.45594000000E+02  0.51100000000E-03 0. -1.
    9900012    2    1    2    0    0 -0.98761897351E+01  0.24317605382E+02  0.31052839739E+02  0.50528881576E+02  0.30000066037E+02 0.  0.
         12    1    1    2    0    0  0.98761897351E+01 -0.24317605382E+02 -0.31052839739E+02  0.40659118424E+02  0.00000000000E+00 0. -1.
         11    1    3    3    0    0 -0.41138268854E+01  0.14928619768E+02  0.25228501356E+02  0.29601765838E+02  0.51100000000E-03 0. -1.
        -11    1    3    3    0    0 -0.99071253716E+01  0.83818747536E+01  0.88412061982E+01  0.15702671264E+02  0.51100000000E-03 0.  1.
         12    1    3    3    0    0  0.41447625219E+01  0.10071108600E+01 -0.30168678149E+01  0.52244444738E+01  0.00000000000E+00 0. -1.
</event>
<event>
 7    1  0.2680581E-011  0.5052886E+02  0.7816164E-02  0.1300439E+00
        -11   -1    0    0    0    0  0.00000000000E+00  0.00000000000E+00  0.45593999997E+02  0.45594000000E+02  0.51100000000E-03 0.  1.
         11   -1    0    0    0    0 -0.00000000000E+00 -0.00000000000E+00 -0.45593999997E+02  0.45594000000E+02  0.51100000000E-03 0. -1.
    9900012    2    1    2    0    0 -0.29734273373E+02  0.24793283319E+02  0.12423042351E+02  0.50528857215E+02  0.29999991990E+02 0.  0.
         12    1    1    2    0    0  0.29734273373E+02 -0.24793283319E+02 -0.12423042351E+02  0.40659142785E+02  0.00000000000E+00 0. -1.
         11    1    3    3    0    0 -0.10276149513E+02  0.13398158628E+02 -0.80826660437E+01  0.18720026551E+02  0.51100000000E-03 0. -1.
        -11    1    3    3    0    0 -0.13845380137E+02  0.52025018718E+01  0.81369135074E+01  0.16881052649E+02  0.51100000000E-03 0.  1.
        -12    1    3    3    0    0 -0.56127437234E+01  0.61926228190E+01  0.12368794887E+02  0.14927778014E+02  0.00000000000E+00 0.  1.
</event>
<event>
 7    1  0.2680581E-011  0.5052886E+02  0.7816164E-02  0.1300439E+00
        -11   -1    0    0    0    0  0.00000000000E+00  0.00000000000E+00  0.45593999997E+02  0.45594000000E+02  0.51100000000E-03 0.  1.
         11   -1    0    0    0    0 -0.00000000000E+00 -0.00000000000E+00 -0.45593999997E+02  0.45594000000E+02  0.51100000000E-03 0. -1.
    9900012    2    1    2    0    0 -0.34024809360E+00 -0.14408454295E+02  0.38019025873E+02  0.50528860163E+02  0.30000000953E+02 0.  0.
         12    1    1    2    0    0  0.34024809360E+00  0.14408454295E+02 -0.38019025873E+02  0.40659139837E+02  0.00000000000E+00 0. -1.
         11    1    3    3    0    0  0.53355741086E+01 -0.84765292323E+00  0.11031339682E+02  0.12283213015E+02  0.51100000000E-03 0. -1.
        -11    1    3    3    0    0  0.33573397976E+01 -0.12167955312E+01 -0.29465336213E+01  0.46297281263E+01  0.51100000000E-03 0.  1.
        -12    1    3    3    0    0 -0.90331619997E+01 -0.12344005840E+02  0.29934219812E+02  0.33615919022E+02  0.00000000000E+00 0.  1.
</event>
<event>
 7    1  0.2736142E-011  0.5052886E+02  0.7816164E-02  0.1300439E+00
        -11   -1    0    0    0    0  0.00000000000E+00  0.00000000000E+00  0.45593999997E+02  0.45594000000E+02  0.51100000000E-03 0. -1.
         11   -1    0    0    0    0 -0.00000000000E+00 -0.00000000000E+00 -0.45593999997E+02  0.45594000000E+02  0.51100000000E-03 0.  1.
    9900012    2    1    2    0    0 -0.24203077772E+02  0.21575289310E+02 -0.24533323342E+02  0.50528855437E+02  0.29999986586E+02 0.  0.
         12    1    1    2    0    0  0.24203077772E+02 -0.21575289310E+02  0.24533323342E+02  0.40659144563E+02  0.00000000000E+00 0. -1.
         11    1    3    3    0    0 -0.61572235523E+01 -0.22395997300E+01 -0.82936697013E+01  0.10569397627E+02  0.51100000000E-03 0. -1.
        -11    1    3    3    0    0 -0.16915601435E+02  0.70308792023E+01 -0.30227607360E+01  0.18566311346E+02  0.51100000000E-03 0.  1.
        -12    1    3    3    0    0 -0.11302527845E+01  0.16784009837E+02 -0.13216892904E+02  0.21393146464E+02  0.00000000000E+00 0.  1.
</event>
<event>
 7    1  0.2680581E-011  0.5052882E+02  0.7816164E-02  0.1300439E+00
        -11   -1    0    0    0    0  0.00000000000E+00  0.00000000000E+00  0.45593999997E+02  0.45594000000E+02  0.51100000000E-03 0.  1.
         11   -1    0    0    0    0 -0.00000000000E+00 -0.00000000000E+00 -0.45593999997E+02  0.45594000000E+02  0.51100000000E-03 0. -1.
    9900012    2    1    2    0    0 -0.12610452523E+02  0.43674564912E+01  0.38406652841E+02  0.50528816886E+02  0.29999869406E+02 0.  0.
         12    1    1    2    0    0  0.12610452523E+02 -0.43674564912E+01 -0.38406652841E+02  0.40659183114E+02  0.00000000000E+00 0. -1.
         11    1    3    3    0    0 -0.29407246292E+01 -0.87762673284E+01  0.92576824227E+01  0.13091043261E+02  0.51100000000E-03 0. -1.
        -11    1    3    3    0    0 -0.93588918330E+01  0.76507309298E+00  0.58798925238E+01  0.11079139386E+02  0.51100000000E-03 0.  1.
        -12    1    3    3    0    0 -0.31083606097E+00  0.12378650727E+02  0.23269077895E+02  0.26358634239E+02  0.00000000000E+00 0.  1.
</event>
<event>
 7    1  0.2680581E-011  0.5052886E+02  0.7816164E-02  0.1300439E+00
        -11   -1    0    0    0    0  0.00000000000E+00  0.00000000000E+00  0.45593999997E+02  0.45594000000E+02  0.51100000000E-03 0. -1.
         11   -1    0    0    0    0 -0.00000000000E+00 -0.00000000000E+00 -0.45593999997E+02  0.45594000000E+02  0.51100000000E-03 0.  1.
    9900012    2    1    2    0    0  0.22253803863E+02  0.31884291390E+02  0.11888050987E+02  0.50528861051E+02  0.30000003650E+02 0.  0.
         12    1    1    2    0    0 -0.22253803863E+02 -0.31884291390E+02 -0.11888050987E+02  0.40659138949E+02  0.00000000000E+00 0. -1.
         11    1    3    3    0    0  0.94153460761E+00  0.10282820030E+02 -0.66377097123E+01  0.12275262346E+02  0.51100000000E-03 0.  1.
        -11    1    3    3    0    0  0.13211256489E+00  0.16427141153E+00  0.53657468794E+01  0.53698862801E+01  0.51100000000E-03 0. -1.
        -12    1    3    3    0    0  0.21180156691E+02  0.21437199949E+02  0.13160013819E+02  0.32883712425E+02  0.00000000000E+00 0.  1.
</event>
<event>
 7    1  0.2680581E-011  0.5052886E+02  0.7816164E-02  0.1300439E+00
        -11   -1    0    0    0    0  0.00000000000E+00  0.00000000000E+00  0.45593999997E+02  0.45594000000E+02  0.51100000000E-03 0.  1.
         11   -1    0    0    0    0 -0.00000000000E+00 -0.00000000000E+00 -0.45593999997E+02  0.45594000000E+02  0.51100000000E-03 0. -1.
    9900012    2    1    2    0    0  0.30383381124E+02 -0.60359302073E+01  0.26335976793E+02  0.50528856186E+02  0.29999988864E+02 0.  0.
         12    1    1    2    0    0 -0.30383381124E+02  0.60359302073E+01 -0.26335976793E+02  0.40659143814E+02  0.00000000000E+00 0. -1.
         11    1    3    3    0    0  0.83127054889E+01 -0.93013449786E+01 -0.12830242069E+01  0.12540424328E+02  0.51100000000E-03 0. -1.
        -11    1    3    3    0    0  0.48723407116E+00  0.29894734572E+01  0.12219769782E+00  0.30313827092E+01  0.51100000000E-03 0.  1.
         12    1    3    3    0    0  0.21583441564E+02  0.27594131410E+00  0.27496803302E+02  0.34957049149E+02  0.00000000000E+00 0. -1.
</event>
<event>
 7    1  0.2680581E-011  0.5052886E+02  0.7816164E-02  0.1300439E+00
        -11   -1    0    0    0    0  0.00000000000E+00  0.00000000000E+00  0.45593999997E+02  0.45594000000E+02  0.51100000000E-03 0. -1.
         11   -1    0    0    0    0 -0.00000000000E+00 -0.00000000000E+00 -0.45593999997E+02  0.45594000000E+02  0.51100000000E-03 0.  1.
    9900012    2    1    2    0    0 -0.35316147291E+02 -0.16026995887E+02 -0.12209457073E+02  0.50528859593E+02  0.29999999218E+02 0.  0.
         12    1    1    2    0    0  0.35316147291E+02  0.16026995887E+02  0.12209457073E+02  0.40659140407E+02  0.00000000000E+00 0. -1.
         11    1    3    3    0    0  0.19571843674E+01 -0.67103346864E+01 -0.18435110118E+01  0.72289484272E+01  0.51100000000E-03 0. -1.
        -11    1    3    3    0    0 -0.15881737680E+02 -0.12220310559E+02 -0.19653364426E+01  0.20135245951E+02  0.51100000000E-03 0.  1.
         12    1    3    3    0    0 -0.21391593978E+02  0.29036493590E+01 -0.84006096187E+01  0.23164665215E+02  0.00000000000E+00 0. -1.
</event>
<event>
 7    1  0.2680581E-011  0.5052885E+02  0.7816164E-02  0.1300439E+00
        -11   -1    0    0    0    0  0.00000000000E+00  0.00000000000E+00  0.45593999997E+02  0.45594000000E+02  0.51100000000E-03 0.  1.
         11   -1    0    0    0    0 -0.00000000000E+00 -0.00000000000E+00 -0.45593999997E+02  0.45594000000E+02  0.51100000000E-03 0. -1.
    9900012    2    1    2    0    0  0.22470979410E+02  0.28781186167E+02 -0.17884766562E+02  0.50528850135E+02  0.29999970469E+02 0.  0.
         12    1    1    2    0    0 -0.22470979410E+02 -0.28781186167E+02  0.17884766562E+02  0.40659149865E+02  0.00000000000E+00 0. -1.
         11    1    3    3    0    0  0.78566618903E+01  0.21671435358E+02 -0.12873855177E+02  0.26402923965E+02  0.51100000000E-03 0. -1.
        -11    1    3    3    0    0  0.61387719571E+01  0.11355784111E+02  0.92371444101E+00  0.12941854680E+02  0.51100000000E-03 0.  1.
        -12    1    3    3    0    0  0.84755455627E+01 -0.42460333027E+01 -0.59346258251E+01  0.11184071489E+02  0.00000000000E+00 0.  1.
</event>
<event>
 7    1  0.2680581E-011  0.5052884E+02  0.7816164E-02  0.1300439E+00
        -11   -1    0    0    0    0  0.00000000000E+00  0.00000000000E+00  0.45593999997E+02  0.45594000000E+02  0.51100000000E-03 0.  1.
         11   -1    0    0    0    0 -0.00000000000E+00 -0.00000000000E+00 -0.45593999997E+02  0.45594000000E+02  0.51100000000E-03 0. -1.
    9900012    2    1    2    0    0  0.19837039745E+02 -0.80731663465E+01  0.34561296753E+02  0.50528838745E+02  0.29999935849E+02 0.  0.
         12    1    1    2    0    0 -0.19837039745E+02  0.80731663465E+01 -0.34561296753E+02  0.40659161255E+02  0.00000000000E+00 0. -1.
         11    1    3    3    0    0  0.29591994337E+01  0.12316201257E+01 -0.17211830134E+01  0.36381617129E+01  0.51100000000E-03 0. -1.
        -11    1    3    3    0    0  0.18979725834E+02 -0.74186487669E+00  0.16224407836E+02  0.24980227503E+02  0.51100000000E-03 0.  1.
        -12    1    3    3    0    0 -0.21018855221E+01 -0.85629215956E+01  0.20058071930E+02  0.21910449529E+02  0.00000000000E+00 0.  1.
</event>
<event>
 7    1  0.2680581E-011  0.5052886E+02  0.7816164E-02  0.1300439E+00
        -11   -1    0    0    0    0  0.00000000000E+00  0.00000000000E+00  0.45593999997E+02  0.45594000000E+02  0.51100000000E-03 0.  1.
         11   -1    0    0    0    0 -0.00000000000E+00 -0.00000000000E+00 -0.45593999997E+02  0.45594000000E+02  0.51100000000E-03 0. -1.
    9900012    2    1    2    0    0 -0.13510949454E+02 -0.38317942242E+02  0.15345414652E+01  0.50528864860E+02  0.30000015228E+02 0.  0.
         12    1    1    2    0    0  0.13510949454E+02  0.38317942242E+02 -0.15345414652E+01  0.40659135140E+02  0.00000000000E+00 0. -1.
         11    1    3    3    0    0 -0.46070422170E+01 -0.88201053542E+01  0.14041677690E+02  0.17210107758E+02  0.51100000000E-03 0. -1.
        -11    1    3    3    0    0 -0.18809747639E+01 -0.52867410799E+01 -0.14793989759E+01  0.58031300950E+01  0.51100000000E-03 0.  1.
         12    1    3    3    0    0 -0.70229324735E+01 -0.24211095808E+02 -0.11027737249E+02  0.27515627007E+02  0.00000000000E+00 0. -1.
</event>
<event>
 7    1  0.2680581E-011  0.5052886E+02  0.7816164E-02  0.1300439E+00
        -11   -1    0    0    0    0  0.00000000000E+00  0.00000000000E+00  0.45593999997E+02  0.45594000000E+02  0.51100000000E-03 0.  1.
         11   -1    0    0    0    0 -0.00000000000E+00 -0.00000000000E+00 -0.45593999997E+02  0.45594000000E+02  0.51100000000E-03 0. -1.
    9900012    2    1    2    0    0 -0.28603171633E+02 -0.22083199331E+02  0.18637504861E+02  0.50528859482E+02  0.29999998882E+02 0.  0.
         12    1    1    2    0    0  0.28603171633E+02  0.22083199331E+02 -0.18637504861E+02  0.40659140518E+02  0.00000000000E+00 0. -1.
         11    1    3    3    0    0  0.23983178548E+01 -0.41746045347E+01 -0.25146823789E+01  0.54316552985E+01  0.51100000000E-03 0. -1.
        -11    1    3    3    0    0 -0.14920914768E+02 -0.16121971575E+02  0.18463377902E+02  0.28695783467E+02  0.51100000000E-03 0.  1.
        -12    1    3    3    0    0 -0.16080574720E+02 -0.17866232219E+01  0.26888093381E+01  0.16401420717E+02  0.00000000000E+00 0.  1.
</event>
<event>
 7    1  0.2680581E-011  0.5052885E+02  0.7816164E-02  0.1300439E+00
        -11   -1    0    0    0    0  0.00000000000E+00  0.00000000000E+00  0.45593999997E+02  0.45594000000E+02  0.51100000000E-03 0. -1.
         11   -1    0    0    0    0 -0.00000000000E+00 -0.00000000000E+00 -0.45593999997E+02  0.45594000000E+02  0.51100000000E-03 0.  1.
    9900012    2    1    2    0    0  0.72897967858E+01 -0.12492203656E+02 -0.37999605093E+02  0.50528852486E+02  0.29999977617E+02 0.  0.
         12    1    1    2    0    0 -0.72897967858E+01  0.12492203656E+02  0.37999605093E+02  0.40659147514E+02  0.00000000000E+00 0. -1.
         11    1    3    3    0    0  0.29774036258E+01  0.46929085602E+01 -0.21389348137E+02  0.22099604908E+02  0.51100000000E-03 0. -1.
        -11    1    3    3    0    0  0.24516931052E+01  0.65173016283E+00  0.14958468337E+01  0.29450143121E+01  0.51100000000E-03 0.  1.
        -12    1    3    3    0    0  0.18607000548E+01 -0.17836842379E+02 -0.18106103790E+02  0.25484233266E+02  0.00000000000E+00 0.  1.
</event>
<event>
 7    1  0.2680581E-011  0.5052887E+02  0.7816164E-02  0.1300439E+00
        -11   -1    0    0    0    0  0.00000000000E+00  0.00000000000E+00  0.45593999997E+02  0.45594000000E+02  0.51100000000E-03 0.  1.
         11   -1    0    0    0    0 -0.00000000000E+00 -0.00000000000E+00 -0.45593999997E+02  0.45594000000E+02  0.51100000000E-03 0. -1.
    9900012    2    1    2    0    0  0.32662720588E+01 -0.22061027954E+02  0.33997172320E+02  0.50528865561E+02  0.30000017359E+02 0.  0.
         12    1    1    2    0    0 -0.32662720588E+01  0.22061027954E+02 -0.33997172320E+02  0.40659134439E+02  0.00000000000E+00 0. -1.
         11    1    3    3    0    0 -0.36258591250E+01 -0.26276329864E+01  0.19085617475E+01  0.48676398501E+01  0.51100000000E-03 0. -1.
        -11    1    3    3    0    0  0.61150899395E+01 -0.22160253382E+01 -0.25384993856E+01  0.69820536133E+01  0.51100000000E-03 0.  1.
        -12    1    3    3    0    0  0.77704124434E+00 -0.17217369630E+02  0.34627109959E+02  0.38679172097E+02  0.00000000000E+00 0.  1.
</event>
<event>
 7    1  0.2680581E-011  0.5052887E+02  0.7816164E-02  0.1300439E+00
        -11   -1    0    0    0    0  0.00000000000E+00  0.00000000000E+00  0.45593999997E+02  0.45594000000E+02  0.51100000000E-03 0.  1.
         11   -1    0    0    0    0 -0.00000000000E+00 -0.00000000000E+00 -0.45593999997E+02  0.45594000000E+02  0.51100000000E-03 0. -1.
    9900012    2    1    2    0    0 -0.15450485200E+01 -0.10968787341E+02  0.39121142316E+02  0.50528865150E+02  0.30000016109E+02 0.  0.
         12    1    1    2    0    0  0.15450485200E+01  0.10968787341E+02 -0.39121142316E+02  0.40659134850E+02  0.00000000000E+00 0. -1.
         11    1    3    3    0    0  0.53661543154E+01 -0.23216011379E+01  0.24446989602E+02  0.25136442565E+02  0.51100000000E-03 0.  1.
        -11    1    3    3    0    0 -0.48780028867E+01  0.45735469822E+01  0.80529803763E+01  0.10467222046E+02  0.51100000000E-03 0. -1.
         12    1    3    3    0    0 -0.20331999486E+01 -0.13220733185E+02  0.66211723384E+01  0.14925200538E+02  0.00000000000E+00 0. -1.
</event>
<event>
 7    1  0.2680581E-011  0.5052886E+02  0.7816164E-02  0.1300439E+00
        -11   -1    0    0    0    0  0.00000000000E+00  0.00000000000E+00  0.45593999997E+02  0.45594000000E+02  0.51100000000E-03 0.  1.
         11   -1    0    0    0    0 -0.00000000000E+00 -0.00000000000E+00 -0.45593999997E+02  0.45594000000E+02  0.51100000000E-03 0. -1.
    9900012    2    1    2    0    0 -0.29853963913E+02 -0.17899708648E+02  0.21012073715E+02  0.50528856221E+02  0.29999988971E+02 0.  0.
         12    1    1    2    0    0  0.29853963913E+02  0.17899708648E+02 -0.21012073715E+02  0.40659143779E+02  0.00000000000E+00 0. -1.
         11    1    3    3    0    0 -0.10784041244E+02 -0.55654248378E+01  0.18579905410E+02  0.22191944135E+02  0.51100000000E-03 0. -1.
        -11    1    3    3    0    0 -0.17248448331E+02 -0.14208491745E+02  0.67022973760E+01  0.23330473589E+02  0.51100000000E-03 0.  1.
         12    1    3    3    0    0 -0.18214743385E+01  0.18742079350E+01 -0.42701290712E+01  0.50064384980E+01  0.00000000000E+00 0. -1.
</event>
<event>
 7    1  0.2680581E-011  0.5052887E+02  0.7816164E-02  0.1300439E+00
        -11   -1    0    0    0    0  0.00000000000E+00  0.00000000000E+00  0.45593999997E+02  0.45594000000E+02  0.51100000000E-03 0. -1.
         11   -1    0    0    0    0 -0.00000000000E+00 -0.00000000000E+00 -0.45593999997E+02  0.45594000000E+02  0.51100000000E-03 0.  1.
    9900012    2    1    2    0    0 -0.18067173719E+02 -0.25692922882E+02 -0.25818910143E+02  0.50528866053E+02  0.30000018855E+02 0.  0.
         12    1    1    2    0    0  0.18067173719E+02  0.25692922882E+02  0.25818910143E+02  0.40659133947E+02  0.00000000000E+00 0. -1.
         11    1    3    3    0    0 -0.98329661851E+01 -0.22680798879E+01  0.14206693750E+01  0.10190667893E+02  0.51100000000E-03 0. -1.
        -11    1    3    3    0    0 -0.31436197128E+01 -0.17529273550E+02 -0.78876522768E+01  0.19477495598E+02  0.51100000000E-03 0.  1.
        -12    1    3    3    0    0 -0.50905878207E+01 -0.58955694437E+01 -0.19351927241E+02  0.20860702561E+02  0.00000000000E+00 0.  1.
</event>
<event>
 7    1  0.2680581E-011  0.5052886E+02  0.7816164E-02  0.1300439E+00
        -11   -1    0    0    0    0  0.00000000000E+00  0.00000000000E+00  0.45593999997E+02  0.45594000000E+02  0.51100000000E-03 0.  1.
         11   -1    0    0    0    0 -0.00000000000E+00 -0.00000000000E+00 -0.45593999997E+02  0.45594000000E+02  0.51100000000E-03 0. -1.
    9900012    2    1    2    0    0 -0.30989419816E+01  0.31762124518E+02  0.25193847899E+02  0.50528856290E+02  0.29999989178E+02 0.  0.
         12    1    1    2    0    0  0.30989419816E+01 -0.31762124518E+02 -0.25193847899E+02  0.40659143710E+02  0.00000000000E+00 0. -1.
         11    1    3    3    0    0  0.15083290158E+01 -0.31170780555E+01  0.53061801901E+01  0.63361487115E+01  0.51100000000E-03 0. -1.
        -11    1    3    3    0    0 -0.11511461791E+02  0.20562282195E+02  0.11534788758E+02  0.26236854872E+02  0.51100000000E-03 0.  1.
         12    1    3    3    0    0  0.69041907933E+01  0.14316920378E+02  0.83528789514E+01  0.17955852706E+02  0.00000000000E+00 0. -1.
</event>
<event>
 7    1  0.2680581E-011  0.5052877E+02  0.7816164E-02  0.1300439E+00
        -11   -1    0    0    0    0  0.00000000000E+00  0.00000000000E+00  0.45593999997E+02  0.45594000000E+02  0.51100000000E-03 0. -1.
         11   -1    0    0    0    0 -0.00000000000E+00 -0.00000000000E+00 -0.45593999997E+02  0.45594000000E+02  0.51100000000E-03 0.  1.
    9900012    2    1    2    0    0  0.10767142331E+02  0.30634002690E+02 -0.24470380618E+02  0.50528769777E+02  0.29999726212E+02 0.  0.
         12    1    1    2    0    0 -0.10767142331E+02 -0.30634002690E+02  0.24470380618E+02  0.40659230223E+02  0.00000000000E+00 0. -1.
         11    1    3    3    0    0  0.31466366558E+01  0.30974177157E+01 -0.13416256707E+02  0.14124137603E+02  0.51100000000E-03 0. -1.
        -11    1    3    3    0    0 -0.61255512269E+01  0.42942356577E+01 -0.81309614669E+00  0.75248895887E+01  0.51100000000E-03 0.  1.
        -12    1    3    3    0    0  0.13746056902E+02  0.23242349316E+02 -0.10241027765E+02  0.28879742585E+02  0.00000000000E+00 0.  1.
</event>
<event>
 7    1  0.2680581E-011  0.5052887E+02  0.7816164E-02  0.1300439E+00
        -11   -1    0    0    0    0  0.00000000000E+00  0.00000000000E+00  0.45593999997E+02  0.45594000000E+02  0.51100000000E-03 0.  1.
         11   -1    0    0    0    0 -0.00000000000E+00 -0.00000000000E+00 -0.45593999997E+02  0.45594000000E+02  0.51100000000E-03 0. -1.
    9900012    2    1    2    0    0 -0.25026535170E+02  0.98854130601E+00  0.32029046920E+02  0.50528874049E+02  0.30000043158E+02 0.  0.
         12    1    1    2    0    0  0.25026535170E+02 -0.98854130601E+00 -0.32029046920E+02  0.40659125951E+02  0.00000000000E+00 0. -1.
         11    1    3    3    0    0 -0.60099874265E+01 -0.17725756905E+01  0.15219889867E+02  0.16459253363E+02  0.51100000000E-03 0. -1.
        -11    1    3    3    0    0 -0.17934319137E+02 -0.74005570534E+01  0.10511235505E+02  0.22065677413E+02  0.51100000000E-03 0.  1.
         12    1    3    3    0    0 -0.10822286063E+01  0.10161674050E+02  0.62979215486E+01  0.12003943272E+02  0.00000000000E+00 0. -1.
</event>
<event>
 7    1  0.2680581E-011  0.5052884E+02  0.7816164E-02  0.1300439E+00
        -11   -1    0    0    0    0  0.00000000000E+00  0.00000000000E+00  0.45593999997E+02  0.45594000000E+02  0.51100000000E-03 0. -1.
         11   -1    0    0    0    0 -0.00000000000E+00 -0.00000000000E+00 -0.45593999997E+02  0.45594000000E+02  0.51100000000E-03 0.  1.
    9900012    2    1    2    0    0  0.22705872110E+02  0.33696193457E+02 -0.14755516264E+01  0.50528839478E+02  0.29999938077E+02 0.  0.
         12    1    1    2    0    0 -0.22705872110E+02 -0.33696193457E+02  0.14755516264E+01  0.40659160522E+02  0.00000000000E+00 0. -1.
         11    1    3    3    0    0  0.27494935069E+01  0.53651919748E+01 -0.78094572844E+01  0.98657297150E+01  0.51100000000E-03 0. -1.
        -11    1    3    3    0    0 -0.30284209883E+01  0.55710741068E+01  0.53580097287E+01  0.83015943589E+01  0.51100000000E-03 0.  1.
        -12    1    3    3    0    0  0.22984799591E+02  0.22759927375E+02  0.97589592929E+00  0.32361515404E+02  0.00000000000E+00 0.  1.
</event>
<event>
 7    1  0.3081441E-011  0.5052886E+02  0.7816164E-02  0.1300439E+00
        -11   -1    0    0    0    0  0.00000000000E+00  0.00000000000E+00  0.45593999997E+02  0.45594000000E+02  0.51100000000E-03 0. -1.
         11   -1    0    0    0    0 -0.00000000000E+00 -0.00000000000E+00 -0.45593999997E+02  0.45594000000E+02  0.51100000000E-03 0.  1.
    9900012    2    1    2    0    0  0.14725912426E+02  0.32511548772E+02 -0.19475940182E+02  0.50528861466E+02  0.30000004913E+02 0.  0.
         12    1    1    2    0    0 -0.14725912426E+02 -0.32511548772E+02  0.19475940182E+02  0.40659138534E+02  0.00000000000E+00 0. -1.
         11    1    3    3    0    0  0.18095366111E+01  0.17184310984E+02 -0.78426980982E+00  0.17297110918E+02  0.51100000000E-03 0. -1.
        -11    1    3    3    0    0  0.61349349510E+01 -0.30652509358E+00  0.19685163514E+01  0.64503055256E+01  0.51100000000E-03 0.  1.
        -12    1    3    3    0    0  0.67814408638E+01  0.15633762882E+02 -0.20660186724E+02  0.26781445022E+02  0.00000000000E+00 0.  1.
</event>
<event>
 7    1  0.2680581E-011  0.5052886E+02  0.7816164E-02  0.1300439E+00
        -11   -1    0    0    0    0  0.00000000000E+00  0.00000000000E+00  0.45593999997E+02  0.45594000000E+02  0.51100000000E-03 0.  1.
         11   -1    0    0    0    0 -0.00000000000E+00 -0.00000000000E+00 -0.45593999997E+02  0.45594000000E+02  0.51100000000E-03 0. -1.
    9900012    2    1    2    0    0  0.12161864947E+02 -0.11809664931E+02  0.36956550707E+02  0.50528858532E+02  0.29999995993E+02 0.  0.
         12    1    1    2    0    0 -0.12161864947E+02  0.11809664931E+02 -0.36956550707E+02  0.40659141468E+02  0.00000000000E+00 0. -1.
         11    1    3    3    0    0  0.13654974803E+01 -0.51291179802E+01  0.10700297881E+01  0.54145543336E+01  0.51100000000E-03 0. -1.
        -11    1    3    3    0    0  0.48468221474E+00 -0.73090710638E+01 -0.44883600132E+00  0.73388616748E+01  0.51100000000E-03 0.  1.
        -12    1    3    3    0    0  0.10311685252E+02  0.62852411269E+00  0.36335356920E+02  0.37775442523E+02  0.00000000000E+00 0.  1.
</event>
<event>
 7    1  0.2680581E-011  0.5052887E+02  0.7816164E-02  0.1300439E+00
        -11   -1    0    0    0    0  0.00000000000E+00  0.00000000000E+00  0.45593999997E+02  0.45594000000E+02  0.51100000000E-03 0.  1.
         11   -1    0    0    0    0 -0.00000000000E+00 -0.00000000000E+00 -0.45593999997E+02  0.45594000000E+02  0.51100000000E-03 0. -1.
    9900012    2    1    2    0    0  0.14292383404E+02  0.33821393530E+02  0.17464418780E+02  0.50528870558E+02  0.30000032548E+02 0.  0.
         12    1    1    2    0    0 -0.14292383404E+02 -0.33821393530E+02 -0.17464418780E+02  0.40659129442E+02  0.00000000000E+00 0. -1.
         11    1    3    3    0    0  0.11553103785E+01  0.71739872053E+01  0.76462398013E+01  0.10548261366E+02  0.51100000000E-03 0.  1.
        -11    1    3    3    0    0 -0.82786547156E+00  0.21210908062E+02 -0.13817219770E+01  0.21271980113E+02  0.51100000000E-03 0. -1.
         12    1    3    3    0    0  0.13964938497E+02  0.54364982625E+01  0.11199900956E+02  0.18708629078E+02  0.00000000000E+00 0. -1.
</event>
<event>
 7    1  0.2680581E-011  0.5052885E+02  0.7816164E-02  0.1300439E+00
        -11   -1    0    0    0    0  0.00000000000E+00  0.00000000000E+00  0.45593999997E+02  0.45594000000E+02  0.51100000000E-03 0.  1.
         11   -1    0    0    0    0 -0.00000000000E+00 -0.00000000000E+00 -0.45593999997E+02  0.45594000000E+02  0.51100000000E-03 0. -1.
    9900012    2    1    2    0    0 -0.19092309324E+02  0.12827836530E+02  0.33527557688E+02  0.50528846173E+02  0.29999958429E+02 0.  0.
         12    1    1    2    0    0  0.19092309324E+02 -0.12827836530E+02 -0.33527557688E+02  0.40659153827E+02  0.00000000000E+00 0. -1.
         11    1    3    3    0    0 -0.96610794715E+01  0.62478461017E+01  0.63869903162E+01  0.13159243254E+02  0.51100000000E-03 0. -1.
        -11    1    3    3    0    0 -0.15766420108E+02  0.16448345367E+00  0.21752895108E+02  0.26866252133E+02  0.51100000000E-03 0.  1.
        -12    1    3    3    0    0  0.63351902557E+01  0.64155069745E+01  0.53876722644E+01  0.10503350786E+02  0.00000000000E+00 0.  1.
</event>
<event>
 7    1  0.2680581E-011  0.5052886E+02  0.7816164E-02  0.1300439E+00
        -11   -1    0    0    0    0  0.00000000000E+00  0.00000000000E+00  0.45593999997E+02  0.45594000000E+02  0.51100000000E-03 0. -1.
         11   -1    0    0    0    0 -0.00000000000E+00 -0.00000000000E+00 -0.45593999997E+02  0.45594000000E+02  0.51100000000E-03 0.  1.
    9900012    2    1    2    0    0  0.37269841619E+02  0.15482943619E+02 -0.49399719653E+01  0.50528856374E+02  0.29999989434E+02 0.  0.
         12    1    1    2    0    0 -0.37269841619E+02 -0.15482943619E+02  0.49399719653E+01  0.40659143626E+02  0.00000000000E+00 0. -1.
         11    1    3    3    0    0  0.52011489468E+01  0.18054122183E+00  0.63966369195E+01  0.82463027861E+01  0.51100000000E-03 0. -1.
        -11    1    3    3    0    0  0.19894972408E+02  0.19089008261E+02 -0.49106386200E+01  0.28005616140E+02  0.51100000000E-03 0.  1.
         12    1    3    3    0    0  0.12173720264E+02 -0.37866058631E+01 -0.64259702648E+01  0.14276937447E+02  0.00000000000E+00 0. -1.
</event>
<event>
 7    1  0.2680581E-011  0.5052886E+02  0.7816164E-02  0.1300439E+00
        -11   -1    0    0    0    0  0.00000000000E+00  0.00000000000E+00  0.45593999997E+02  0.45594000000E+02  0.51100000000E-03 0.  1.
         11   -1    0    0    0    0 -0.00000000000E+00 -0.00000000000E+00 -0.45593999997E+02  0.45594000000E+02  0.51100000000E-03 0. -1.
    9900012    2    1    2    0    0  0.47099243669E+01  0.19439653676E+02  0.35398903939E+02  0.50528856838E+02  0.29999990845E+02 0.  0.
         12    1    1    2    0    0 -0.47099243669E+01 -0.19439653676E+02 -0.35398903939E+02  0.40659143162E+02  0.00000000000E+00 0. -1.
         11    1    3    3    0    0 -0.60874353808E+01  0.25206658095E+01  0.64916852935E+01  0.92494650575E+01  0.51100000000E-03 0. -1.
        -11    1    3    3    0    0  0.42712168798E+01 -0.36785658172E+00  0.20562742790E+02  0.21004880467E+02  0.51100000000E-03 0.  1.
         12    1    3    3    0    0  0.65261428679E+01  0.17286844449E+02  0.83444758551E+01  0.20274511314E+02  0.00000000000E+00 0. -1.
</event>
<event>
 7    1  0.2680581E-011  0.5052886E+02  0.7816164E-02  0.1300439E+00
        -11   -1    0    0    0    0  0.00000000000E+00  0.00000000000E+00  0.45593999997E+02  0.45594000000E+02  0.51100000000E-03 0. -1.
         11   -1    0    0    0    0 -0.00000000000E+00 -0.00000000000E+00 -0.45593999997E+02  0.45594000000E+02  0.51100000000E-03 0.  1.
    9900012    2    1    2    0    0  0.25225961207E+01  0.34445923180E+02 -0.21454154219E+02  0.50528857755E+02  0.29999993631E+02 0.  0.
         12    1    1    2    0    0 -0.25225961207E+01 -0.34445923180E+02  0.21454154219E+02  0.40659142245E+02  0.00000000000E+00 0. -1.
         11    1    3    3    0    0  0.10695620008E+01  0.73764655321E+01  0.26181781709E+01  0.79000673298E+01  0.51100000000E-03 0. -1.
        -11    1    3    3    0    0  0.40779128078E+01  0.17681993623E+02 -0.17004907308E+01  0.18225639641E+02  0.51100000000E-03 0.  1.
        -12    1    3    3    0    0 -0.26248786879E+01  0.93874640245E+01 -0.22371841659E+02  0.24403150783E+02  0.00000000000E+00 0.  1.
</event>
<event>
 7    1  0.2680581E-011  0.5052886E+02  0.7816164E-02  0.1300439E+00
        -11   -1    0    0    0    0  0.00000000000E+00  0.00000000000E+00  0.45593999997E+02  0.45594000000E+02  0.51100000000E-03 0.  1.
         11   -1    0    0    0    0 -0.00000000000E+00 -0.00000000000E+00 -0.45593999997E+02  0.45594000000E+02  0.51100000000E-03 0. -1.
    9900012    2    1    2    0    0 -0.56294513318E+00  0.22429911009E+02  0.33907927848E+02  0.50528863437E+02  0.30000010902E+02 0.  0.
         12    1    1    2    0    0  0.56294513318E+00 -0.22429911009E+02 -0.33907927848E+02  0.40659136563E+02  0.00000000000E+00 0. -1.
         11    1    3    3    0    0  0.32148916377E+01  0.59963376595E+01  0.13820441523E+01  0.69427400837E+01  0.51100000000E-03 0. -1.
        -11    1    3    3    0    0  0.16981094850E+01  0.21430154121E+02  0.25739539429E+02  0.33535935529E+02  0.51100000000E-03 0.  1.
         12    1    3    3    0    0 -0.54759462559E+01 -0.49965807713E+01  0.67863442664E+01  0.10050187824E+02  0.00000000000E+00 0. -1.
</event>
<event>
 7    1  0.2680581E-011  0.5052893E+02  0.7816164E-02  0.1300439E+00
        -11   -1    0    0    0    0  0.00000000000E+00  0.00000000000E+00  0.45593999997E+02  0.45594000000E+02  0.51100000000E-03 0. -1.
         11   -1    0    0    0    0 -0.00000000000E+00 -0.00000000000E+00 -0.45593999997E+02  0.45594000000E+02  0.51100000000E-03 0.  1.
    9900012    2    1    2    0    0 -0.41744349584E+01  0.26562904794E+02 -0.30498298332E+02  0.50528929432E+02  0.30000211501E+02 0.  0.
         12    1    1    2    0    0  0.41744349584E+01 -0.26562904794E+02  0.30498298332E+02  0.40659070568E+02  0.00000000000E+00 0. -1.
         11    1    3    3    0    0  0.10172776398E+02  0.88968673476E+01 -0.92125469061E+01  0.16355752780E+02  0.51100000000E-03 0. -1.
        -11    1    3    3    0    0 -0.11503202680E+01 -0.21553483487E+01 -0.42217296752E+01  0.48776802822E+01  0.51100000000E-03 0.  1.
         12    1    3    3    0    0 -0.13196891089E+02  0.19821385795E+02 -0.17064021751E+02  0.29295496370E+02  0.00000000000E+00 0. -1.
</event>
<event>
 7    1  0.2680581E-011  0.5052894E+02  0.7816164E-02  0.1300439E+00
        -11   -1    0    0    0    0  0.00000000000E+00  0.00000000000E+00  0.45593999997E+02  0.45594000000E+02  0.51100000000E-03 0.  1.
         11   -1    0    0    0    0 -0.00000000000E+00 -0.00000000000E+00 -0.45593999997E+02  0.45594000000E+02  0.51100000000E-03 0. -1.
    9900012    2    1    2    0    0  0.24746691718E+01 -0.36296034850E+02  0.18155808875E+02  0.50528935461E+02  0.30000229825E+02 0.  0.
         12    1    1    2    0    0 -0.24746691718E+01  0.36296034850E+02 -0.18155808875E+02  0.40659064539E+02  0.00000000000E+00 0. -1.
         11    1    3    3    0    0  0.34824995430E+01 -0.34372980583E+01  0.14249933354E+01  0.50964131775E+01  0.51100000000E-03 0. -1.
        -11    1    3    3    0    0  0.21215833602E+00 -0.29244051201E+02  0.23597024892E+02  0.37577641302E+02  0.51100000000E-03 0.  1.
         12    1    3    3    0    0 -0.12199887073E+01 -0.36146855899E+01 -0.68662093521E+01  0.78548809810E+01  0.00000000000E+00 0. -1.
</event>
<event>
 7    1  0.2680581E-011  0.5052885E+02  0.7816164E-02  0.1300439E+00
        -11   -1    0    0    0    0  0.00000000000E+00  0.00000000000E+00  0.45593999997E+02  0.45594000000E+02  0.51100000000E-03 0.  1.
         11   -1    0    0    0    0 -0.00000000000E+00 -0.00000000000E+00 -0.45593999997E+02  0.45594000000E+02  0.51100000000E-03 0. -1.
    9900012    2    1    2    0    0 -0.59258303729E+01  0.38615034705E+02  0.11266316500E+02  0.50528852710E+02  0.29999978297E+02 0.  0.
         12    1    1    2    0    0  0.59258303729E+01 -0.38615034705E+02 -0.11266316500E+02  0.40659147290E+02  0.00000000000E+00 0. -1.
         11    1    3    3    0    0 -0.48682262455E+01  0.10576279081E+02 -0.29457553001E+01  0.12009778538E+02  0.51100000000E-03 0. -1.
        -11    1    3    3    0    0  0.84848988728E+01  0.12285352771E+02 -0.51115905626E+00  0.14939366968E+02  0.51100000000E-03 0.  1.
        -12    1    3    3    0    0 -0.95425030002E+01  0.15753402853E+02  0.14723230856E+02  0.23579707204E+02  0.00000000000E+00 0.  1.
</event>
<event>
 7    1  0.2680581E-011  0.5052887E+02  0.7816164E-02  0.1300439E+00
        -11   -1    0    0    0    0  0.00000000000E+00  0.00000000000E+00  0.45593999997E+02  0.45594000000E+02  0.51100000000E-03 0. -1.
         11   -1    0    0    0    0 -0.00000000000E+00 -0.00000000000E+00 -0.45593999997E+02  0.45594000000E+02  0.51100000000E-03 0.  1.
    9900012    2    1    2    0    0 -0.97124675665E+01  0.39346552462E+02 -0.32682986237E+01  0.50528868273E+02  0.30000025602E+02 0.  0.
         12    1    1    2    0    0  0.97124675665E+01 -0.39346552462E+02  0.32682986237E+01  0.40659131727E+02  0.00000000000E+00 0. -1.
         11    1    3    3    0    0  0.30825681152E+01  0.44791297995E+01  0.17571835278E+01  0.57142387207E+01  0.51100000000E-03 0. -1.
        -11    1    3    3    0    0 -0.58966229019E+01  0.30954329138E+02  0.51335721368E+01  0.31926387475E+02  0.51100000000E-03 0.  1.
         12    1    3    3    0    0 -0.68984127798E+01  0.39130935247E+01 -0.10159054288E+02  0.12888242077E+02  0.00000000000E+00 0. -1.
</event>
<event>
 7    1  0.2680581E-011  0.5052886E+02  0.7816164E-02  0.1300439E+00
        -11   -1    0    0    0    0  0.00000000000E+00  0.00000000000E+00  0.45593999997E+02  0.45594000000E+02  0.51100000000E-03 0.  1.
         11   -1    0    0    0    0 -0.00000000000E+00 -0.00000000000E+00 -0.45593999997E+02  0.45594000000E+02  0.51100000000E-03 0. -1.
    9900012    2    1    2    0    0  0.23102735186E+02 -0.17832359090E+02  0.28309649176E+02  0.50528860311E+02  0.30000001402E+02 0.  0.
         12    1    1    2    0    0 -0.23102735186E+02  0.17832359090E+02 -0.28309649176E+02  0.40659139689E+02  0.00000000000E+00 0. -1.
         11    1    3    3    0    0  0.12213062247E+02 -0.10058937096E+02  0.13353229293E+02  0.20703860456E+02  0.51100000000E-03 0. -1.
        -11    1    3    3    0    0  0.24625617052E+01 -0.23780571651E+01  0.18797577626E+02  0.19106760346E+02  0.51100000000E-03 0.  1.
         12    1    3    3    0    0  0.84271112335E+01 -0.53953648287E+01 -0.38411577437E+01  0.10718239510E+02  0.00000000000E+00 0. -1.
</event>
<event>
 7    1  0.2680581E-011  0.5052888E+02  0.7816164E-02  0.1300439E+00
        -11   -1    0    0    0    0  0.00000000000E+00  0.00000000000E+00  0.45593999997E+02  0.45594000000E+02  0.51100000000E-03 0.  1.
         11   -1    0    0    0    0 -0.00000000000E+00 -0.00000000000E+00 -0.45593999997E+02  0.45594000000E+02  0.51100000000E-03 0. -1.
    9900012    2    1    2    0    0  0.31024345548E+02 -0.49895587335E+01  0.25802299892E+02  0.50528875652E+02  0.30000048032E+02 0.  0.
         12    1    1    2    0    0 -0.31024345548E+02  0.49895587335E+01 -0.25802299892E+02  0.40659124348E+02  0.00000000000E+00 0. -1.
         11    1    3    3    0    0 -0.12803298489E+00  0.59684490958E+01  0.85758229724E+00  0.60311047671E+01  0.51100000000E-03 0. -1.
        -11    1    3    3    0    0  0.69109277295E+01  0.26300351110E+01  0.11386350447E+02  0.13576707389E+02  0.51100000000E-03 0.  1.
         12    1    3    3    0    0  0.24241450804E+02 -0.13588042940E+02  0.13558367148E+02  0.30921063496E+02  0.00000000000E+00 0. -1.
</event>
<event>
 7    1  0.2680581E-011  0.5052886E+02  0.7816164E-02  0.1300439E+00
        -11   -1    0    0    0    0  0.00000000000E+00  0.00000000000E+00  0.45593999997E+02  0.45594000000E+02  0.51100000000E-03 0.  1.
         11   -1    0    0    0    0 -0.00000000000E+00 -0.00000000000E+00 -0.45593999997E+02  0.45594000000E+02  0.51100000000E-03 0. -1.
    9900012    2    1    2    0    0  0.68447943529E+01  0.39375022139E+02 -0.74781165572E+01  0.50528858280E+02  0.29999995227E+02 0.  0.
         12    1    1    2    0    0 -0.68447943529E+01 -0.39375022139E+02  0.74781165572E+01  0.40659141720E+02  0.00000000000E+00 0. -1.
         11    1    3    3    0    0  0.40617230087E+00 -0.10969897068E+01  0.38823919438E+01  0.40547909713E+01  0.51100000000E-03 0. -1.
        -11    1    3    3    0    0 -0.16505314711E+01  0.51238213338E+01  0.43831680900E+01  0.69418990171E+01  0.51100000000E-03 0.  1.
        -12    1    3    3    0    0  0.80891535231E+01  0.35348190512E+02 -0.15743676591E+02  0.39532168291E+02  0.00000000000E+00 0.  1.
</event>
<event>
 7    1  0.2680581E-011  0.5052886E+02  0.7816164E-02  0.1300439E+00
        -11   -1    0    0    0    0  0.00000000000E+00  0.00000000000E+00  0.45593999997E+02  0.45594000000E+02  0.51100000000E-03 0.  1.
         11   -1    0    0    0    0 -0.00000000000E+00 -0.00000000000E+00 -0.45593999997E+02  0.45594000000E+02  0.51100000000E-03 0. -1.
    9900012    2    1    2    0    0  0.16765412219E+02  0.17832387121E+02  0.32466796063E+02  0.50528856823E+02  0.29999990799E+02 0.  0.
         12    1    1    2    0    0 -0.16765412219E+02 -0.17832387121E+02 -0.32466796063E+02  0.40659143177E+02  0.00000000000E+00 0. -1.
         11    1    3    3    0    0  0.54685676348E+01  0.34695812792E+01  0.65786883523E+01  0.92315961202E+01  0.51100000000E-03 0.  1.
        -11    1    3    3    0    0 -0.42126455700E+01  0.81018762011E+01  0.22430530163E+02  0.24218081351E+02  0.51100000000E-03 0. -1.
         12    1    3    3    0    0  0.15509490155E+02  0.62609296412E+01  0.34575775474E+01  0.17079179352E+02  0.00000000000E+00 0. -1.
</event>
<event>
 7    1  0.2680581E-011  0.5052886E+02  0.7816164E-02  0.1300439E+00
        -11   -1    0    0    0    0  0.00000000000E+00  0.00000000000E+00  0.45593999997E+02  0.45594000000E+02  0.51100000000E-03 0.  1.
         11   -1    0    0    0    0 -0.00000000000E+00 -0.00000000000E+00 -0.45593999997E+02  0.45594000000E+02  0.51100000000E-03 0. -1.
    9900012    2    1    2    0    0 -0.30716784961E+01  0.76606285379E+01  0.39812629065E+02  0.50528857468E+02  0.29999992759E+02 0.  0.
         12    1    1    2    0    0  0.30716784961E+01 -0.76606285379E+01 -0.39812629065E+02  0.40659142532E+02  0.00000000000E+00 0. -1.
         11    1    3    3    0    0  0.92628538345E+01 -0.37098743550E+01  0.10019223502E+02  0.14140313601E+02  0.51100000000E-03 0. -1.
        -11    1    3    3    0    0 -0.63354092415E+01  0.89229956507E+01  0.77422310450E+01  0.13405200612E+02  0.51100000000E-03 0.  1.
        -12    1    3    3    0    0 -0.59991230891E+01  0.24475072422E+01  0.22051174518E+02  0.22983343254E+02  0.00000000000E+00 0.  1.
</event>
<event>
 7    1  0.2680581E-011  0.5052888E+02  0.7816164E-02  0.1300439E+00
        -11   -1    0    0    0    0  0.00000000000E+00  0.00000000000E+00  0.45593999997E+02  0.45594000000E+02  0.51100000000E-03 0.  1.
         11   -1    0    0    0    0 -0.00000000000E+00 -0.00000000000E+00 -0.45593999997E+02  0.45594000000E+02  0.51100000000E-03 0. -1.
    9900012    2    1    2    0    0  0.33972291723E+01 -0.13837491216E+02  0.38080787707E+02  0.50528883906E+02  0.30000073120E+02 0.  0.
         12    1    1    2    0    0 -0.33972291723E+01  0.13837491216E+02 -0.38080787707E+02  0.40659116094E+02  0.00000000000E+00 0. -1.
         11    1    3    3    0    0  0.18731030343E+01 -0.66072033960E+01  0.64855001141E+00  0.68981351880E+01  0.51100000000E-03 0. -1.
        -11    1    3    3    0    0  0.76572099398E+01 -0.10092816852E+02  0.33471459232E+02  0.35788774769E+02  0.51100000000E-03 0.  1.
         12    1    3    3    0    0 -0.61330838017E+01  0.28625290320E+01  0.39607784634E+01  0.78419739488E+01  0.00000000000E+00 0. -1.
</event>
<event>
 7    1  0.2680581E-011  0.5052893E+02  0.7816164E-02  0.1300439E+00
        -11   -1    0    0    0    0  0.00000000000E+00  0.00000000000E+00  0.45593999997E+02  0.45594000000E+02  0.51100000000E-03 0. -1.
         11   -1    0    0    0    0 -0.00000000000E+00 -0.00000000000E+00 -0.45593999997E+02  0.45594000000E+02  0.51100000000E-03 0.  1.
    9900012    2    1    2    0    0 -0.13599765088E+02 -0.38718743399E+01 -0.38121055573E+02  0.50528930909E+02  0.30000215990E+02 0.  0.
         12    1    1    2    0    0  0.13599765088E+02  0.38718743399E+01  0.38121055573E+02  0.40659069091E+02  0.00000000000E+00 0. -1.
         11    1    3    3    0    0  0.19480014540E+01 -0.31446870284E+01  0.13903185645E+01  0.39518036570E+01  0.51100000000E-03 0. -1.
        -11    1    3    3    0    0 -0.14794626049E+02 -0.35061472071E+01 -0.13277680303E+02  0.20185906535E+02  0.51100000000E-03 0.  1.
        -12    1    3    3    0    0 -0.75314049299E+00  0.27789598956E+01 -0.26233693835E+02  0.26391220717E+02  0.00000000000E+00 0.  1.
</event>
<event>
 7    1  0.2680581E-011  0.5052885E+02  0.7816164E-02  0.1300439E+00
        -11   -1    0    0    0    0  0.00000000000E+00  0.00000000000E+00  0.45593999997E+02  0.45594000000E+02  0.51100000000E-03 0.  1.
         11   -1    0    0    0    0 -0.00000000000E+00 -0.00000000000E+00 -0.45593999997E+02  0.45594000000E+02  0.51100000000E-03 0. -1.
    9900012    2    1    2    0    0  0.10029757916E+02 -0.45320993890E+01  0.39141161071E+02  0.50528850246E+02  0.29999970807E+02 0.  0.
         12    1    1    2    0    0 -0.10029757916E+02  0.45320993890E+01 -0.39141161071E+02  0.40659149754E+02  0.00000000000E+00 0. -1.
         11    1    3    3    0    0 -0.58580878810E+01 -0.17706836271E+00  0.90406838363E+00  0.59300831976E+01  0.51100000000E-03 0. -1.
        -11    1    3    3    0    0  0.81565525153E-01 -0.58722858220E+01  0.17636885815E+02  0.18588978865E+02  0.51100000000E-03 0.  1.
        -12    1    3    3    0    0  0.15806280272E+02  0.15172547957E+01  0.20600206873E+02  0.26009788184E+02  0.00000000000E+00 0.  1.
</event>
<event>
 7    1  0.2680581E-011  0.5052887E+02  0.7816164E-02  0.1300439E+00
        -11   -1    0    0    0    0  0.00000000000E+00  0.00000000000E+00  0.45593999997E+02  0.45594000000E+02  0.51100000000E-03 0.  1.
         11   -1    0    0    0    0 -0.00000000000E+00 -0.00000000000E+00 -0.45593999997E+02  0.45594000000E+02  0.51100000000E-03 0. -1.
    9900012    2    1    2    0    0 -0.40771450008E+01 -0.74324731289E+01  0.39765562270E+02  0.50528871740E+02  0.30000036141E+02 0.  0.
         12    1    1    2    0    0  0.40771450008E+01  0.74324731289E+01 -0.39765562270E+02  0.40659128260E+02  0.00000000000E+00 0. -1.
         11    1    3    3    0    0 -0.53568399989E+01 -0.56046552113E+01  0.11625588534E+02  0.13973625293E+02  0.51100000000E-03 0.  1.
        -11    1    3    3    0    0  0.39622566328E+01 -0.11823071855E+02  0.11518468787E+02  0.16975265216E+02  0.51100000000E-03 0. -1.
         12    1    3    3    0    0 -0.26825616347E+01  0.99952539374E+01  0.16621504950E+02  0.19579981231E+02  0.00000000000E+00 0. -1.
</event>
<event>
 7    1  0.2680581E-011  0.5052883E+02  0.7816164E-02  0.1300439E+00
        -11   -1    0    0    0    0  0.00000000000E+00  0.00000000000E+00  0.45593999997E+02  0.45594000000E+02  0.51100000000E-03 0.  1.
         11   -1    0    0    0    0 -0.00000000000E+00 -0.00000000000E+00 -0.45593999997E+02  0.45594000000E+02  0.51100000000E-03 0. -1.
    9900012    2    1    2    0    0 -0.73426183008E+01 -0.10509528479E+02  0.38585017869E+02  0.50528833305E+02  0.29999919314E+02 0.  0.
         12    1    1    2    0    0  0.73426183008E+01  0.10509528479E+02 -0.38585017869E+02  0.40659166695E+02  0.00000000000E+00 0. -1.
         11    1    3    3    0    0 -0.32030182751E+01  0.14970200488E+01 -0.40898714748E+01  0.54062412117E+01  0.51100000000E-03 0. -1.
        -11    1    3    3    0    0  0.64941049459E+00  0.62695767945E-01  0.91150847057E+01  0.91384043576E+01  0.51100000000E-03 0.  1.
        -12    1    3    3    0    0 -0.47890105202E+01 -0.12069244296E+02  0.33559804638E+02  0.35984187736E+02  0.00000000000E+00 0.  1.
</event>
<event>
 7    1  0.2680581E-011  0.5052887E+02  0.7816164E-02  0.1300439E+00
        -11   -1    0    0    0    0  0.00000000000E+00  0.00000000000E+00  0.45593999997E+02  0.45594000000E+02  0.51100000000E-03 0. -1.
         11   -1    0    0    0    0 -0.00000000000E+00 -0.00000000000E+00 -0.45593999997E+02  0.45594000000E+02  0.51100000000E-03 0.  1.
    9900012    2    1    2    0    0  0.85728811941E+01 -0.37778672557E+02 -0.12346765998E+02  0.50528867905E+02  0.30000024484E+02 0.  0.
         12    1    1    2    0    0 -0.85728811941E+01  0.37778672557E+02  0.12346765998E+02  0.40659132095E+02  0.00000000000E+00 0. -1.
         11    1    3    3    0    0  0.77396959697E+00  0.21504675033E+01  0.39558441940E+00  0.23194884595E+01  0.51100000000E-03 0. -1.
        -11    1    3    3    0    0  0.13289057244E+02 -0.20107488936E+02 -0.13504091734E+02  0.27627353249E+02  0.51100000000E-03 0.  1.
         12    1    3    3    0    0 -0.54901456469E+01 -0.19821651124E+02  0.76174131604E+00  0.20582026196E+02  0.00000000000E+00 0. -1.
</event>
<event>
 7    1  0.2680581E-011  0.5052886E+02  0.7816164E-02  0.1300439E+00
        -11   -1    0    0    0    0  0.00000000000E+00  0.00000000000E+00  0.45593999997E+02  0.45594000000E+02  0.51100000000E-03 0.  1.
         11   -1    0    0    0    0 -0.00000000000E+00 -0.00000000000E+00 -0.45593999997E+02  0.45594000000E+02  0.51100000000E-03 0. -1.
    9900012    2    1    2    0    0  0.14442984733E+02 -0.33187007795E+02  0.18525335062E+02  0.50528864083E+02  0.30000012866E+02 0.  0.
         12    1    1    2    0    0 -0.14442984733E+02  0.33187007795E+02 -0.18525335062E+02  0.40659135917E+02  0.00000000000E+00 0. -1.
         11    1    3    3    0    0  0.85902187474E+01 -0.64900341566E+00 -0.30195746604E+01  0.91285757352E+01  0.51100000000E-03 0. -1.
        -11    1    3    3    0    0  0.74519014378E+01 -0.11839036649E+02  0.50083274120E+01  0.14858565461E+02  0.51100000000E-03 0.  1.
         12    1    3    3    0    0 -0.15991354527E+01 -0.20698967730E+02  0.16536582311E+02  0.26541722887E+02  0.00000000000E+00 0. -1.
</event>
<event>
 7    1  0.2680581E-011  0.5052888E+02  0.7816164E-02  0.1300439E+00
        -11   -1    0    0    0    0  0.00000000000E+00  0.00000000000E+00  0.45593999997E+02  0.45594000000E+02  0.51100000000E-03 0.  1.
         11   -1    0    0    0    0 -0.00000000000E+00 -0.00000000000E+00 -0.45593999997E+02  0.45594000000E+02  0.51100000000E-03 0. -1.
    9900012    2    1    2    0    0 -0.20079389854E+01  0.38585904430E+02  0.12659400129E+02  0.50528877392E+02  0.30000053320E+02 0.  0.
         12    1    1    2    0    0  0.20079389854E+01 -0.38585904430E+02 -0.12659400129E+02  0.40659122608E+02  0.00000000000E+00 0. -1.
         11    1    3    3    0    0 -0.89793300401E+01  0.21757613345E+02 -0.10074496178E+01  0.23559224551E+02  0.51100000000E-03 0. -1.
        -11    1    3    3    0    0  0.10167523788E+02  0.11425341939E+02  0.46552714844E+01  0.15987136431E+02  0.51100000000E-03 0.  1.
        -12    1    3    3    0    0 -0.31961327334E+01  0.54029491453E+01  0.90115782621E+01  0.10982516410E+02  0.00000000000E+00 0.  1.
</event>
<event>
 7    1  0.2680581E-011  0.5052886E+02  0.7816164E-02  0.1300439E+00
        -11   -1    0    0    0    0  0.00000000000E+00  0.00000000000E+00  0.45593999997E+02  0.45594000000E+02  0.51100000000E-03 0.  1.
         11   -1    0    0    0    0 -0.00000000000E+00 -0.00000000000E+00 -0.45593999997E+02  0.45594000000E+02  0.51100000000E-03 0. -1.
    9900012    2    1    2    0    0 -0.17577133869E+02  0.12688073850E+02  0.34398007820E+02  0.50528858407E+02  0.29999995615E+02 0.  0.
         12    1    1    2    0    0  0.17577133869E+02 -0.12688073850E+02 -0.34398007820E+02  0.40659141593E+02  0.00000000000E+00 0. -1.
         11    1    3    3    0    0 -0.43555480002E+01  0.72377243605E+01 -0.20915725240E+00  0.84498046911E+01  0.51100000000E-03 0. -1.
        -11    1    3    3    0    0 -0.59804620765E+01 -0.65790185160E+01  0.78444997482E+01  0.11856879347E+02  0.51100000000E-03 0.  1.
        -12    1    3    3    0    0 -0.72411237923E+01  0.12029368006E+02  0.26762665324E+02  0.30222174370E+02  0.00000000000E+00 0.  1.
</event>
<event>
 7    1  0.2680581E-011  0.5052886E+02  0.7816164E-02  0.1300439E+00
        -11   -1    0    0    0    0  0.00000000000E+00  0.00000000000E+00  0.45593999997E+02  0.45594000000E+02  0.51100000000E-03 0.  1.
         11   -1    0    0    0    0 -0.00000000000E+00 -0.00000000000E+00 -0.45593999997E+02  0.45594000000E+02  0.51100000000E-03 0. -1.
    9900012    2    1    2    0    0  0.15404781876E+02  0.25415042302E+02  0.27747690721E+02  0.50528855638E+02  0.29999987199E+02 0.  0.
         12    1    1    2    0    0 -0.15404781876E+02 -0.25415042302E+02 -0.27747690721E+02  0.40659144362E+02  0.00000000000E+00 0. -1.
         11    1    3    3    0    0 -0.18250012293E+00 -0.52592331464E+00 -0.22420409102E+01  0.23101188999E+01  0.51100000000E-03 0. -1.
        -11    1    3    3    0    0  0.16914491513E+02  0.16784189581E+02  0.30787753194E+02  0.38931925075E+02  0.51100000000E-03 0.  1.
         12    1    3    3    0    0 -0.13272095143E+01  0.91567760358E+01 -0.79802156274E+00  0.92868116638E+01  0.00000000000E+00 0. -1.
</event>
<event>
 7    1  0.2680581E-011  0.5052886E+02  0.7816164E-02  0.1300439E+00
        -11   -1    0    0    0    0  0.00000000000E+00  0.00000000000E+00  0.45593999997E+02  0.45594000000E+02  0.51100000000E-03 0.  1.
         11   -1    0    0    0    0 -0.00000000000E+00 -0.00000000000E+00 -0.45593999997E+02  0.45594000000E+02  0.51100000000E-03 0. -1.
    9900012    2    1    2    0    0 -0.31779072092E+02  0.22845237544E+02  0.11015966853E+02  0.50528858013E+02  0.29999994416E+02 0.  0.
         12    1    1    2    0    0  0.31779072092E+02 -0.22845237544E+02 -0.11015966853E+02  0.40659141987E+02  0.00000000000E+00 0. -1.
         11    1    3    3    0    0 -0.10100957468E+02  0.11933193615E+02  0.14106473631E+02  0.21057612642E+02  0.51100000000E-03 0. -1.
        -11    1    3    3    0    0 -0.14309124720E+02  0.28570918354E+01  0.54853303030E+01  0.15588549413E+02  0.51100000000E-03 0.  1.
         12    1    3    3    0    0 -0.73689899038E+01  0.80549520934E+01 -0.85758370809E+01  0.13882695958E+02  0.00000000000E+00 0. -1.
</event>
