<event>
 7    1  0.5005325E-012  0.5052886E+02  0.7816164E-02  0.1300439E+00
        -11   -1    0    0    0    0  0.00000000000E+00  0.00000000000E+00  0.45593999997E+02  0.45594000000E+02  0.51100000000E-03 0. -1.
         11   -1    0    0    0    0 -0.00000000000E+00 -0.00000000000E+00 -0.45593999997E+02  0.45594000000E+02  0.51100000000E-03 0.  1.
    9900012    2    1    2    0    0  0.14002058636E+02  0.12335635311E+02 -0.36123957047E+02  0.50528858134E+02  0.29999994783E+02 0.  0.
         12    1    1    2    0    0 -0.14002058636E+02 -0.12335635311E+02  0.36123957047E+02  0.40659141866E+02  0.00000000000E+00 0. -1.
         11    1    3    3    0    0  0.21289236006E+01  0.71844686944E+01 -0.75677247038E+01  0.10649852749E+02  0.51100000000E-03 0. -1.
        -11    1    3    3    0    0  0.22690908286E+01 -0.10173120009E+01  0.43713390334E+01  0.50291452655E+01  0.51100000000E-03 0.  1.
        -12    1    3    3    0    0  0.96040442066E+01  0.61684786172E+01 -0.32927571377E+02  0.34849860119E+02  0.00000000000E+00 0.  1.
</event>
<event>
 7    1  0.6436501E-012  0.5052884E+02  0.7816164E-02  0.1300439E+00
        -11   -1    0    0    0    0  0.00000000000E+00  0.00000000000E+00  0.45593999997E+02  0.45594000000E+02  0.51100000000E-03 0. -1.
         11   -1    0    0    0    0 -0.00000000000E+00 -0.00000000000E+00 -0.45593999997E+02  0.45594000000E+02  0.51100000000E-03 0.  1.
    9900012    2    1    2    0    0  0.24623045518E+02  0.94022242356E+01  0.30959187194E+02  0.50528837897E+02  0.29999933273E+02 0.  0.
        -12    1    1    2    0    0 -0.24623045518E+02 -0.94022242356E+01 -0.30959187194E+02  0.40659162103E+02  0.00000000000E+00 0.  1.
         11    1    3    3    0    0  0.11708445178E+02 -0.23619282203E+01  0.19657774624E+02  0.23002054187E+02  0.51100000000E-03 0. -1.
        -11    1    3    3    0    0 -0.12334658145E+01  0.30586980207E+01  0.10377856765E+02  0.10889305891E+02  0.51100000000E-03 0.  1.
        -12    1    3    3    0    0  0.14148066155E+02  0.87054544353E+01  0.92355580510E+00  0.16637477819E+02  0.00000000000E+00 0.  1.
</event>
<event>
 7    1  0.5005325E-012  0.5052886E+02  0.7816164E-02  0.1300439E+00
        -11   -1    0    0    0    0  0.00000000000E+00  0.00000000000E+00  0.45593999997E+02  0.45594000000E+02  0.51100000000E-03 0.  1.
         11   -1    0    0    0    0 -0.00000000000E+00 -0.00000000000E+00 -0.45593999997E+02  0.45594000000E+02  0.51100000000E-03 0. -1.
    9900012    2    1    2    0    0 -0.68047150214E+01  0.32218688169E+02  0.23849895851E+02  0.50528861470E+02  0.30000004925E+02 0.  0.
        -12    1    1    2    0    0  0.68047150214E+01 -0.32218688169E+02 -0.23849895851E+02  0.40659138530E+02  0.00000000000E+00 0.  1.
         11    1    3    3    0    0  0.56964310209E+01  0.17824116699E+02  0.53429970381E+01  0.19460115110E+02  0.51100000000E-03 0. -1.
        -11    1    3    3    0    0 -0.13787042873E+01  0.99200026770E+01  0.15913261489E+02  0.18802637318E+02  0.51100000000E-03 0.  1.
         12    1    3    3    0    0 -0.11122441755E+02  0.44745687933E+01  0.25936373234E+01  0.12266109043E+02  0.00000000000E+00 0. -1.
</event>
<event>
 7    1  0.5005325E-012  0.5052878E+02  0.7816164E-02  0.1300439E+00
        -11   -1    0    0    0    0  0.00000000000E+00  0.00000000000E+00  0.45593999997E+02  0.45594000000E+02  0.51100000000E-03 0. -1.
         11   -1    0    0    0    0 -0.00000000000E+00 -0.00000000000E+00 -0.45593999997E+02  0.45594000000E+02  0.51100000000E-03 0.  1.
    9900012    2    1    2    0    0 -0.15609906429E+02 -0.35419035101E+02  0.12449693535E+02  0.50528780931E+02  0.29999760115E+02 0.  0.
        -12    1    1    2    0    0  0.15609906429E+02  0.35419035101E+02 -0.12449693535E+02  0.40659219069E+02  0.00000000000E+00 0.  1.
         11    1    3    3    0    0 -0.16302164028E+02 -0.17756601181E+02  0.13727645270E+02  0.27739965436E+02  0.51100000000E-03 0. -1.
        -11    1    3    3    0    0  0.18597996364E+01 -0.97632595109E+00 -0.52000312868E+01  0.56082432807E+01  0.51100000000E-03 0.  1.
        -12    1    3    3    0    0 -0.11675420379E+01 -0.16686107969E+02  0.39220795521E+01  0.17180572214E+02  0.00000000000E+00 0.  1.
</event>
<event>
 7    1  0.5005325E-012  0.5052884E+02  0.7816164E-02  0.1300439E+00
        -11   -1    0    0    0    0  0.00000000000E+00  0.00000000000E+00  0.45593999997E+02  0.45594000000E+02  0.51100000000E-03 0. -1.
         11   -1    0    0    0    0 -0.00000000000E+00 -0.00000000000E+00 -0.45593999997E+02  0.45594000000E+02  0.51100000000E-03 0.  1.
    9900012    2    1    2    0    0 -0.66128021978E+01 -0.49948440818E+01  0.39805644718E+02  0.50528843938E+02  0.29999951633E+02 0.  0.
        -12    1    1    2    0    0  0.66128021978E+01  0.49948440818E+01 -0.39805644718E+02  0.40659156062E+02  0.00000000000E+00 0.  1.
         11    1    3    3    0    0  0.17151901323E+01  0.12630573324E+01  0.20880732110E+02  0.20989096329E+02  0.51100000000E-03 0.  1.
        -11    1    3    3    0    0  0.17248229594E+01  0.25855747902E+01 -0.26922920708E+01  0.41120126572E+01  0.51100000000E-03 0. -1.
         12    1    3    3    0    0 -0.10052815289E+02 -0.88434762044E+01  0.21617204679E+02  0.25427734951E+02  0.00000000000E+00 0. -1.
</event>
<event>
 7    1  0.5005325E-012  0.5052886E+02  0.7816164E-02  0.1300439E+00
        -11   -1    0    0    0    0  0.00000000000E+00  0.00000000000E+00  0.45593999997E+02  0.45594000000E+02  0.51100000000E-03 0. -1.
         11   -1    0    0    0    0 -0.00000000000E+00 -0.00000000000E+00 -0.45593999997E+02  0.45594000000E+02  0.51100000000E-03 0.  1.
    9900012    2    1    2    0    0  0.22860610825E+00  0.36736734457E+01 -0.40492190783E+02  0.50528860170E+02  0.30000000973E+02 0.  0.
         12    1    1    2    0    0 -0.22860610825E+00 -0.36736734457E+01  0.40492190783E+02  0.40659139830E+02  0.00000000000E+00 0. -1.
         11    1    3    3    0    0 -0.34688872884E+01 -0.47785150942E+01 -0.15981606843E+02  0.17037580318E+02  0.51100000000E-03 0. -1.
        -11    1    3    3    0    0  0.10678794785E+02  0.25362978121E+00 -0.17932364523E+02  0.20872725835E+02  0.51100000000E-03 0.  1.
         12    1    3    3    0    0 -0.69813013886E+01  0.81985587587E+01 -0.65782194162E+01  0.12618554017E+02  0.00000000000E+00 0. -1.
</event>
<event>
 7    1  0.5005325E-012  0.5052886E+02  0.7816164E-02  0.1300439E+00
        -11   -1    0    0    0    0  0.00000000000E+00  0.00000000000E+00  0.45593999997E+02  0.45594000000E+02  0.51100000000E-03 0. -1.
         11   -1    0    0    0    0 -0.00000000000E+00 -0.00000000000E+00 -0.45593999997E+02  0.45594000000E+02  0.51100000000E-03 0.  1.
    9900012    2    1    2    0    0 -0.39473446319E+02 -0.23348036530E+01  0.94636805299E+01  0.50528861770E+02  0.30000005838E+02 0.  0.
         12    1    1    2    0    0  0.39473446319E+02  0.23348036530E+01 -0.94636805299E+01  0.40659138230E+02  0.00000000000E+00 0. -1.
         11    1    3    3    0    0 -0.17495191538E+00  0.16051204188E+01  0.62847342843E+01  0.64888292485E+01  0.51100000000E-03 0. -1.
        -11    1    3    3    0    0 -0.14842848009E+02  0.51881844895E+01 -0.53018268222E+01  0.16593274638E+02  0.51100000000E-03 0.  1.
        -12    1    3    3    0    0 -0.24455646395E+02 -0.91281085613E+01  0.84807730678E+01  0.27446757884E+02  0.00000000000E+00 0.  1.
</event>
<event>
 7    1  0.5005325E-012  0.5052888E+02  0.7816164E-02  0.1300439E+00
        -11   -1    0    0    0    0  0.00000000000E+00  0.00000000000E+00  0.45593999997E+02  0.45594000000E+02  0.51100000000E-03 0. -1.
         11   -1    0    0    0    0 -0.00000000000E+00 -0.00000000000E+00 -0.45593999997E+02  0.45594000000E+02  0.51100000000E-03 0.  1.
    9900012    2    1    2    0    0  0.39304823232E+02  0.95818530007E+01  0.40599451889E+01  0.50528878131E+02  0.30000055566E+02 0.  0.
        -12    1    1    2    0    0 -0.39304823232E+02 -0.95818530007E+01 -0.40599451889E+01  0.40659121869E+02  0.00000000000E+00 0.  1.
         11    1    3    3    0    0  0.35998798229E+02 -0.33830726148E+01  0.40264942811E+01  0.36380919597E+02  0.51100000000E-03 0. -1.
        -11    1    3    3    0    0 -0.15752956742E+00  0.91749558481E+00  0.12445219384E+01  0.15541714285E+01  0.51100000000E-03 0.  1.
        -12    1    3    3    0    0  0.34635545705E+01  0.12047430031E+02 -0.12110710307E+01  0.12593787105E+02  0.00000000000E+00 0.  1.
</event>
<event>
 7    1  0.5005325E-012  0.5052886E+02  0.7816164E-02  0.1300439E+00
        -11   -1    0    0    0    0  0.00000000000E+00  0.00000000000E+00  0.45593999997E+02  0.45594000000E+02  0.51100000000E-03 0. -1.
         11   -1    0    0    0    0 -0.00000000000E+00 -0.00000000000E+00 -0.45593999997E+02  0.45594000000E+02  0.51100000000E-03 0.  1.
    9900012    2    1    2    0    0  0.16009371409E+02 -0.21313645675E+02  0.30701697057E+02  0.50528859981E+02  0.30000000399E+02 0.  0.
        -12    1    1    2    0    0 -0.16009371409E+02  0.21313645675E+02 -0.30701697057E+02  0.40659140019E+02  0.00000000000E+00 0.  1.
         11    1    3    3    0    0 -0.31848871689E+00 -0.14963257179E+02  0.14497370055E+02  0.20836848112E+02  0.51100000000E-03 0. -1.
        -11    1    3    3    0    0  0.11067892141E+02 -0.10674155749E+02  0.42807116541E+01  0.15961213297E+02  0.51100000000E-03 0.  1.
        -12    1    3    3    0    0  0.52599679854E+01  0.43237672531E+01  0.11923615348E+02  0.13730798572E+02  0.00000000000E+00 0.  1.
</event>
<event>
 7    1  0.5005325E-012  0.5052886E+02  0.7816164E-02  0.1300439E+00
        -11   -1    0    0    0    0  0.00000000000E+00  0.00000000000E+00  0.45593999997E+02  0.45594000000E+02  0.51100000000E-03 0. -1.
         11   -1    0    0    0    0 -0.00000000000E+00 -0.00000000000E+00 -0.45593999997E+02  0.45594000000E+02  0.51100000000E-03 0.  1.
    9900012    2    1    2    0    0  0.31542414171E+02  0.48299912552E+01 -0.25197483660E+02  0.50528857239E+02  0.29999992063E+02 0.  0.
         12    1    1    2    0    0 -0.31542414171E+02 -0.48299912552E+01  0.25197483660E+02  0.40659142761E+02  0.00000000000E+00 0. -1.
         11    1    3    3    0    0  0.62868234734E+01  0.79776381366E+01 -0.20457228114E+01  0.10361073386E+02  0.51100000000E-03 0. -1.
        -11    1    3    3    0    0  0.10350571132E+02  0.22855122276E+01 -0.21806740195E+02  0.24246480303E+02  0.51100000000E-03 0.  1.
        -12    1    3    3    0    0  0.14905019566E+02 -0.54331591090E+01 -0.13450206538E+01  0.15921303550E+02  0.00000000000E+00 0.  1.
</event>
<event>
 7    1  0.5005325E-012  0.5052886E+02  0.7816164E-02  0.1300439E+00
        -11   -1    0    0    0    0  0.00000000000E+00  0.00000000000E+00  0.45593999997E+02  0.45594000000E+02  0.51100000000E-03 0.  1.
         11   -1    0    0    0    0 -0.00000000000E+00 -0.00000000000E+00 -0.45593999997E+02  0.45594000000E+02  0.51100000000E-03 0. -1.
    9900012    2    1    2    0    0 -0.26911103496E+02 -0.29800866656E+02  0.63926770272E+01  0.50528862473E+02  0.30000007973E+02 0.  0.
        -12    1    1    2    0    0  0.26911103496E+02  0.29800866656E+02 -0.63926770272E+01  0.40659137527E+02  0.00000000000E+00 0.  1.
         11    1    3    3    0    0 -0.33040564543E+00 -0.10698010718E+01 -0.31660534291E+01  0.33582044013E+01  0.51100000000E-03 0. -1.
        -11    1    3    3    0    0 -0.18144636579E+02 -0.30431022027E+02  0.16268870929E+01  0.35467191883E+02  0.51100000000E-03 0.  1.
        -12    1    3    3    0    0 -0.84360612721E+01  0.16999564426E+01  0.79318433634E+01  0.11703466189E+02  0.00000000000E+00 0.  1.
</event>
<event>
 7    1  0.5005325E-012  0.5052886E+02  0.7816164E-02  0.1300439E+00
        -11   -1    0    0    0    0  0.00000000000E+00  0.00000000000E+00  0.45593999997E+02  0.45594000000E+02  0.51100000000E-03 0.  1.
         11   -1    0    0    0    0 -0.00000000000E+00 -0.00000000000E+00 -0.45593999997E+02  0.45594000000E+02  0.51100000000E-03 0. -1.
    9900012    2    1    2    0    0  0.19573919910E+02 -0.32039010257E+02 -0.15605425731E+02  0.50528857964E+02  0.29999994266E+02 0.  0.
         12    1    1    2    0    0 -0.19573919910E+02  0.32039010257E+02  0.15605425731E+02  0.40659142036E+02  0.00000000000E+00 0. -1.
         11    1    3    3    0    0  0.99477278135E+01  0.10664018914E+01 -0.10501743990E+01  0.10059690262E+02  0.51100000000E-03 0. -1.
        -11    1    3    3    0    0  0.89820776844E+00 -0.83002009153E+01 -0.11186339802E+02  0.13958306160E+02  0.51100000000E-03 0.  1.
        -12    1    3    3    0    0  0.87279843276E+01 -0.24805211233E+02 -0.33689115297E+01  0.26510861541E+02  0.00000000000E+00 0.  1.
</event>
<event>
 7    1  0.5005325E-012  0.5052886E+02  0.7816164E-02  0.1300439E+00
        -11   -1    0    0    0    0  0.00000000000E+00  0.00000000000E+00  0.45593999997E+02  0.45594000000E+02  0.51100000000E-03 0. -1.
         11   -1    0    0    0    0 -0.00000000000E+00 -0.00000000000E+00 -0.45593999997E+02  0.45594000000E+02  0.51100000000E-03 0.  1.
    9900012    2    1    2    0    0 -0.10648348204E+02  0.19206801534E+02  0.34218076073E+02  0.50528864805E+02  0.30000015062E+02 0.  0.
        -12    1    1    2    0    0  0.10648348204E+02 -0.19206801534E+02 -0.34218076073E+02  0.40659135195E+02  0.00000000000E+00 0.  1.
         11    1    3    3    0    0 -0.84391965453E+01  0.63120594740E+01  0.10065042195E+02  0.14572824290E+02  0.51100000000E-03 0. -1.
        -11    1    3    3    0    0 -0.37623370854E+01  0.14153756859E+02  0.28012252073E+02  0.31609654855E+02  0.51100000000E-03 0.  1.
        -12    1    3    3    0    0  0.15531854270E+01 -0.12590147989E+01 -0.38592181948E+01  0.43463856605E+01  0.00000000000E+00 0.  1.
</event>
<event>
 7    1  0.5005325E-012  0.5052886E+02  0.7816164E-02  0.1300439E+00
        -11   -1    0    0    0    0  0.00000000000E+00  0.00000000000E+00  0.45593999997E+02  0.45594000000E+02  0.51100000000E-03 0. -1.
         11   -1    0    0    0    0 -0.00000000000E+00 -0.00000000000E+00 -0.45593999997E+02  0.45594000000E+02  0.51100000000E-03 0.  1.
    9900012    2    1    2    0    0  0.69484012890E-01  0.18936431857E+02  0.35980168616E+02  0.50528858185E+02  0.29999994938E+02 0.  0.
        -12    1    1    2    0    0 -0.69484012890E-01 -0.18936431857E+02 -0.35980168616E+02  0.40659141815E+02  0.00000000000E+00 0.  1.
         11    1    3    3    0    0 -0.19033280275E+01  0.37329973862E+01  0.17503719666E+02  0.17998281292E+02  0.51100000000E-03 0. -1.
        -11    1    3    3    0    0  0.33952606367E+01  0.20749815220E+02  0.13964705659E+02  0.25240753373E+02  0.51100000000E-03 0.  1.
         12    1    3    3    0    0 -0.14224485964E+01 -0.55463807486E+01  0.45117432912E+01  0.72898235194E+01  0.00000000000E+00 0. -1.
</event>
<event>
 7    1  0.5005325E-012  0.5052886E+02  0.7816164E-02  0.1300439E+00
        -11   -1    0    0    0    0  0.00000000000E+00  0.00000000000E+00  0.45593999997E+02  0.45594000000E+02  0.51100000000E-03 0. -1.
         11   -1    0    0    0    0 -0.00000000000E+00 -0.00000000000E+00 -0.45593999997E+02  0.45594000000E+02  0.51100000000E-03 0.  1.
    9900012    2    1    2    0    0 -0.20253585227E+02  0.23398419550E+02  0.26371799069E+02  0.50528861567E+02  0.30000005218E+02 0.  0.
        -12    1    1    2    0    0  0.20253585227E+02 -0.23398419550E+02 -0.26371799069E+02  0.40659138433E+02  0.00000000000E+00 0.  1.
         11    1    3    3    0    0 -0.93685463663E+01  0.26083152144E+01  0.10365926877E+01  0.97799536776E+01  0.51100000000E-03 0. -1.
        -11    1    3    3    0    0 -0.69969137660E+01 -0.10148062434E+01  0.14412430266E+02  0.16053185989E+02  0.51100000000E-03 0.  1.
        -12    1    3    3    0    0 -0.38881250952E+01  0.21804910579E+02  0.10922776115E+02  0.24695721901E+02  0.00000000000E+00 0.  1.
</event>
<event>
 7    1  0.5005325E-012  0.5052886E+02  0.7816164E-02  0.1300439E+00
        -11   -1    0    0    0    0  0.00000000000E+00  0.00000000000E+00  0.45593999997E+02  0.45594000000E+02  0.51100000000E-03 0. -1.
         11   -1    0    0    0    0 -0.00000000000E+00 -0.00000000000E+00 -0.45593999997E+02  0.45594000000E+02  0.51100000000E-03 0.  1.
    9900012    2    1    2    0    0  0.30100243002E+02 -0.15115954809E+02 -0.22773870744E+02  0.50528857028E+02  0.29999991422E+02 0.  0.
         12    1    1    2    0    0 -0.30100243002E+02  0.15115954809E+02  0.22773870744E+02  0.40659142972E+02  0.00000000000E+00 0. -1.
         11    1    3    3    0    0  0.12547167171E+02 -0.22039665580E+01 -0.50670588353E+01  0.13709994825E+02  0.51100000000E-03 0. -1.
        -11    1    3    3    0    0  0.21892272119E+02 -0.14295884950E+02 -0.18714793911E+02  0.32154119743E+02  0.51100000000E-03 0.  1.
         12    1    3    3    0    0 -0.43391962879E+01  0.13838966993E+01  0.10079820025E+01  0.46647424598E+01  0.00000000000E+00 0. -1.
</event>
<event>
 7    1  0.5005325E-012  0.5052886E+02  0.7816164E-02  0.1300439E+00
        -11   -1    0    0    0    0  0.00000000000E+00  0.00000000000E+00  0.45593999997E+02  0.45594000000E+02  0.51100000000E-03 0.  1.
         11   -1    0    0    0    0 -0.00000000000E+00 -0.00000000000E+00 -0.45593999997E+02  0.45594000000E+02  0.51100000000E-03 0. -1.
    9900012    2    1    2    0    0 -0.17891422373E+02  0.29583843626E+02 -0.21397635371E+02  0.50528860835E+02  0.30000002994E+02 0.  0.
         12    1    1    2    0    0  0.17891422373E+02 -0.29583843626E+02  0.21397635371E+02  0.40659139165E+02  0.00000000000E+00 0. -1.
         11    1    3    3    0    0 -0.11404750586E+02  0.74618405747E+01 -0.10793090620E+02  0.17384999456E+02  0.51100000000E-03 0. -1.
        -11    1    3    3    0    0 -0.46614374845E+01  0.23655223774E+02 -0.14820271419E+02  0.28300866708E+02  0.51100000000E-03 0.  1.
         12    1    3    3    0    0 -0.18252343029E+01 -0.15332207233E+01  0.42157266682E+01  0.48429946714E+01  0.00000000000E+00 0. -1.
</event>
<event>
 7    1  0.5005325E-012  0.5052887E+02  0.7816164E-02  0.1300439E+00
        -11   -1    0    0    0    0  0.00000000000E+00  0.00000000000E+00  0.45593999997E+02  0.45594000000E+02  0.51100000000E-03 0. -1.
         11   -1    0    0    0    0 -0.00000000000E+00 -0.00000000000E+00 -0.45593999997E+02  0.45594000000E+02  0.51100000000E-03 0.  1.
    9900012    2    1    2    0    0  0.16184572340E+02  0.21625483489E+02 -0.30390172957E+02  0.50528873960E+02  0.30000042890E+02 0.  0.
         12    1    1    2    0    0 -0.16184572340E+02 -0.21625483489E+02  0.30390172957E+02  0.40659126040E+02  0.00000000000E+00 0. -1.
         11    1    3    3    0    0  0.14210741325E+00  0.93152273736E+01 -0.12953026992E+02  0.15955392946E+02  0.51100000000E-03 0. -1.
        -11    1    3    3    0    0 -0.35500193542E+01 -0.22847391421E+01  0.51900895605E+00  0.42534739826E+01  0.51100000000E-03 0.  1.
        -12    1    3    3    0    0  0.19592484281E+02  0.14594995258E+02 -0.17956154920E+02  0.30320007032E+02  0.00000000000E+00 0.  1.
</event>
<event>
 7    1  0.5005325E-012  0.5052886E+02  0.7816164E-02  0.1300439E+00
        -11   -1    0    0    0    0  0.00000000000E+00  0.00000000000E+00  0.45593999997E+02  0.45594000000E+02  0.51100000000E-03 0. -1.
         11   -1    0    0    0    0 -0.00000000000E+00 -0.00000000000E+00 -0.45593999997E+02  0.45594000000E+02  0.51100000000E-03 0.  1.
    9900012    2    1    2    0    0  0.11034443798E+02  0.13271518765E+02  0.36814039645E+02  0.50528859881E+02  0.30000000094E+02 0.  0.
        -12    1    1    2    0    0 -0.11034443798E+02 -0.13271518765E+02 -0.36814039645E+02  0.40659140119E+02  0.00000000000E+00 0.  1.
         11    1    3    3    0    0  0.80060435004E+00 -0.16786183994E+01 -0.13965996534E-01  0.18598178315E+01  0.51100000000E-03 0. -1.
        -11    1    3    3    0    0  0.16450667817E+02  0.13137207598E+02  0.36559420957E+02  0.42187699109E+02  0.51100000000E-03 0.  1.
        -12    1    3    3    0    0 -0.62168283689E+01  0.18129295661E+01  0.26858468401E+00  0.64813429405E+01  0.00000000000E+00 0.  1.
</event>
<event>
 7    1  0.5005325E-012  0.5052887E+02  0.7816164E-02  0.1300439E+00
        -11   -1    0    0    0    0  0.00000000000E+00  0.00000000000E+00  0.45593999997E+02  0.45594000000E+02  0.51100000000E-03 0. -1.
         11   -1    0    0    0    0 -0.00000000000E+00 -0.00000000000E+00 -0.45593999997E+02  0.45594000000E+02  0.51100000000E-03 0.  1.
    9900012    2    1    2    0    0  0.35117637917E+02  0.20191144722E+02  0.34977200928E+01  0.50528869858E+02  0.30000030421E+02 0.  0.
         12    1    1    2    0    0 -0.35117637917E+02 -0.20191144722E+02 -0.34977200928E+01  0.40659130142E+02  0.00000000000E+00 0. -1.
         11    1    3    3    0    0  0.13864920571E+02  0.64029549668E+01  0.77513122553E+01  0.17126491079E+02  0.51100000000E-03 0. -1.
        -11    1    3    3    0    0  0.15206812716E+02 -0.27463840595E+01 -0.30897729022E+01  0.15758695226E+02  0.51100000000E-03 0.  1.
         12    1    3    3    0    0  0.60459046297E+01  0.16534573815E+02 -0.11638192602E+01  0.17643683553E+02  0.00000000000E+00 0. -1.
</event>
<event>
 7    1  0.5005325E-012  0.5052886E+02  0.7816164E-02  0.1300439E+00
        -11   -1    0    0    0    0  0.00000000000E+00  0.00000000000E+00  0.45593999997E+02  0.45594000000E+02  0.51100000000E-03 0. -1.
         11   -1    0    0    0    0 -0.00000000000E+00 -0.00000000000E+00 -0.45593999997E+02  0.45594000000E+02  0.51100000000E-03 0.  1.
    9900012    2    1    2    0    0  0.29199600824E+02 -0.26076313115E+02  0.10980663594E+02  0.50528858754E+02  0.29999996667E+02 0.  0.
        -12    1    1    2    0    0 -0.29199600824E+02  0.26076313115E+02 -0.10980663594E+02  0.40659141246E+02  0.00000000000E+00 0.  1.
         11    1    3    3    0    0  0.33438750982E+02 -0.19286453640E+02  0.10341960730E+02  0.39963402173E+02  0.51100000000E-03 0. -1.
        -11    1    3    3    0    0 -0.23387263677E+01 -0.13643848012E+01  0.32680670648E+01  0.42439898103E+01  0.51100000000E-03 0.  1.
        -12    1    3    3    0    0 -0.19004237911E+01 -0.54254746739E+01 -0.26293642006E+01  0.63214667699E+01  0.00000000000E+00 0.  1.
</event>
<event>
 7    1  0.5005325E-012  0.5052890E+02  0.7816164E-02  0.1300439E+00
        -11   -1    0    0    0    0  0.00000000000E+00  0.00000000000E+00  0.45593999997E+02  0.45594000000E+02  0.51100000000E-03 0.  1.
         11   -1    0    0    0    0 -0.00000000000E+00 -0.00000000000E+00 -0.45593999997E+02  0.45594000000E+02  0.51100000000E-03 0. -1.
    9900012    2    1    2    0    0 -0.14740642761E+02  0.36340079811E+02  0.10736578069E+02  0.50528904359E+02  0.30000135290E+02 0.  0.
        -12    1    1    2    0    0  0.14740642761E+02 -0.36340079811E+02 -0.10736578069E+02  0.40659095641E+02  0.00000000000E+00 0.  1.
         11    1    3    3    0    0 -0.62381592252E+01  0.26825682979E+02 -0.23572241385E+01  0.27642149043E+02  0.51100000000E-03 0. -1.
        -11    1    3    3    0    0 -0.30253294731E+01  0.12266234143E+02  0.85060209126E+01  0.15230413996E+02  0.51100000000E-03 0.  1.
         12    1    3    3    0    0 -0.54771540625E+01 -0.27518373103E+01  0.45877812950E+01  0.76563413206E+01  0.00000000000E+00 0. -1.
</event>
<event>
 7    1  0.5005325E-012  0.5052886E+02  0.7816164E-02  0.1300439E+00
        -11   -1    0    0    0    0  0.00000000000E+00  0.00000000000E+00  0.45593999997E+02  0.45594000000E+02  0.51100000000E-03 0. -1.
         11   -1    0    0    0    0 -0.00000000000E+00 -0.00000000000E+00 -0.45593999997E+02  0.45594000000E+02  0.51100000000E-03 0.  1.
    9900012    2    1    2    0    0 -0.28818442831E+02 -0.10274223129E+02  0.26778789025E+02  0.50528857735E+02  0.29999993572E+02 0.  0.
        -12    1    1    2    0    0  0.28818442831E+02  0.10274223129E+02 -0.26778789025E+02  0.40659142265E+02  0.00000000000E+00 0.  1.
         11    1    3    3    0    0 -0.53517545156E+01 -0.27485906059E+01  0.17327232236E+01  0.62608591059E+01  0.51100000000E-03 0. -1.
        -11    1    3    3    0    0  0.15839983249E+01  0.72169426919E+01  0.59869333748E+01  0.95098203983E+01  0.51100000000E-03 0.  1.
         12    1    3    3    0    0 -0.25050686640E+02 -0.14742575215E+02  0.19059132426E+02  0.34758178231E+02  0.00000000000E+00 0. -1.
</event>
<event>
 7    1  0.5005325E-012  0.5052886E+02  0.7816164E-02  0.1300439E+00
        -11   -1    0    0    0    0  0.00000000000E+00  0.00000000000E+00  0.45593999997E+02  0.45594000000E+02  0.51100000000E-03 0. -1.
         11   -1    0    0    0    0 -0.00000000000E+00 -0.00000000000E+00 -0.45593999997E+02  0.45594000000E+02  0.51100000000E-03 0.  1.
    9900012    2    1    2    0    0  0.11944136227E+02 -0.26714946644E+01  0.38773266590E+02  0.50528862330E+02  0.30000007539E+02 0.  0.
        -12    1    1    2    0    0 -0.11944136227E+02  0.26714946644E+01 -0.38773266590E+02  0.40659137670E+02  0.00000000000E+00 0.  1.
         11    1    3    3    0    0  0.90044074581E+00 -0.99304280858E+01  0.10199183881E+02  0.14263504044E+02  0.51100000000E-03 0. -1.
        -11    1    3    3    0    0  0.58015830505E+01 -0.12164370681E+01 -0.79489191792E-01  0.59282715715E+01  0.51100000000E-03 0.  1.
         12    1    3    3    0    0  0.52421124303E+01  0.84753704895E+01  0.28653571901E+02  0.30337086715E+02  0.00000000000E+00 0. -1.
</event>
<event>
 7    1  0.5005325E-012  0.5052886E+02  0.7816164E-02  0.1300439E+00
        -11   -1    0    0    0    0  0.00000000000E+00  0.00000000000E+00  0.45593999997E+02  0.45594000000E+02  0.51100000000E-03 0. -1.
         11   -1    0    0    0    0 -0.00000000000E+00 -0.00000000000E+00 -0.45593999997E+02  0.45594000000E+02  0.51100000000E-03 0.  1.
    9900012    2    1    2    0    0  0.24167721130E+01  0.15949836397E+02 -0.37321948361E+02  0.50528857141E+02  0.29999991766E+02 0.  0.
         12    1    1    2    0    0 -0.24167721130E+01 -0.15949836397E+02  0.37321948361E+02  0.40659142859E+02  0.00000000000E+00 0. -1.
         11    1    3    3    0    0  0.13692296162E+01  0.11167532485E+01 -0.14077565955E+02  0.14188015754E+02  0.51100000000E-03 0. -1.
        -11    1    3    3    0    0 -0.44287331977E+01  0.15649511505E+02 -0.25595334382E+02  0.30325600250E+02  0.51100000000E-03 0.  1.
         12    1    3    3    0    0  0.54762756944E+01 -0.81642835637E+00  0.23509519764E+01  0.60152411371E+01  0.00000000000E+00 0. -1.
</event>
<event>
 7    1  0.5005325E-012  0.5052886E+02  0.7816164E-02  0.1300439E+00
        -11   -1    0    0    0    0  0.00000000000E+00  0.00000000000E+00  0.45593999997E+02  0.45594000000E+02  0.51100000000E-03 0.  1.
         11   -1    0    0    0    0 -0.00000000000E+00 -0.00000000000E+00 -0.45593999997E+02  0.45594000000E+02  0.51100000000E-03 0. -1.
    9900012    2    1    2    0    0  0.98978245214E+01  0.37758253232E+02 -0.11380364411E+02  0.50528864354E+02  0.30000013689E+02 0.  0.
        -12    1    1    2    0    0 -0.98978245214E+01 -0.37758253232E+02  0.11380364411E+02  0.40659135646E+02  0.00000000000E+00 0.  1.
         11    1    3    3    0    0  0.44481868639E+01  0.19765484783E+02 -0.59896049416E+01  0.21126668519E+02  0.51100000000E-03 0. -1.
        -11    1    3    3    0    0  0.74052218503E+01  0.16978626781E+02  0.46701692341E+01  0.19102920169E+02  0.51100000000E-03 0.  1.
        -12    1    3    3    0    0 -0.19555841928E+01  0.10141416672E+01 -0.10060928704E+02  0.10299275666E+02  0.00000000000E+00 0.  1.
</event>
<event>
 7    1  0.5005325E-012  0.5052887E+02  0.7816164E-02  0.1300439E+00
        -11   -1    0    0    0    0  0.00000000000E+00  0.00000000000E+00  0.45593999997E+02  0.45594000000E+02  0.51100000000E-03 0. -1.
         11   -1    0    0    0    0 -0.00000000000E+00 -0.00000000000E+00 -0.45593999997E+02  0.45594000000E+02  0.51100000000E-03 0.  1.
    9900012    2    1    2    0    0  0.69517922024E+01  0.14736773378E+02 -0.37251377732E+02  0.50528867602E+02  0.30000023562E+02 0.  0.
         12    1    1    2    0    0 -0.69517922024E+01 -0.14736773378E+02  0.37251377732E+02  0.40659132398E+02  0.00000000000E+00 0. -1.
         11    1    3    3    0    0 -0.81167707617E+01  0.39735604146E+01 -0.11539467972E+02  0.14657096278E+02  0.51100000000E-03 0. -1.
        -11    1    3    3    0    0  0.11720939843E+00  0.34354363709E+00  0.23684597629E+01  0.23961139754E+01  0.51100000000E-03 0.  1.
        -12    1    3    3    0    0  0.14951353566E+02  0.10419669326E+02 -0.28080369523E+02  0.33475657348E+02  0.00000000000E+00 0.  1.
</event>
<event>
 7    1  0.5005325E-012  0.5052886E+02  0.7816164E-02  0.1300439E+00
        -11   -1    0    0    0    0  0.00000000000E+00  0.00000000000E+00  0.45593999997E+02  0.45594000000E+02  0.51100000000E-03 0. -1.
         11   -1    0    0    0    0 -0.00000000000E+00 -0.00000000000E+00 -0.45593999997E+02  0.45594000000E+02  0.51100000000E-03 0.  1.
    9900012    2    1    2    0    0 -0.55340011183E+00 -0.20012811036E+02  0.35388512430E+02  0.50528859954E+02  0.30000000317E+02 0.  0.
        -12    1    1    2    0    0  0.55340011183E+00  0.20012811036E+02 -0.35388512430E+02  0.40659140046E+02  0.00000000000E+00 0.  1.
         11    1    3    3    0    0  0.36377965865E+01 -0.32173856799E+01  0.45344521781E+01  0.66442750872E+01  0.51100000000E-03 0.  1.
        -11    1    3    3    0    0 -0.74439015695E+01  0.50406717857E+01  0.71012979556E+01  0.11456372704E+02  0.51100000000E-03 0. -1.
         12    1    3    3    0    0  0.32527048712E+01 -0.21836097142E+02  0.23752762296E+02  0.32428212163E+02  0.00000000000E+00 0. -1.
</event>
<event>
 7    1  0.5005325E-012  0.5052883E+02  0.7816164E-02  0.1300439E+00
        -11   -1    0    0    0    0  0.00000000000E+00  0.00000000000E+00  0.45593999997E+02  0.45594000000E+02  0.51100000000E-03 0. -1.
         11   -1    0    0    0    0 -0.00000000000E+00 -0.00000000000E+00 -0.45593999997E+02  0.45594000000E+02  0.51100000000E-03 0.  1.
    9900012    2    1    2    0    0 -0.10402807811E+01 -0.30531836646E+02 -0.26830826506E+02  0.50528825339E+02  0.29999895101E+02 0.  0.
         12    1    1    2    0    0  0.10402807811E+01  0.30531836646E+02  0.26830826506E+02  0.40659174661E+02  0.00000000000E+00 0. -1.
         11    1    3    3    0    0 -0.38770439956E+00 -0.22244761811E+01  0.35693150325E+01  0.42235789378E+01  0.51100000000E-03 0. -1.
        -11    1    3    3    0    0 -0.32670958677E+00  0.20379130238E+00 -0.12782894863E+02  0.12788693107E+02  0.51100000000E-03 0.  1.
        -12    1    3    3    0    0 -0.32586679476E+00 -0.28511151768E+02 -0.17617246675E+02  0.33516553294E+02  0.00000000000E+00 0.  1.
</event>
<event>
 7    1  0.5005325E-012  0.5052887E+02  0.7816164E-02  0.1300439E+00
        -11   -1    0    0    0    0  0.00000000000E+00  0.00000000000E+00  0.45593999997E+02  0.45594000000E+02  0.51100000000E-03 0. -1.
         11   -1    0    0    0    0 -0.00000000000E+00 -0.00000000000E+00 -0.45593999997E+02  0.45594000000E+02  0.51100000000E-03 0.  1.
    9900012    2    1    2    0    0 -0.89437925792E+01 -0.51811842975E+01  0.39323385647E+02  0.50528871195E+02  0.30000034485E+02 0.  0.
        -12    1    1    2    0    0  0.89437925792E+01  0.51811842975E+01 -0.39323385647E+02  0.40659128805E+02  0.00000000000E+00 0.  1.
         11    1    3    3    0    0 -0.30562186897E+01 -0.24367697010E+01 -0.55213710669E+00  0.39475530270E+01  0.51100000000E-03 0. -1.
        -11    1    3    3    0    0 -0.75411020553E+01  0.82432094121E+01  0.11161181872E+02  0.15792108873E+02  0.51100000000E-03 0.  1.
        -12    1    3    3    0    0  0.16535281659E+01 -0.10987624009E+02  0.28714340882E+02  0.30789209295E+02  0.00000000000E+00 0.  1.
</event>
<event>
 7    1  0.5005325E-012  0.5052887E+02  0.7816164E-02  0.1300439E+00
        -11   -1    0    0    0    0  0.00000000000E+00  0.00000000000E+00  0.45593999997E+02  0.45594000000E+02  0.51100000000E-03 0. -1.
         11   -1    0    0    0    0 -0.00000000000E+00 -0.00000000000E+00 -0.45593999997E+02  0.45594000000E+02  0.51100000000E-03 0.  1.
    9900012    2    1    2    0    0  0.20735063454E+02 -0.32709741520E+02  0.12381224398E+02  0.50528871082E+02  0.30000034142E+02 0.  0.
        -12    1    1    2    0    0 -0.20735063454E+02  0.32709741520E+02 -0.12381224398E+02  0.40659128918E+02  0.00000000000E+00 0.  1.
         11    1    3    3    0    0  0.93399210525E+01 -0.21714404380E+02  0.17231061097E+02  0.29251648665E+02  0.51100000000E-03 0. -1.
        -11    1    3    3    0    0  0.53771171926E+01 -0.12786179638E+02 -0.98831805058E+00  0.13905989783E+02  0.51100000000E-03 0.  1.
        -12    1    3    3    0    0  0.60180252085E+01  0.17908424970E+01 -0.38615186493E+01  0.73712326335E+01  0.00000000000E+00 0.  1.
</event>
<event>
 7    1  0.5005325E-012  0.5052886E+02  0.7816164E-02  0.1300439E+00
        -11   -1    0    0    0    0  0.00000000000E+00  0.00000000000E+00  0.45593999997E+02  0.45594000000E+02  0.51100000000E-03 0. -1.
         11   -1    0    0    0    0 -0.00000000000E+00 -0.00000000000E+00 -0.45593999997E+02  0.45594000000E+02  0.51100000000E-03 0.  1.
    9900012    2    1    2    0    0  0.73494592278E+01  0.94958053072E+01 -0.38845602087E+02  0.50528859935E+02  0.30000000257E+02 0.  0.
         12    1    1    2    0    0 -0.73494592278E+01 -0.94958053072E+01  0.38845602087E+02  0.40659140065E+02  0.00000000000E+00 0. -1.
         11    1    3    3    0    0 -0.69519405605E+01  0.63590323858E+01 -0.15014980004E+02  0.17726150039E+02  0.51100000000E-03 0. -1.
        -11    1    3    3    0    0  0.32329118159E+01  0.66426625809E+01 -0.18705294464E+02  0.20111308416E+02  0.51100000000E-03 0.  1.
        -12    1    3    3    0    0  0.11068487972E+02 -0.35058896595E+01 -0.51253276194E+01  0.12691401479E+02  0.00000000000E+00 0.  1.
</event>
<event>
 7    1  0.5005325E-012  0.5052886E+02  0.7816164E-02  0.1300439E+00
        -11   -1    0    0    0    0  0.00000000000E+00  0.00000000000E+00  0.45593999997E+02  0.45594000000E+02  0.51100000000E-03 0. -1.
         11   -1    0    0    0    0 -0.00000000000E+00 -0.00000000000E+00 -0.45593999997E+02  0.45594000000E+02  0.51100000000E-03 0.  1.
    9900012    2    1    2    0    0  0.17022045233E+01  0.20793027774E+02 -0.34898687199E+02  0.50528857455E+02  0.29999992720E+02 0.  0.
         12    1    1    2    0    0 -0.17022045233E+01 -0.20793027774E+02  0.34898687199E+02  0.40659142545E+02  0.00000000000E+00 0. -1.
         11    1    3    3    0    0 -0.73851061261E+01  0.67446524445E+01 -0.11717021445E+01  0.10069906418E+02  0.51100000000E-03 0. -1.
        -11    1    3    3    0    0 -0.36669214301E+01  0.48576698231E+01 -0.13760029098E+02  0.15045985176E+02  0.51100000000E-03 0.  1.
         12    1    3    3    0    0  0.12754232079E+02  0.91907055068E+01 -0.19966955957E+02  0.25412965861E+02  0.00000000000E+00 0. -1.
</event>
<event>
 7    1  0.5005325E-012  0.5052886E+02  0.7816164E-02  0.1300439E+00
        -11   -1    0    0    0    0  0.00000000000E+00  0.00000000000E+00  0.45593999997E+02  0.45594000000E+02  0.51100000000E-03 0. -1.
         11   -1    0    0    0    0 -0.00000000000E+00 -0.00000000000E+00 -0.45593999997E+02  0.45594000000E+02  0.51100000000E-03 0.  1.
    9900012    2    1    2    0    0 -0.94936110417E+01  0.13599439075E+02 -0.37122663880E+02  0.50528861208E+02  0.30000004129E+02 0.  0.
         12    1    1    2    0    0  0.94936110417E+01 -0.13599439075E+02  0.37122663880E+02  0.40659138792E+02  0.00000000000E+00 0. -1.
         11    1    3    3    0    0 -0.45174467823E+01  0.27226337462E+00 -0.81047310667E+01  0.92826784228E+01  0.51100000000E-03 0.  1.
        -11    1    3    3    0    0  0.52849768278E+01  0.49268203182E+01  0.20129862041E+01  0.75004434694E+01  0.51100000000E-03 0. -1.
         12    1    3    3    0    0 -0.10261141087E+02  0.84003553822E+01 -0.31030919017E+02  0.33745739316E+02  0.00000000000E+00 0. -1.
</event>
<event>
 7    1  0.5005325E-012  0.5052886E+02  0.7816164E-02  0.1300439E+00
        -11   -1    0    0    0    0  0.00000000000E+00  0.00000000000E+00  0.45593999997E+02  0.45594000000E+02  0.51100000000E-03 0. -1.
         11   -1    0    0    0    0 -0.00000000000E+00 -0.00000000000E+00 -0.45593999997E+02  0.45594000000E+02  0.51100000000E-03 0.  1.
    9900012    2    1    2    0    0 -0.91863877212E+01 -0.38984572075E+01  0.39415452959E+02  0.50528860561E+02  0.30000002162E+02 0.  0.
        -12    1    1    2    0    0  0.91863877212E+01  0.38984572075E+01 -0.39415452959E+02  0.40659139439E+02  0.00000000000E+00 0.  1.
         11    1    3    3    0    0 -0.93192150958E+01 -0.66485660656E+01  0.49615482822E+01  0.12476704787E+02  0.51100000000E-03 0. -1.
        -11    1    3    3    0    0  0.37196610844E+01 -0.27115730518E+01  0.21256979802E+01  0.50702168752E+01  0.51100000000E-03 0.  1.
         12    1    3    3    0    0 -0.35868337098E+01  0.54616819099E+01  0.32328206696E+02  0.32981938899E+02  0.00000000000E+00 0. -1.
</event>
<event>
 7    1  0.6004349E-012  0.5052885E+02  0.7816164E-02  0.1300439E+00
        -11   -1    0    0    0    0  0.00000000000E+00  0.00000000000E+00  0.45593999997E+02  0.45594000000E+02  0.51100000000E-03 0. -1.
         11   -1    0    0    0    0 -0.00000000000E+00 -0.00000000000E+00 -0.45593999997E+02  0.45594000000E+02  0.51100000000E-03 0.  1.
    9900012    2    1    2    0    0 -0.11525856267E+02  0.68677139712E+01  0.38381709049E+02  0.50528850385E+02  0.29999971230E+02 0.  0.
        -12    1    1    2    0    0  0.11525856267E+02 -0.68677139712E+01 -0.38381709049E+02  0.40659149615E+02  0.00000000000E+00 0.  1.
         11    1    3    3    0    0 -0.92099620859E+01  0.11158873884E+02  0.12893546641E+02  0.19380077741E+02  0.51100000000E-03 0. -1.
        -11    1    3    3    0    0 -0.79853711370E+01 -0.11669851662E+01  0.46186737974E+01  0.92983952637E+01  0.51100000000E-03 0.  1.
        -12    1    3    3    0    0  0.56694769554E+01 -0.31241747466E+01  0.20869488611E+02  0.21850377381E+02  0.00000000000E+00 0.  1.
</event>
<event>
 7    1  0.5005325E-012  0.5052889E+02  0.7816164E-02  0.1300439E+00
        -11   -1    0    0    0    0  0.00000000000E+00  0.00000000000E+00  0.45593999997E+02  0.45594000000E+02  0.51100000000E-03 0. -1.
         11   -1    0    0    0    0 -0.00000000000E+00 -0.00000000000E+00 -0.45593999997E+02  0.45594000000E+02  0.51100000000E-03 0.  1.
    9900012    2    1    2    0    0 -0.33578594651E+02 -0.84725045340E+01 -0.21303935291E+02  0.50528892647E+02  0.30000099690E+02 0.  0.
         12    1    1    2    0    0  0.33578594651E+02  0.84725045340E+01  0.21303935291E+02  0.40659107353E+02  0.00000000000E+00 0. -1.
         11    1    3    3    0    0  0.23241399057E+01  0.33344650573E+00  0.77375382924E+00  0.24721464606E+01  0.51100000000E-03 0. -1.
        -11    1    3    3    0    0 -0.29423015067E+02 -0.26761819440E+01 -0.24966661436E+02  0.38680873167E+02  0.51100000000E-03 0.  1.
         12    1    3    3    0    0 -0.64797194903E+01 -0.61297690957E+01  0.28889723157E+01  0.93758730196E+01  0.00000000000E+00 0. -1.
</event>
<event>
 7    1  0.5005325E-012  0.5052886E+02  0.7816164E-02  0.1300439E+00
        -11   -1    0    0    0    0  0.00000000000E+00  0.00000000000E+00  0.45593999997E+02  0.45594000000E+02  0.51100000000E-03 0.  1.
         11   -1    0    0    0    0 -0.00000000000E+00 -0.00000000000E+00 -0.45593999997E+02  0.45594000000E+02  0.51100000000E-03 0. -1.
    9900012    2    1    2    0    0 -0.21690102572E+02  0.34164531207E+02 -0.39356814844E+01  0.50528864115E+02  0.30000012963E+02 0.  0.
         12    1    1    2    0    0  0.21690102572E+02 -0.34164531207E+02  0.39356814844E+01  0.40659135885E+02  0.00000000000E+00 0. -1.
         11    1    3    3    0    0 -0.21009501763E+01 -0.76259158639E+00  0.19187298836E+01  0.29456853529E+01  0.51100000000E-03 0. -1.
        -11    1    3    3    0    0 -0.19531481909E+02  0.32119419182E+02  0.35589984447E+01  0.37759797992E+02  0.51100000000E-03 0.  1.
         12    1    3    3    0    0 -0.57670486895E-01  0.28077036111E+01 -0.94134098126E+01  0.98233807700E+01  0.00000000000E+00 0. -1.
</event>
<event>
 7    1  0.5005325E-012  0.5052886E+02  0.7816164E-02  0.1300439E+00
        -11   -1    0    0    0    0  0.00000000000E+00  0.00000000000E+00  0.45593999997E+02  0.45594000000E+02  0.51100000000E-03 0. -1.
         11   -1    0    0    0    0 -0.00000000000E+00 -0.00000000000E+00 -0.45593999997E+02  0.45594000000E+02  0.51100000000E-03 0.  1.
    9900012    2    1    2    0    0 -0.54936683700E+01 -0.22127409202E+02  0.33665453133E+02  0.50528863698E+02  0.30000011697E+02 0.  0.
        -12    1    1    2    0    0  0.54936683700E+01  0.22127409202E+02 -0.33665453133E+02  0.40659136302E+02  0.00000000000E+00 0.  1.
         11    1    3    3    0    0  0.66098828570E+01  0.12226735737E+01  0.14069942045E+02  0.15593227744E+02  0.51100000000E-03 0. -1.
        -11    1    3    3    0    0 -0.70897375390E+01 -0.31243118748E+01  0.77857897395E+01  0.10983816513E+02  0.51100000000E-03 0.  1.
        -12    1    3    3    0    0 -0.50138136880E+01 -0.20225770901E+02  0.11809721348E+02  0.23951819441E+02  0.00000000000E+00 0.  1.
</event>
<event>
 7    1  0.5005325E-012  0.5052886E+02  0.7816164E-02  0.1300439E+00
        -11   -1    0    0    0    0  0.00000000000E+00  0.00000000000E+00  0.45593999997E+02  0.45594000000E+02  0.51100000000E-03 0. -1.
         11   -1    0    0    0    0 -0.00000000000E+00 -0.00000000000E+00 -0.45593999997E+02  0.45594000000E+02  0.51100000000E-03 0.  1.
    9900012    2    1    2    0    0 -0.27320163826E+02  0.15071862694E+02 -0.26069398762E+02  0.50528856522E+02  0.29999989884E+02 0.  0.
         12    1    1    2    0    0  0.27320163826E+02 -0.15071862694E+02  0.26069398762E+02  0.40659143478E+02  0.00000000000E+00 0. -1.
         11    1    3    3    0    0  0.45930714295E+01  0.66010954442E+01 -0.25934177542E+01  0.84496498228E+01  0.51100000000E-03 0. -1.
        -11    1    3    3    0    0 -0.80285155293E+01  0.75393206562E+01 -0.77518226014E+01  0.13468079725E+02  0.51100000000E-03 0.  1.
         12    1    3    3    0    0 -0.23884719726E+02  0.93144659356E+00 -0.15724158407E+02  0.28611126975E+02  0.00000000000E+00 0. -1.
</event>
<event>
 7    1  0.5005325E-012  0.5052887E+02  0.7816164E-02  0.1300439E+00
        -11   -1    0    0    0    0  0.00000000000E+00  0.00000000000E+00  0.45593999997E+02  0.45594000000E+02  0.51100000000E-03 0. -1.
         11   -1    0    0    0    0 -0.00000000000E+00 -0.00000000000E+00 -0.45593999997E+02  0.45594000000E+02  0.51100000000E-03 0.  1.
    9900012    2    1    2    0    0 -0.29143398231E+02  0.91178832580E+00  0.28337187937E+02  0.50528865251E+02  0.30000016416E+02 0.  0.
        -12    1    1    2    0    0  0.29143398231E+02 -0.91178832580E+00 -0.28337187937E+02  0.40659134749E+02  0.00000000000E+00 0.  1.
         11    1    3    3    0    0 -0.16846341255E+02  0.42577887571E+01  0.21507972148E+01  0.17508680924E+02  0.51100000000E-03 0. -1.
        -11    1    3    3    0    0 -0.26503509945E+01  0.57432479634E+01  0.51509615584E+01  0.81573073254E+01  0.51100000000E-03 0.  1.
         12    1    3    3    0    0 -0.96467059810E+01 -0.90892483946E+01  0.21035429164E+02  0.24862877001E+02  0.00000000000E+00 0. -1.
</event>
<event>
 7    1  0.5005325E-012  0.5052886E+02  0.7816164E-02  0.1300439E+00
        -11   -1    0    0    0    0  0.00000000000E+00  0.00000000000E+00  0.45593999997E+02  0.45594000000E+02  0.51100000000E-03 0. -1.
         11   -1    0    0    0    0 -0.00000000000E+00 -0.00000000000E+00 -0.45593999997E+02  0.45594000000E+02  0.51100000000E-03 0.  1.
    9900012    2    1    2    0    0 -0.24708919656E+02  0.20063416031E+02  0.25300089987E+02  0.50528856788E+02  0.29999990692E+02 0.  0.
        -12    1    1    2    0    0  0.24708919656E+02 -0.20063416031E+02 -0.25300089987E+02  0.40659143212E+02  0.00000000000E+00 0.  1.
         11    1    3    3    0    0 -0.81756461947E+01 -0.53306669369E+01  0.28343865389E+01  0.10163215436E+02  0.51100000000E-03 0. -1.
        -11    1    3    3    0    0 -0.87763738620E+01  0.13136149111E+02  0.29857202487E+01  0.16077862958E+02  0.51100000000E-03 0.  1.
         12    1    3    3    0    0 -0.77568995996E+01  0.12257933857E+02  0.19479983200E+02  0.24287778394E+02  0.00000000000E+00 0. -1.
</event>
<event>
 7    1  0.5005325E-012  0.5052887E+02  0.7816164E-02  0.1300439E+00
        -11   -1    0    0    0    0  0.00000000000E+00  0.00000000000E+00  0.45593999997E+02  0.45594000000E+02  0.51100000000E-03 0. -1.
         11   -1    0    0    0    0 -0.00000000000E+00 -0.00000000000E+00 -0.45593999997E+02  0.45594000000E+02  0.51100000000E-03 0.  1.
    9900012    2    1    2    0    0  0.25445091397E+02 -0.19870573372E+02 -0.24715839407E+02  0.50528867202E+02  0.30000022347E+02 0.  0.
         12    1    1    2    0    0 -0.25445091397E+02  0.19870573372E+02  0.24715839407E+02  0.40659132798E+02  0.00000000000E+00 0. -1.
         11    1    3    3    0    0  0.86529945919E+01 -0.10510553403E+02  0.21797394941E+01  0.13787578205E+02  0.51100000000E-03 0. -1.
        -11    1    3    3    0    0  0.63254213301E+01 -0.12356153397E+02 -0.12403460390E+02  0.18615351506E+02  0.51100000000E-03 0.  1.
        -12    1    3    3    0    0  0.10466675475E+02  0.29961334275E+01 -0.14492118510E+02  0.18125937491E+02  0.00000000000E+00 0.  1.
</event>
<event>
 7    1  0.5005325E-012  0.5052886E+02  0.7816164E-02  0.1300439E+00
        -11   -1    0    0    0    0  0.00000000000E+00  0.00000000000E+00  0.45593999997E+02  0.45594000000E+02  0.51100000000E-03 0. -1.
         11   -1    0    0    0    0 -0.00000000000E+00 -0.00000000000E+00 -0.45593999997E+02  0.45594000000E+02  0.51100000000E-03 0.  1.
    9900012    2    1    2    0    0 -0.16555913797E+02 -0.10759453777E+02  0.35542955008E+02  0.50528858618E+02  0.29999996255E+02 0.  0.
        -12    1    1    2    0    0  0.16555913797E+02  0.10759453777E+02 -0.35542955008E+02  0.40659141382E+02  0.00000000000E+00 0.  1.
         11    1    3    3    0    0  0.39047697320E+01 -0.23389977143E+00  0.46767517985E+01  0.60970438254E+01  0.51100000000E-03 0.  1.
        -11    1    3    3    0    0 -0.90083643368E+01 -0.21778842124E+01 -0.12271055603E+01  0.93487751061E+01  0.51100000000E-03 0. -1.
         12    1    3    3    0    0 -0.11452319192E+02 -0.83476697930E+01  0.32093308770E+02  0.35083039686E+02  0.00000000000E+00 0. -1.
</event>
<event>
 7    1  0.5005325E-012  0.5052886E+02  0.7816164E-02  0.1300439E+00
        -11   -1    0    0    0    0  0.00000000000E+00  0.00000000000E+00  0.45593999997E+02  0.45594000000E+02  0.51100000000E-03 0.  1.
         11   -1    0    0    0    0 -0.00000000000E+00 -0.00000000000E+00 -0.45593999997E+02  0.45594000000E+02  0.51100000000E-03 0. -1.
    9900012    2    1    2    0    0 -0.11482944500E+02  0.28190166668E+02 -0.26955928326E+02  0.50528861014E+02  0.30000003537E+02 0.  0.
         12    1    1    2    0    0  0.11482944500E+02 -0.28190166668E+02  0.26955928326E+02  0.40659138986E+02  0.00000000000E+00 0. -1.
         11    1    3    3    0    0  0.13115010056E+01  0.15348271551E+02 -0.77621373020E+01  0.17249355068E+02  0.51100000000E-03 0. -1.
        -11    1    3    3    0    0  0.95669343435E+00  0.76200641114E+01 -0.16671798474E+02  0.18355639570E+02  0.51100000000E-03 0.  1.
        -12    1    3    3    0    0 -0.13751138940E+02  0.52218310056E+01 -0.25219925501E+01  0.14923866376E+02  0.00000000000E+00 0.  1.
</event>
<event>
 7    1  0.5005325E-012  0.5052886E+02  0.7816164E-02  0.1300439E+00
        -11   -1    0    0    0    0  0.00000000000E+00  0.00000000000E+00  0.45593999997E+02  0.45594000000E+02  0.51100000000E-03 0. -1.
         11   -1    0    0    0    0 -0.00000000000E+00 -0.00000000000E+00 -0.45593999997E+02  0.45594000000E+02  0.51100000000E-03 0.  1.
    9900012    2    1    2    0    0  0.26202660470E+02 -0.23651364334E+02 -0.20179175484E+02  0.50528861129E+02  0.30000003887E+02 0.  0.
         12    1    1    2    0    0 -0.26202660470E+02  0.23651364334E+02  0.20179175484E+02  0.40659138871E+02  0.00000000000E+00 0. -1.
         11    1    3    3    0    0 -0.12428725993E+01  0.14204227021E+01 -0.62433647969E+01  0.65224180485E+01  0.51100000000E-03 0.  1.
        -11    1    3    3    0    0  0.26503023767E+02 -0.22470687982E+02 -0.17967015173E+02  0.39117204931E+02  0.51100000000E-03 0. -1.
         12    1    3    3    0    0  0.94250930232E+00 -0.26010990536E+01  0.40312044856E+01  0.48892381488E+01  0.00000000000E+00 0. -1.
</event>
<event>
 7    1  0.5005325E-012  0.5052886E+02  0.7816164E-02  0.1300439E+00
        -11   -1    0    0    0    0  0.00000000000E+00  0.00000000000E+00  0.45593999997E+02  0.45594000000E+02  0.51100000000E-03 0. -1.
         11   -1    0    0    0    0 -0.00000000000E+00 -0.00000000000E+00 -0.45593999997E+02  0.45594000000E+02  0.51100000000E-03 0.  1.
    9900012    2    1    2    0    0  0.19708246133E+02  0.23737992119E+02  0.26481284778E+02  0.50528859834E+02  0.29999999952E+02 0.  0.
        -12    1    1    2    0    0 -0.19708246133E+02 -0.23737992119E+02 -0.26481284778E+02  0.40659140166E+02  0.00000000000E+00 0.  1.
         11    1    3    3    0    0 -0.34972346614E+01  0.23161100766E+01  0.69515979267E+01  0.81190966344E+01  0.51100000000E-03 0. -1.
        -11    1    3    3    0    0 -0.29646558830E+01  0.71358948102E+01  0.27836108287E+01  0.82133226378E+01  0.51100000000E-03 0.  1.
         12    1    3    3    0    0  0.26170136678E+02  0.14285987233E+02  0.16746076023E+02  0.34196440562E+02  0.00000000000E+00 0. -1.
</event>
<event>
 7    1  0.5005325E-012  0.5052885E+02  0.7816164E-02  0.1300439E+00
        -11   -1    0    0    0    0  0.00000000000E+00  0.00000000000E+00  0.45593999997E+02  0.45594000000E+02  0.51100000000E-03 0. -1.
         11   -1    0    0    0    0 -0.00000000000E+00 -0.00000000000E+00 -0.45593999997E+02  0.45594000000E+02  0.51100000000E-03 0.  1.
    9900012    2    1    2    0    0  0.27036218201E+02 -0.14392532989E+02 -0.26740686601E+02  0.50528850718E+02  0.29999972242E+02 0.  0.
         12    1    1    2    0    0 -0.27036218201E+02  0.14392532989E+02  0.26740686601E+02  0.40659149282E+02  0.00000000000E+00 0. -1.
         11    1    3    3    0    0  0.71046699907E+01 -0.51360681213E+01 -0.17953247054E+01  0.89486715485E+01  0.51100000000E-03 0.  1.
        -11    1    3    3    0    0  0.16037702374E+02 -0.17102944519E+02 -0.13130822054E+02  0.26872608670E+02  0.51100000000E-03 0. -1.
         12    1    3    3    0    0  0.38938458363E+01  0.78464796512E+01 -0.11814539842E+02  0.14707570499E+02  0.00000000000E+00 0. -1.
</event>
<event>
 7    1  0.5005325E-012  0.5052887E+02  0.7816164E-02  0.1300439E+00
        -11   -1    0    0    0    0  0.00000000000E+00  0.00000000000E+00  0.45593999997E+02  0.45594000000E+02  0.51100000000E-03 0. -1.
         11   -1    0    0    0    0 -0.00000000000E+00 -0.00000000000E+00 -0.45593999997E+02  0.45594000000E+02  0.51100000000E-03 0.  1.
    9900012    2    1    2    0    0  0.29146626079E+02  0.45742684096E+01  0.27977047380E+02  0.50528869127E+02  0.30000028198E+02 0.  0.
        -12    1    1    2    0    0 -0.29146626079E+02 -0.45742684096E+01 -0.27977047380E+02  0.40659130873E+02  0.00000000000E+00 0.  1.
         11    1    3    3    0    0  0.12247009095E+02  0.37324363685E+01  0.13076255486E+02  0.18300512856E+02  0.51100000000E-03 0. -1.
        -11    1    3    3    0    0  0.71128959527E+01  0.88832221798E+01  0.15865723042E+02  0.19525011985E+02  0.51100000000E-03 0.  1.
         12    1    3    3    0    0  0.97867210313E+01 -0.80413901387E+01 -0.96493114761E+00  0.12703344285E+02  0.00000000000E+00 0. -1.
</event>
<event>
 7    1  0.5005325E-012  0.5052898E+02  0.7816164E-02  0.1300438E+00
        -11   -1    0    0    0    0  0.00000000000E+00  0.00000000000E+00  0.45593999997E+02  0.45594000000E+02  0.51100000000E-03 0.  1.
         11   -1    0    0    0    0 -0.00000000000E+00 -0.00000000000E+00 -0.45593999997E+02  0.45594000000E+02  0.51100000000E-03 0. -1.
    9900012    2    1    2    0    0 -0.23857501829E+02 -0.89861730006E+01  0.31673716150E+02  0.50528978941E+02  0.30000361988E+02 0.  0.
        -12    1    1    2    0    0  0.23857501829E+02  0.89861730006E+01 -0.31673716150E+02  0.40659021059E+02  0.00000000000E+00 0.  1.
         11    1    3    3    0    0 -0.53719549808E+01 -0.97573967751E+01  0.20618980583E+01  0.11327670370E+02  0.51100000000E-03 0. -1.
        -11    1    3    3    0    0 -0.16120685049E+02 -0.50668914952E+01  0.12652680898E+02  0.21110192089E+02  0.51100000000E-03 0.  1.
        -12    1    3    3    0    0 -0.23648617989E+01  0.58381152696E+01  0.16959137194E+02  0.18091116483E+02  0.00000000000E+00 0.  1.
</event>
<event>
 7    1  0.5005325E-012  0.5052887E+02  0.7816164E-02  0.1300439E+00
        -11   -1    0    0    0    0  0.00000000000E+00  0.00000000000E+00  0.45593999997E+02  0.45594000000E+02  0.51100000000E-03 0.  1.
         11   -1    0    0    0    0 -0.00000000000E+00 -0.00000000000E+00 -0.45593999997E+02  0.45594000000E+02  0.51100000000E-03 0. -1.
    9900012    2    1    2    0    0  0.28140552942E+02 -0.28485652199E+02  0.70598583006E+01  0.50528871870E+02  0.30000036535E+02 0.  0.
         12    1    1    2    0    0 -0.28140552942E+02  0.28485652199E+02 -0.70598583006E+01  0.40659128130E+02  0.00000000000E+00 0. -1.
         11    1    3    3    0    0  0.82740095445E+01 -0.19705570750E+00  0.24015537495E+01  0.86177448076E+01  0.51100000000E-03 0. -1.
        -11    1    3    3    0    0  0.23829824414E+02 -0.19474668874E+02 -0.85082172960E+00  0.30787126485E+02  0.51100000000E-03 0.  1.
         12    1    3    3    0    0 -0.39632810159E+01 -0.88139276176E+01  0.55091262806E+01  0.11124000577E+02  0.00000000000E+00 0. -1.
</event>
<event>
 7    1  0.6197089E-012  0.5052886E+02  0.7816164E-02  0.1300439E+00
        -11   -1    0    0    0    0  0.00000000000E+00  0.00000000000E+00  0.45593999997E+02  0.45594000000E+02  0.51100000000E-03 0. -1.
         11   -1    0    0    0    0 -0.00000000000E+00 -0.00000000000E+00 -0.45593999997E+02  0.45594000000E+02  0.51100000000E-03 0.  1.
    9900012    2    1    2    0    0 -0.15738742311E+02 -0.51469184788E+01  0.37134447187E+02  0.50528856536E+02  0.29999989927E+02 0.  0.
        -12    1    1    2    0    0  0.15738742311E+02  0.51469184788E+01 -0.37134447187E+02  0.40659143464E+02  0.00000000000E+00 0.  1.
         11    1    3    3    0    0 -0.14559787771E+02 -0.67138900698E+01  0.15065999726E+02  0.22001092878E+02  0.51100000000E-03 0. -1.
        -11    1    3    3    0    0 -0.58484366585E+01  0.15412878529E+01  0.22986460991E+02  0.23768827669E+02  0.51100000000E-03 0.  1.
        -12    1    3    3    0    0  0.46694821186E+01  0.25683738072E-01 -0.91801353045E+00  0.47589359895E+01  0.00000000000E+00 0.  1.
</event>
<event>
 7    1  0.5005325E-012  0.5052890E+02  0.7816164E-02  0.1300439E+00
        -11   -1    0    0    0    0  0.00000000000E+00  0.00000000000E+00  0.45593999997E+02  0.45594000000E+02  0.51100000000E-03 0. -1.
         11   -1    0    0    0    0 -0.00000000000E+00 -0.00000000000E+00 -0.45593999997E+02  0.45594000000E+02  0.51100000000E-03 0.  1.
    9900012    2    1    2    0    0 -0.19357689948E+02 -0.12624991394E+02 -0.33452231034E+02  0.50528901031E+02  0.30000125173E+02 0.  0.
         12    1    1    2    0    0  0.19357689948E+02  0.12624991394E+02  0.33452231034E+02  0.40659098969E+02  0.00000000000E+00 0. -1.
         11    1    3    3    0    0 -0.77664452414E+01 -0.48471332867E+01 -0.20220541905E+01  0.93755573806E+01  0.51100000000E-03 0. -1.
        -11    1    3    3    0    0 -0.12927728457E+02  0.47852734682E+01 -0.18550491759E+02  0.23111593411E+02  0.51100000000E-03 0.  1.
         12    1    3    3    0    0  0.13364837507E+01 -0.12563131576E+02 -0.12879685084E+02  0.18041750239E+02  0.00000000000E+00 0. -1.
</event>
<event>
 7    1  0.1149645E-011  0.5052886E+02  0.7816164E-02  0.1300439E+00
        -11   -1    0    0    0    0  0.00000000000E+00  0.00000000000E+00  0.45593999997E+02  0.45594000000E+02  0.51100000000E-03 0. -1.
         11   -1    0    0    0    0 -0.00000000000E+00 -0.00000000000E+00 -0.45593999997E+02  0.45594000000E+02  0.51100000000E-03 0.  1.
    9900012    2    1    2    0    0 -0.22549681206E+02  0.21434038004E+02  0.26177462254E+02  0.50528860342E+02  0.30000001496E+02 0.  0.
        -12    1    1    2    0    0  0.22549681206E+02 -0.21434038004E+02 -0.26177462254E+02  0.40659139658E+02  0.00000000000E+00 0.  1.
         11    1    3    3    0    0 -0.11444893551E+02  0.68986494538E+01  0.79690201583E+01  0.15558992102E+02  0.51100000000E-03 0. -1.
        -11    1    3    3    0    0 -0.10165345349E+02  0.41862592213E+01  0.21434158688E+02  0.24089046707E+02  0.51100000000E-03 0.  1.
        -12    1    3    3    0    0 -0.93944230616E+00  0.10349129328E+02 -0.32257165920E+01  0.10880821533E+02  0.00000000000E+00 0.  1.
</event>
<event>
 7    1  0.5005325E-012  0.5052884E+02  0.7816164E-02  0.1300439E+00
        -11   -1    0    0    0    0  0.00000000000E+00  0.00000000000E+00  0.45593999997E+02  0.45594000000E+02  0.51100000000E-03 0. -1.
         11   -1    0    0    0    0 -0.00000000000E+00 -0.00000000000E+00 -0.45593999997E+02  0.45594000000E+02  0.51100000000E-03 0.  1.
    9900012    2    1    2    0    0 -0.87830445325E+01  0.27189747813E+02  0.28926509215E+02  0.50528841219E+02  0.29999943371E+02 0.  0.
        -12    1    1    2    0    0  0.87830445325E+01 -0.27189747813E+02 -0.28926509215E+02  0.40659158781E+02  0.00000000000E+00 0.  1.
         11    1    3    3    0    0 -0.51621822393E+01  0.21906673862E+02  0.85304836305E+01  0.24069059732E+02  0.51100000000E-03 0. -1.
        -11    1    3    3    0    0 -0.65968501451E+01  0.79375446266E+00  0.15007181492E+01  0.68118010253E+01  0.51100000000E-03 0.  1.
        -12    1    3    3    0    0  0.29759878518E+01  0.44893194882E+01  0.18895307435E+02  0.19647980462E+02  0.00000000000E+00 0.  1.
</event>
<event>
 7    1  0.5005325E-012  0.5052885E+02  0.7816164E-02  0.1300439E+00
        -11   -1    0    0    0    0  0.00000000000E+00  0.00000000000E+00  0.45593999997E+02  0.45594000000E+02  0.51100000000E-03 0. -1.
         11   -1    0    0    0    0 -0.00000000000E+00 -0.00000000000E+00 -0.45593999997E+02  0.45594000000E+02  0.51100000000E-03 0.  1.
    9900012    2    1    2    0    0  0.78242731195E+01 -0.20487874706E+02 -0.34237320514E+02  0.50528851266E+02  0.29999973907E+02 0.  0.
         12    1    1    2    0    0 -0.78242731195E+01  0.20487874706E+02  0.34237320514E+02  0.40659148734E+02  0.00000000000E+00 0. -1.
         11    1    3    3    0    0  0.76495647044E+01 -0.14193069924E+02 -0.46199737057E+01  0.16772096808E+02  0.51100000000E-03 0. -1.
        -11    1    3    3    0    0  0.56502441654E+01  0.22183009512E+01 -0.11492956672E+02  0.12997467890E+02  0.51100000000E-03 0.  1.
        -12    1    3    3    0    0 -0.54755357502E+01 -0.85131057337E+01 -0.18124390136E+02  0.20759286568E+02  0.00000000000E+00 0.  1.
</event>
<event>
 7    1  0.5005325E-012  0.5052886E+02  0.7816164E-02  0.1300439E+00
        -11   -1    0    0    0    0  0.00000000000E+00  0.00000000000E+00  0.45593999997E+02  0.45594000000E+02  0.51100000000E-03 0. -1.
         11   -1    0    0    0    0 -0.00000000000E+00 -0.00000000000E+00 -0.45593999997E+02  0.45594000000E+02  0.51100000000E-03 0.  1.
    9900012    2    1    2    0    0 -0.17254812657E+02  0.19231887036E+02 -0.31393818729E+02  0.50528857201E+02  0.29999991947E+02 0.  0.
         12    1    1    2    0    0  0.17254812657E+02 -0.19231887036E+02  0.31393818729E+02  0.40659142799E+02  0.00000000000E+00 0. -1.
         11    1    3    3    0    0 -0.12950554674E+02  0.54732411995E+01 -0.60369815223E+01  0.15300927480E+02  0.51100000000E-03 0. -1.
        -11    1    3    3    0    0 -0.11443161385E+02  0.72723972287E+01 -0.91139303681E+01  0.16336995775E+02  0.51100000000E-03 0.  1.
        -12    1    3    3    0    0  0.71389034017E+01  0.64862486074E+01 -0.16242906839E+02  0.18890933946E+02  0.00000000000E+00 0.  1.
</event>
<event>
 7    1  0.5005325E-012  0.5052884E+02  0.7816164E-02  0.1300439E+00
        -11   -1    0    0    0    0  0.00000000000E+00  0.00000000000E+00  0.45593999997E+02  0.45594000000E+02  0.51100000000E-03 0. -1.
         11   -1    0    0    0    0 -0.00000000000E+00 -0.00000000000E+00 -0.45593999997E+02  0.45594000000E+02  0.51100000000E-03 0.  1.
    9900012    2    1    2    0    0 -0.20358964173E+02 -0.50049998903E+01  0.34837185566E+02  0.50528844275E+02  0.29999952659E+02 0.  0.
        -12    1    1    2    0    0  0.20358964173E+02  0.50049998903E+01 -0.34837185566E+02  0.40659155725E+02  0.00000000000E+00 0.  1.
         11    1    3    3    0    0 -0.17580572612E+02 -0.45662973852E+01  0.16237623020E+02  0.24363661605E+02  0.51100000000E-03 0. -1.
        -11    1    3    3    0    0 -0.33561294463E+01 -0.74895930316E+01  0.17050684550E+02  0.18923093102E+02  0.51100000000E-03 0.  1.
         12    1    3    3    0    0  0.57773788552E+00  0.70508905265E+01  0.15488779957E+01  0.72420895691E+01  0.00000000000E+00 0. -1.
</event>
<event>
 7    1  0.5005325E-012  0.5052886E+02  0.7816164E-02  0.1300439E+00
        -11   -1    0    0    0    0  0.00000000000E+00  0.00000000000E+00  0.45593999997E+02  0.45594000000E+02  0.51100000000E-03 0. -1.
         11   -1    0    0    0    0 -0.00000000000E+00 -0.00000000000E+00 -0.45593999997E+02  0.45594000000E+02  0.51100000000E-03 0.  1.
    9900012    2    1    2    0    0  0.10135064193E+02 -0.44501948699E+01 -0.39123418407E+02  0.50528860456E+02  0.30000001842E+02 0.  0.
         12    1    1    2    0    0 -0.10135064193E+02  0.44501948699E+01  0.39123418407E+02  0.40659139544E+02  0.00000000000E+00 0. -1.
         11    1    3    3    0    0 -0.63839769778E+01  0.55977579913E+01 -0.12475393237E+02  0.15090576307E+02  0.51100000000E-03 0. -1.
        -11    1    3    3    0    0  0.38818458364E+01 -0.60131547432E+01 -0.18582252970E+02  0.19912982769E+02  0.51100000000E-03 0.  1.
         12    1    3    3    0    0  0.12637195334E+02 -0.40347981180E+01 -0.80657722003E+01  0.15525301380E+02  0.00000000000E+00 0. -1.
</event>
<event>
 7    1  0.5005325E-012  0.5052886E+02  0.7816164E-02  0.1300439E+00
        -11   -1    0    0    0    0  0.00000000000E+00  0.00000000000E+00  0.45593999997E+02  0.45594000000E+02  0.51100000000E-03 0. -1.
         11   -1    0    0    0    0 -0.00000000000E+00 -0.00000000000E+00 -0.45593999997E+02  0.45594000000E+02  0.51100000000E-03 0.  1.
    9900012    2    1    2    0    0 -0.92498485381E+01  0.24749113970E+02 -0.30904481446E+02  0.50528864326E+02  0.30000013607E+02 0.  0.
         12    1    1    2    0    0  0.92498485381E+01 -0.24749113970E+02  0.30904481446E+02  0.40659135674E+02  0.00000000000E+00 0. -1.
         11    1    3    3    0    0 -0.80264080629E+01  0.13543889220E+02 -0.11702562522E+02  0.19616577975E+02  0.51100000000E-03 0. -1.
        -11    1    3    3    0    0 -0.21235199762E+01  0.12212055165E+02 -0.23412026255E+02  0.26490877715E+02  0.51100000000E-03 0.  1.
         12    1    3    3    0    0  0.90007950091E+00 -0.10068304160E+01  0.42101073312E+01  0.44214086369E+01  0.00000000000E+00 0. -1.
</event>
<event>
 7    1  0.5005325E-012  0.5052886E+02  0.7816164E-02  0.1300439E+00
        -11   -1    0    0    0    0  0.00000000000E+00  0.00000000000E+00  0.45593999997E+02  0.45594000000E+02  0.51100000000E-03 0. -1.
         11   -1    0    0    0    0 -0.00000000000E+00 -0.00000000000E+00 -0.45593999997E+02  0.45594000000E+02  0.51100000000E-03 0.  1.
    9900012    2    1    2    0    0 -0.20547536868E+02 -0.12247205985E+02  0.32878108820E+02  0.50528863692E+02  0.30000011677E+02 0.  0.
        -12    1    1    2    0    0  0.20547536868E+02  0.12247205985E+02 -0.32878108820E+02  0.40659136308E+02  0.00000000000E+00 0.  1.
         11    1    3    3    0    0 -0.35624815890E+00 -0.60227906318E+01  0.98115504880E+01  0.11518135395E+02  0.51100000000E-03 0. -1.
        -11    1    3    3    0    0 -0.17702223500E+02 -0.15703319937E+00  0.26296688880E+02  0.31700303194E+02  0.51100000000E-03 0.  1.
        -12    1    3    3    0    0 -0.24890652090E+01 -0.60673821541E+01 -0.32301305483E+01  0.73104251024E+01  0.00000000000E+00 0.  1.
</event>
<event>
 7    1  0.5005325E-012  0.5052886E+02  0.7816164E-02  0.1300439E+00
        -11   -1    0    0    0    0  0.00000000000E+00  0.00000000000E+00  0.45593999997E+02  0.45594000000E+02  0.51100000000E-03 0. -1.
         11   -1    0    0    0    0 -0.00000000000E+00 -0.00000000000E+00 -0.45593999997E+02  0.45594000000E+02  0.51100000000E-03 0.  1.
    9900012    2    1    2    0    0 -0.17784619922E+02 -0.11670824817E+02 -0.34650609101E+02  0.50528861190E+02  0.30000004075E+02 0.  0.
         12    1    1    2    0    0  0.17784619922E+02  0.11670824817E+02  0.34650609101E+02  0.40659138810E+02  0.00000000000E+00 0. -1.
         11    1    3    3    0    0 -0.71698173477E+01 -0.21620439986E+00  0.15861157782E+01  0.73463452591E+01  0.51100000000E-03 0. -1.
        -11    1    3    3    0    0 -0.13935330125E+02 -0.83500855490E+01 -0.17399740508E+02  0.23804796248E+02  0.51100000000E-03 0.  1.
         12    1    3    3    0    0  0.33205275509E+01 -0.31045348679E+01 -0.18836984371E+02  0.19377719684E+02  0.00000000000E+00 0. -1.
</event>
<event>
 7    1  0.5005325E-012  0.5052884E+02  0.7816164E-02  0.1300439E+00
        -11   -1    0    0    0    0  0.00000000000E+00  0.00000000000E+00  0.45593999997E+02  0.45594000000E+02  0.51100000000E-03 0. -1.
         11   -1    0    0    0    0 -0.00000000000E+00 -0.00000000000E+00 -0.45593999997E+02  0.45594000000E+02  0.51100000000E-03 0.  1.
    9900012    2    1    2    0    0  0.54657162544E+01  0.23030700440E+02  0.33058741082E+02  0.50528836471E+02  0.29999928937E+02 0.  0.
        -12    1    1    2    0    0 -0.54657162544E+01 -0.23030700440E+02 -0.33058741082E+02  0.40659163529E+02  0.00000000000E+00 0.  1.
         11    1    3    3    0    0 -0.41122991460E+01  0.15388786023E+02  0.11420125389E+02  0.19599617438E+02  0.51100000000E-03 0. -1.
        -11    1    3    3    0    0  0.87068159581E+01  0.13461622923E+02  0.17510159366E+02  0.23740884928E+02  0.51100000000E-03 0.  1.
        -12    1    3    3    0    0  0.87119944238E+00 -0.58197085066E+01  0.41284563268E+01  0.71883341055E+01  0.00000000000E+00 0.  1.
</event>
<event>
 7    1  0.5005325E-012  0.5052889E+02  0.7816164E-02  0.1300439E+00
        -11   -1    0    0    0    0  0.00000000000E+00  0.00000000000E+00  0.45593999997E+02  0.45594000000E+02  0.51100000000E-03 0. -1.
         11   -1    0    0    0    0 -0.00000000000E+00 -0.00000000000E+00 -0.45593999997E+02  0.45594000000E+02  0.51100000000E-03 0.  1.
    9900012    2    1    2    0    0 -0.14876276851E+02 -0.12183674840E+02  0.35824818654E+02  0.50528890601E+02  0.30000093470E+02 0.  0.
        -12    1    1    2    0    0  0.14876276851E+02  0.12183674840E+02 -0.35824818654E+02  0.40659109399E+02  0.00000000000E+00 0.  1.
         11    1    3    3    0    0 -0.29064246929E+01  0.22170509308E+01  0.77616030723E+00  0.37369833300E+01  0.51100000000E-03 0.  1.
        -11    1    3    3    0    0 -0.18752391803E+02 -0.54506395244E+01  0.24995451733E+02  0.31719619751E+02  0.51100000000E-03 0. -1.
         12    1    3    3    0    0  0.67825396452E+01 -0.89500862468E+01  0.10053206613E+02  0.15072287520E+02  0.00000000000E+00 0. -1.
</event>
<event>
 7    1  0.5005325E-012  0.5052886E+02  0.7816164E-02  0.1300439E+00
        -11   -1    0    0    0    0  0.00000000000E+00  0.00000000000E+00  0.45593999997E+02  0.45594000000E+02  0.51100000000E-03 0. -1.
         11   -1    0    0    0    0 -0.00000000000E+00 -0.00000000000E+00 -0.45593999997E+02  0.45594000000E+02  0.51100000000E-03 0.  1.
    9900012    2    1    2    0    0 -0.26264152090E+01 -0.11211014293E+02  0.38994625719E+02  0.50528859167E+02  0.29999997924E+02 0.  0.
        -12    1    1    2    0    0  0.26264152090E+01  0.11211014293E+02 -0.38994625719E+02  0.40659140833E+02  0.00000000000E+00 0.  1.
         11    1    3    3    0    0  0.93934567255E+00 -0.35732085646E+01  0.33183644699E+02  0.33388687687E+02  0.51100000000E-03 0. -1.
        -11    1    3    3    0    0  0.35977803769E+01 -0.70364738324E+01  0.60416440351E+01  0.99477359506E+01  0.51100000000E-03 0.  1.
         12    1    3    3    0    0 -0.71635412585E+01 -0.60133189624E+00 -0.23066301496E+00  0.71924355289E+01  0.00000000000E+00 0. -1.
</event>
<event>
 7    1  0.5005325E-012  0.5052887E+02  0.7816164E-02  0.1300439E+00
        -11   -1    0    0    0    0  0.00000000000E+00  0.00000000000E+00  0.45593999997E+02  0.45594000000E+02  0.51100000000E-03 0. -1.
         11   -1    0    0    0    0 -0.00000000000E+00 -0.00000000000E+00 -0.45593999997E+02  0.45594000000E+02  0.51100000000E-03 0.  1.
    9900012    2    1    2    0    0 -0.33921608329E+02  0.16388205983E+02 -0.15294301157E+02  0.50528874888E+02  0.30000045711E+02 0.  0.
         12    1    1    2    0    0  0.33921608329E+02 -0.16388205983E+02  0.15294301157E+02  0.40659125112E+02  0.00000000000E+00 0. -1.
         11    1    3    3    0    0 -0.29062819293E+00 -0.16197261346E+01 -0.89237681008E-01  0.16480112628E+01  0.51100000000E-03 0. -1.
        -11    1    3    3    0    0 -0.11094569532E+02  0.40705008418E+01  0.74908311671E+01  0.13991819111E+02  0.51100000000E-03 0.  1.
        -12    1    3    3    0    0 -0.22536410604E+02  0.13937431276E+02 -0.22695894643E+02  0.34889044515E+02  0.00000000000E+00 0.  1.
</event>
<event>
 7    1  0.5005325E-012  0.5052886E+02  0.7816164E-02  0.1300439E+00
        -11   -1    0    0    0    0  0.00000000000E+00  0.00000000000E+00  0.45593999997E+02  0.45594000000E+02  0.51100000000E-03 0. -1.
         11   -1    0    0    0    0 -0.00000000000E+00 -0.00000000000E+00 -0.45593999997E+02  0.45594000000E+02  0.51100000000E-03 0.  1.
    9900012    2    1    2    0    0 -0.11827944523E+02  0.83098863478E+01  0.38002781090E+02  0.50528857690E+02  0.29999993436E+02 0.  0.
        -12    1    1    2    0    0  0.11827944523E+02 -0.83098863478E+01 -0.38002781090E+02  0.40659142310E+02  0.00000000000E+00 0.  1.
         11    1    3    3    0    0 -0.24877475799E+01 -0.60760748884E+01  0.22694370421E+02  0.23625029590E+02  0.51100000000E-03 0. -1.
        -11    1    3    3    0    0  0.16006605525E+01 -0.87668363430E+00 -0.95639022928E+00  0.20604297927E+01  0.51100000000E-03 0.  1.
        -12    1    3    3    0    0 -0.10940857496E+02  0.15262644871E+02  0.16264800898E+02  0.24843398307E+02  0.00000000000E+00 0.  1.
</event>
<event>
 7    1  0.5005325E-012  0.5052886E+02  0.7816164E-02  0.1300439E+00
        -11   -1    0    0    0    0  0.00000000000E+00  0.00000000000E+00  0.45593999997E+02  0.45594000000E+02  0.51100000000E-03 0. -1.
         11   -1    0    0    0    0 -0.00000000000E+00 -0.00000000000E+00 -0.45593999997E+02  0.45594000000E+02  0.51100000000E-03 0.  1.
    9900012    2    1    2    0    0  0.49317377729E+01  0.15053345097E+02 -0.37446496675E+02  0.50528863889E+02  0.30000012276E+02 0.  0.
         12    1    1    2    0    0 -0.49317377729E+01 -0.15053345097E+02  0.37446496675E+02  0.40659136111E+02  0.00000000000E+00 0. -1.
         11    1    3    3    0    0  0.13109373133E+02  0.60809368067E+01 -0.35305788146E+02  0.38148815620E+02  0.51100000000E-03 0. -1.
        -11    1    3    3    0    0 -0.10012557842E+01  0.14260426427E+01  0.28530437004E-01  0.17426775408E+01  0.51100000000E-03 0.  1.
         12    1    3    3    0    0 -0.71763795754E+01  0.75463656479E+01 -0.21692389665E+01  0.10637370728E+02  0.00000000000E+00 0. -1.
</event>
<event>
 7    1  0.5005325E-012  0.5052887E+02  0.7816164E-02  0.1300439E+00
        -11   -1    0    0    0    0  0.00000000000E+00  0.00000000000E+00  0.45593999997E+02  0.45594000000E+02  0.51100000000E-03 0. -1.
         11   -1    0    0    0    0 -0.00000000000E+00 -0.00000000000E+00 -0.45593999997E+02  0.45594000000E+02  0.51100000000E-03 0.  1.
    9900012    2    1    2    0    0 -0.31758396652E+02  0.14176596730E+01  0.25348758493E+02  0.50528867275E+02  0.30000022568E+02 0.  0.
        -12    1    1    2    0    0  0.31758396652E+02 -0.14176596730E+01 -0.25348758493E+02  0.40659132725E+02  0.00000000000E+00 0.  1.
         11    1    3    3    0    0 -0.19028703849E+02 -0.26978285953E+01  0.43674601057E+01  0.19708996863E+02  0.51100000000E-03 0. -1.
        -11    1    3    3    0    0 -0.70093716633E+01 -0.69296167844E+01  0.11711042954E+02  0.15306841844E+02  0.51100000000E-03 0.  1.
         12    1    3    3    0    0 -0.57203211397E+01  0.11045105053E+02  0.92702554334E+01  0.15513028569E+02  0.00000000000E+00 0. -1.
</event>
<event>
 7    1  0.5005325E-012  0.5052886E+02  0.7816164E-02  0.1300439E+00
        -11   -1    0    0    0    0  0.00000000000E+00  0.00000000000E+00  0.45593999997E+02  0.45594000000E+02  0.51100000000E-03 0. -1.
         11   -1    0    0    0    0 -0.00000000000E+00 -0.00000000000E+00 -0.45593999997E+02  0.45594000000E+02  0.51100000000E-03 0.  1.
    9900012    2    1    2    0    0  0.13748941386E+02  0.24531363720E+01  0.38185261401E+02  0.50528862582E+02  0.30000008305E+02 0.  0.
        -12    1    1    2    0    0 -0.13748941386E+02 -0.24531363720E+01 -0.38185261401E+02  0.40659137418E+02  0.00000000000E+00 0.  1.
         11    1    3    3    0    0  0.18805481731E+01 -0.98480089391E+01  0.12754364331E+02  0.16223241083E+02  0.51100000000E-03 0. -1.
        -11    1    3    3    0    0  0.11444587363E+02  0.86126109505E+00  0.14330015139E+02  0.18359457637E+02  0.51100000000E-03 0.  1.
        -12    1    3    3    0    0  0.42380585025E+00  0.11439884216E+02  0.11100881931E+02  0.15946163862E+02  0.00000000000E+00 0.  1.
</event>
<event>
 7    1  0.5005325E-012  0.5052886E+02  0.7816164E-02  0.1300439E+00
        -11   -1    0    0    0    0  0.00000000000E+00  0.00000000000E+00  0.45593999997E+02  0.45594000000E+02  0.51100000000E-03 0. -1.
         11   -1    0    0    0    0 -0.00000000000E+00 -0.00000000000E+00 -0.45593999997E+02  0.45594000000E+02  0.51100000000E-03 0.  1.
    9900012    2    1    2    0    0 -0.24949708124E+02 -0.23807412346E+02  0.21537979150E+02  0.50528863709E+02  0.30000011729E+02 0.  0.
        -12    1    1    2    0    0  0.24949708124E+02  0.23807412346E+02 -0.21537979150E+02  0.40659136291E+02  0.00000000000E+00 0.  1.
         11    1    3    3    0    0 -0.12572363763E+02 -0.77210942619E+01  0.59149117236E+01  0.15895465019E+02  0.51100000000E-03 0. -1.
        -11    1    3    3    0    0  0.16515504333E+01 -0.16349825140E+02  0.54907059143E+01  0.17326057042E+02  0.51100000000E-03 0.  1.
         12    1    3    3    0    0 -0.14028894794E+02  0.26350705570E+00  0.10132361512E+02  0.17307341648E+02  0.00000000000E+00 0. -1.
</event>
<event>
 7    1  0.5005325E-012  0.5052886E+02  0.7816164E-02  0.1300439E+00
        -11   -1    0    0    0    0  0.00000000000E+00  0.00000000000E+00  0.45593999997E+02  0.45594000000E+02  0.51100000000E-03 0.  1.
         11   -1    0    0    0    0 -0.00000000000E+00 -0.00000000000E+00 -0.45593999997E+02  0.45594000000E+02  0.51100000000E-03 0. -1.
    9900012    2    1    2    0    0  0.39083126301E+02  0.11173421359E+02 -0.91070806200E+00  0.50528862091E+02  0.30000006813E+02 0.  0.
         12    1    1    2    0    0 -0.39083126301E+02 -0.11173421359E+02  0.91070806200E+00  0.40659137909E+02  0.00000000000E+00 0. -1.
         11    1    3    3    0    0  0.13297994135E+01 -0.87941978055E+00  0.26035975622E+01  0.30529438511E+01  0.51100000000E-03 0. -1.
        -11    1    3    3    0    0  0.18194776582E+02  0.10611126685E+01  0.10489403469E+02  0.21028633820E+02  0.51100000000E-03 0.  1.
         12    1    3    3    0    0  0.19558550305E+02  0.10991728471E+02 -0.14003709093E+02  0.26447284420E+02  0.00000000000E+00 0. -1.
</event>
<event>
 7    1  0.5005325E-012  0.5052886E+02  0.7816164E-02  0.1300439E+00
        -11   -1    0    0    0    0  0.00000000000E+00  0.00000000000E+00  0.45593999997E+02  0.45594000000E+02  0.51100000000E-03 0.  1.
         11   -1    0    0    0    0 -0.00000000000E+00 -0.00000000000E+00 -0.45593999997E+02  0.45594000000E+02  0.51100000000E-03 0. -1.
    9900012    2    1    2    0    0 -0.24487048429E+02  0.32433915549E+02 -0.12615227261E+01  0.50528857631E+02  0.29999993255E+02 0.  0.
         12    1    1    2    0    0  0.24487048429E+02 -0.32433915549E+02  0.12615227261E+01  0.40659142369E+02  0.00000000000E+00 0. -1.
         11    1    3    3    0    0  0.25742849302E+00  0.16134190349E+02 -0.71823653188E+01  0.17662523588E+02  0.51100000000E-03 0. -1.
        -11    1    3    3    0    0 -0.11267370797E+02  0.12236202761E+02 -0.19356207875E+01  0.16745892953E+02  0.51100000000E-03 0.  1.
        -12    1    3    3    0    0 -0.13477106124E+02  0.40635224381E+01  0.78564633802E+01  0.16120441090E+02  0.00000000000E+00 0.  1.
</event>
<event>
 7    1  0.5005325E-012  0.5052885E+02  0.7816164E-02  0.1300439E+00
        -11   -1    0    0    0    0  0.00000000000E+00  0.00000000000E+00  0.45593999997E+02  0.45594000000E+02  0.51100000000E-03 0. -1.
         11   -1    0    0    0    0 -0.00000000000E+00 -0.00000000000E+00 -0.45593999997E+02  0.45594000000E+02  0.51100000000E-03 0.  1.
    9900012    2    1    2    0    0  0.20462114070E+02  0.27077704269E+02  0.22388971406E+02  0.50528853165E+02  0.29999979682E+02 0.  0.
        -12    1    1    2    0    0 -0.20462114070E+02 -0.27077704269E+02 -0.22388971406E+02  0.40659146835E+02  0.00000000000E+00 0.  1.
         11    1    3    3    0    0  0.18500378106E+02  0.23384453014E+02  0.16849824330E+02  0.34249280475E+02  0.51100000000E-03 0. -1.
        -11    1    3    3    0    0  0.75159839171E+00 -0.18676587112E+01  0.92624757605E+01  0.94787397200E+01  0.51100000000E-03 0.  1.
        -12    1    3    3    0    0  0.12101375716E+01  0.55609099663E+01 -0.37233286848E+01  0.68008329703E+01  0.00000000000E+00 0.  1.
</event>
<event>
 7    1  0.5005325E-012  0.5052886E+02  0.7816164E-02  0.1300439E+00
        -11   -1    0    0    0    0  0.00000000000E+00  0.00000000000E+00  0.45593999997E+02  0.45594000000E+02  0.51100000000E-03 0. -1.
         11   -1    0    0    0    0 -0.00000000000E+00 -0.00000000000E+00 -0.45593999997E+02  0.45594000000E+02  0.51100000000E-03 0.  1.
    9900012    2    1    2    0    0  0.67719336182E+01  0.18839926363E+02 -0.35388747013E+02  0.50528864182E+02  0.30000013169E+02 0.  0.
         12    1    1    2    0    0 -0.67719336182E+01 -0.18839926363E+02  0.35388747013E+02  0.40659135818E+02  0.00000000000E+00 0. -1.
         11    1    3    3    0    0  0.52496446402E+01 -0.35901135437E+01 -0.44664439454E+01  0.77715381929E+01  0.51100000000E-03 0. -1.
        -11    1    3    3    0    0 -0.62316420191E-01  0.91317960125E+01 -0.79402969633E-01  0.91323538501E+01  0.51100000000E-03 0.  1.
        -12    1    3    3    0    0  0.15846053982E+01  0.13298243894E+02 -0.30842900098E+02  0.33624972140E+02  0.00000000000E+00 0.  1.
</event>
<event>
 7    1  0.5005325E-012  0.5052875E+02  0.7816164E-02  0.1300439E+00
        -11   -1    0    0    0    0  0.00000000000E+00  0.00000000000E+00  0.45593999997E+02  0.45594000000E+02  0.51100000000E-03 0. -1.
         11   -1    0    0    0    0 -0.00000000000E+00 -0.00000000000E+00 -0.45593999997E+02  0.45594000000E+02  0.51100000000E-03 0.  1.
    9900012    2    1    2    0    0  0.12380559758E+02  0.29793426206E+02 -0.24743651522E+02  0.50528747724E+02  0.29999659179E+02 0.  0.
         12    1    1    2    0    0 -0.12380559758E+02 -0.29793426206E+02  0.24743651522E+02  0.40659252276E+02  0.00000000000E+00 0. -1.
         11    1    3    3    0    0  0.67002238912E+01  0.94781952025E+01  0.14180283553E+01  0.11693587523E+02  0.51100000000E-03 0. -1.
        -11    1    3    3    0    0 -0.22806074331E+01 -0.11034398669E+01 -0.11291863410E+02  0.11572593890E+02  0.51100000000E-03 0.  1.
         12    1    3    3    0    0  0.79609433000E+01  0.21418670871E+02 -0.14869816467E+02  0.27262566311E+02  0.00000000000E+00 0. -1.
</event>
<event>
 7    1  0.5005325E-012  0.5052886E+02  0.7816164E-02  0.1300439E+00
        -11   -1    0    0    0    0  0.00000000000E+00  0.00000000000E+00  0.45593999997E+02  0.45594000000E+02  0.51100000000E-03 0. -1.
         11   -1    0    0    0    0 -0.00000000000E+00 -0.00000000000E+00 -0.45593999997E+02  0.45594000000E+02  0.51100000000E-03 0.  1.
    9900012    2    1    2    0    0  0.13963914176E+02 -0.10954543701E+02  0.36581046532E+02  0.50528857212E+02  0.29999991983E+02 0.  0.
        -12    1    1    2    0    0 -0.13963914176E+02  0.10954543701E+02 -0.36581046532E+02  0.40659142788E+02  0.00000000000E+00 0.  1.
         11    1    3    3    0    0 -0.12765146524E+01  0.19050167966E+01  0.17166363128E+02  0.17318851058E+02  0.51100000000E-03 0. -1.
        -11    1    3    3    0    0  0.18992692736E+00  0.40569035672E+01  0.46740671209E+01  0.61920467135E+01  0.51100000000E-03 0.  1.
        -12    1    3    3    0    0  0.15050501902E+02 -0.16916464065E+02  0.14740616283E+02  0.27017959441E+02  0.00000000000E+00 0.  1.
</event>
<event>
 7    1  0.5005325E-012  0.5052888E+02  0.7816164E-02  0.1300439E+00
        -11   -1    0    0    0    0  0.00000000000E+00  0.00000000000E+00  0.45593999997E+02  0.45594000000E+02  0.51100000000E-03 0. -1.
         11   -1    0    0    0    0 -0.00000000000E+00 -0.00000000000E+00 -0.45593999997E+02  0.45594000000E+02  0.51100000000E-03 0.  1.
    9900012    2    1    2    0    0  0.16183975109E+02 -0.19014170060E+02 -0.32089011751E+02  0.50528875703E+02  0.30000048188E+02 0.  0.
         12    1    1    2    0    0 -0.16183975109E+02  0.19014170060E+02  0.32089011751E+02  0.40659124297E+02  0.00000000000E+00 0. -1.
         11    1    3    3    0    0  0.42462386208E+01 -0.12426974810E+02 -0.14125028326E+02  0.19286696732E+02  0.51100000000E-03 0. -1.
        -11    1    3    3    0    0  0.16294075686E+02 -0.92642557837E+01 -0.87077232789E+01  0.20667553862E+02  0.51100000000E-03 0.  1.
         12    1    3    3    0    0 -0.43563391980E+01  0.26770605334E+01 -0.92562601463E+01  0.10574625109E+02  0.00000000000E+00 0. -1.
</event>
<event>
 7    1  0.5005325E-012  0.5052886E+02  0.7816164E-02  0.1300439E+00
        -11   -1    0    0    0    0  0.00000000000E+00  0.00000000000E+00  0.45593999997E+02  0.45594000000E+02  0.51100000000E-03 0. -1.
         11   -1    0    0    0    0 -0.00000000000E+00 -0.00000000000E+00 -0.45593999997E+02  0.45594000000E+02  0.51100000000E-03 0.  1.
    9900012    2    1    2    0    0 -0.15085226185E+02 -0.16463850205E+01  0.37721227781E+02  0.50528860093E+02  0.30000000739E+02 0.  0.
        -12    1    1    2    0    0  0.15085226185E+02  0.16463850205E+01 -0.37721227781E+02  0.40659139907E+02  0.00000000000E+00 0.  1.
         11    1    3    3    0    0  0.13595020174E+01 -0.12560535209E+01  0.15737626199E+02  0.15846097148E+02  0.51100000000E-03 0. -1.
        -11    1    3    3    0    0 -0.13280071297E+01 -0.37923003942E+01 -0.31847390582E+01  0.51271540202E+01  0.51100000000E-03 0.  1.
        -12    1    3    3    0    0 -0.15116721073E+02  0.34019688945E+01  0.25168340640E+02  0.29555608925E+02  0.00000000000E+00 0.  1.
</event>
<event>
 7    1  0.5005325E-012  0.5052885E+02  0.7816164E-02  0.1300439E+00
        -11   -1    0    0    0    0  0.00000000000E+00  0.00000000000E+00  0.45593999997E+02  0.45594000000E+02  0.51100000000E-03 0. -1.
         11   -1    0    0    0    0 -0.00000000000E+00 -0.00000000000E+00 -0.45593999997E+02  0.45594000000E+02  0.51100000000E-03 0.  1.
    9900012    2    1    2    0    0  0.67084023442E+01 -0.84964978969E+01  0.39191495961E+02  0.50528849810E+02  0.29999969483E+02 0.  0.
        -12    1    1    2    0    0 -0.67084023442E+01  0.84964978969E+01 -0.39191495961E+02  0.40659150190E+02  0.00000000000E+00 0.  1.
         11    1    3    3    0    0  0.41757044819E+01 -0.13115184825E+02  0.12487111891E+02  0.18584201478E+02  0.51100000000E-03 0. -1.
        -11    1    3    3    0    0  0.39220257663E+01  0.13187720257E+01 -0.79471777571E+00  0.42134335609E+01  0.51100000000E-03 0.  1.
        -12    1    3    3    0    0 -0.13893279041E+01  0.32999149029E+01  0.27499101845E+02  0.27731214771E+02  0.00000000000E+00 0.  1.
</event>
<event>
 7    1  0.5005325E-012  0.5052886E+02  0.7816164E-02  0.1300439E+00
        -11   -1    0    0    0    0  0.00000000000E+00  0.00000000000E+00  0.45593999997E+02  0.45594000000E+02  0.51100000000E-03 0. -1.
         11   -1    0    0    0    0 -0.00000000000E+00 -0.00000000000E+00 -0.45593999997E+02  0.45594000000E+02  0.51100000000E-03 0.  1.
    9900012    2    1    2    0    0 -0.14005219429E+01 -0.18015652721E+02 -0.36423078922E+02  0.50528857328E+02  0.29999992334E+02 0.  0.
         12    1    1    2    0    0  0.14005219429E+01  0.18015652721E+02  0.36423078922E+02  0.40659142672E+02  0.00000000000E+00 0. -1.
         11    1    3    3    0    0  0.51927169694E+01 -0.65086682909E+01 -0.12832246068E+02  0.15296849737E+02  0.51100000000E-03 0.  1.
        -11    1    3    3    0    0  0.28728352865E+01  0.10107950315E+01  0.30512979358E+01  0.43110681429E+01  0.51100000000E-03 0. -1.
        -12    1    3    3    0    0 -0.94660741989E+01 -0.12517779462E+02 -0.26642130789E+02  0.30920939448E+02  0.00000000000E+00 0.  1.
</event>
<event>
 7    1  0.5005325E-012  0.5052886E+02  0.7816164E-02  0.1300439E+00
        -11   -1    0    0    0    0  0.00000000000E+00  0.00000000000E+00  0.45593999997E+02  0.45594000000E+02  0.51100000000E-03 0. -1.
         11   -1    0    0    0    0 -0.00000000000E+00 -0.00000000000E+00 -0.45593999997E+02  0.45594000000E+02  0.51100000000E-03 0.  1.
    9900012    2    1    2    0    0 -0.17785458912E+02  0.17056037014E+02 -0.32340908965E+02  0.50528864003E+02  0.30000012624E+02 0.  0.
         12    1    1    2    0    0  0.17785458912E+02 -0.17056037014E+02  0.32340908965E+02  0.40659135997E+02  0.00000000000E+00 0. -1.
         11    1    3    3    0    0  0.17499716519E+01  0.14709854255E+01  0.29092146201E+01  0.36999633608E+01  0.51100000000E-03 0. -1.
        -11    1    3    3    0    0  0.70466569732E+00  0.93979178482E+01 -0.13656750964E+02  0.16592897902E+02  0.51100000000E-03 0.  1.
         12    1    3    3    0    0 -0.20240096261E+02  0.61871337405E+01 -0.21593372621E+02  0.30236002741E+02  0.00000000000E+00 0. -1.
</event>
<event>
 7    1  0.5005325E-012  0.5052886E+02  0.7816164E-02  0.1300439E+00
        -11   -1    0    0    0    0  0.00000000000E+00  0.00000000000E+00  0.45593999997E+02  0.45594000000E+02  0.51100000000E-03 0. -1.
         11   -1    0    0    0    0 -0.00000000000E+00 -0.00000000000E+00 -0.45593999997E+02  0.45594000000E+02  0.51100000000E-03 0.  1.
    9900012    2    1    2    0    0  0.18334501646E+02  0.19320339168E+02  0.30720294194E+02  0.50528856729E+02  0.29999990514E+02 0.  0.
        -12    1    1    2    0    0 -0.18334501646E+02 -0.19320339168E+02 -0.30720294194E+02  0.40659143271E+02  0.00000000000E+00 0.  1.
         11    1    3    3    0    0  0.19877501191E+02  0.21396448654E+01  0.12199342619E+02  0.23420441805E+02  0.51100000000E-03 0. -1.
        -11    1    3    3    0    0 -0.15960221403E-01  0.39878859977E+01 -0.38223717589E+00  0.40061945758E+01  0.51100000000E-03 0.  1.
        -12    1    3    3    0    0 -0.15270393238E+01  0.13192808305E+02  0.18903188751E+02  0.23102220348E+02  0.00000000000E+00 0.  1.
</event>
<event>
 7    1  0.5005325E-012  0.5052887E+02  0.7816164E-02  0.1300439E+00
        -11   -1    0    0    0    0  0.00000000000E+00  0.00000000000E+00  0.45593999997E+02  0.45594000000E+02  0.51100000000E-03 0. -1.
         11   -1    0    0    0    0 -0.00000000000E+00 -0.00000000000E+00 -0.45593999997E+02  0.45594000000E+02  0.51100000000E-03 0.  1.
    9900012    2    1    2    0    0 -0.15100947684E+02 -0.28543461373E+01  0.37642779565E+02  0.50528871059E+02  0.30000034072E+02 0.  0.
        -12    1    1    2    0    0  0.15100947684E+02  0.28543461373E+01 -0.37642779565E+02  0.40659128941E+02  0.00000000000E+00 0.  1.
         11    1    3    3    0    0  0.64375730336E+01  0.60107574332E+00  0.11168506451E+02  0.12905005821E+02  0.51100000000E-03 0. -1.
        -11    1    3    3    0    0 -0.60123685159E+01  0.55604890557E+01  0.48507569221E+01  0.95182696268E+01  0.51100000000E-03 0.  1.
        -12    1    3    3    0    0 -0.15526152202E+02 -0.90159109364E+01  0.21623516192E+02  0.28105595612E+02  0.00000000000E+00 0.  1.
</event>
<event>
 7    1  0.5005325E-012  0.5052884E+02  0.7816164E-02  0.1300439E+00
        -11   -1    0    0    0    0  0.00000000000E+00  0.00000000000E+00  0.45593999997E+02  0.45594000000E+02  0.51100000000E-03 0. -1.
         11   -1    0    0    0    0 -0.00000000000E+00 -0.00000000000E+00 -0.45593999997E+02  0.45594000000E+02  0.51100000000E-03 0.  1.
    9900012    2    1    2    0    0  0.93996303843E+01 -0.73640334405E+01 -0.38866246526E+02  0.50528841636E+02  0.29999944637E+02 0.  0.
         12    1    1    2    0    0 -0.93996303843E+01  0.73640334405E+01  0.38866246526E+02  0.40659158364E+02  0.00000000000E+00 0. -1.
         11    1    3    3    0    0  0.91957495798E+01  0.73230302036E+01 -0.20013588986E+02  0.23210608050E+02  0.51100000000E-03 0. -1.
        -11    1    3    3    0    0  0.12777563297E+01 -0.32781715289E+01 -0.14722912423E+02  0.15137477342E+02  0.51100000000E-03 0.  1.
        -12    1    3    3    0    0 -0.10738755252E+01 -0.11408892115E+02 -0.41297451166E+01  0.12180756244E+02  0.00000000000E+00 0.  1.
</event>
<event>
 7    1  0.5005325E-012  0.5052887E+02  0.7816164E-02  0.1300439E+00
        -11   -1    0    0    0    0  0.00000000000E+00  0.00000000000E+00  0.45593999997E+02  0.45594000000E+02  0.51100000000E-03 0. -1.
         11   -1    0    0    0    0 -0.00000000000E+00 -0.00000000000E+00 -0.45593999997E+02  0.45594000000E+02  0.51100000000E-03 0.  1.
    9900012    2    1    2    0    0 -0.84835849965E+01 -0.18199480817E+02  0.35354955083E+02  0.50528866152E+02  0.30000019155E+02 0.  0.
        -12    1    1    2    0    0  0.84835849965E+01  0.18199480817E+02 -0.35354955083E+02  0.40659133848E+02  0.00000000000E+00 0.  1.
         11    1    3    3    0    0 -0.43509446927E+01 -0.36435656544E+01  0.76020791709E+01  0.94867222147E+01  0.51100000000E-03 0. -1.
        -11    1    3    3    0    0  0.36144378088E+01  0.29026536037E+01  0.19828708976E+02  0.20363380331E+02  0.51100000000E-03 0.  1.
         12    1    3    3    0    0 -0.77470781126E+01 -0.17458568766E+02  0.79241669363E+01  0.20678763606E+02  0.00000000000E+00 0. -1.
</event>
<event>
 7    1  0.5005325E-012  0.5052890E+02  0.7816164E-02  0.1300439E+00
        -11   -1    0    0    0    0  0.00000000000E+00  0.00000000000E+00  0.45593999997E+02  0.45594000000E+02  0.51100000000E-03 0. -1.
         11   -1    0    0    0    0 -0.00000000000E+00 -0.00000000000E+00 -0.45593999997E+02  0.45594000000E+02  0.51100000000E-03 0.  1.
    9900012    2    1    2    0    0  0.57702167816E+00  0.20028356837E+02  0.35379296906E+02  0.50528896699E+02  0.30000112007E+02 0.  0.
        -12    1    1    2    0    0 -0.57702167816E+00 -0.20028356837E+02 -0.35379296906E+02  0.40659103301E+02  0.00000000000E+00 0.  1.
         11    1    3    3    0    0 -0.27611904479E+01  0.96171176899E+01  0.32177446504E+02  0.33697198535E+02  0.51100000000E-03 0. -1.
        -11    1    3    3    0    0  0.17362264016E+01 -0.22175849846E+01  0.29791914341E+01  0.40997252522E+01  0.51100000000E-03 0.  1.
         12    1    3    3    0    0  0.16019857245E+01  0.12628824132E+02  0.22265896861E+00  0.12731972912E+02  0.00000000000E+00 0. -1.
</event>
<event>
 7    1  0.5005325E-012  0.5052886E+02  0.7816164E-02  0.1300439E+00
        -11   -1    0    0    0    0  0.00000000000E+00  0.00000000000E+00  0.45593999997E+02  0.45594000000E+02  0.51100000000E-03 0. -1.
         11   -1    0    0    0    0 -0.00000000000E+00 -0.00000000000E+00 -0.45593999997E+02  0.45594000000E+02  0.51100000000E-03 0.  1.
    9900012    2    1    2    0    0 -0.51713250752E+01 -0.29252513351E+02 -0.27761722291E+02  0.50528863697E+02  0.30000011693E+02 0.  0.
         12    1    1    2    0    0  0.51713250752E+01  0.29252513351E+02  0.27761722291E+02  0.40659136303E+02  0.00000000000E+00 0. -1.
         11    1    3    3    0    0 -0.62144998988E+01 -0.14713860214E+02 -0.12472235643E+02  0.20265101865E+02  0.51100000000E-03 0.  1.
        -11    1    3    3    0    0  0.90456067821E+01 -0.57980599755E+01  0.21809729056E+00  0.10746537499E+02  0.51100000000E-03 0. -1.
         12    1    3    3    0    0 -0.80024319584E+01 -0.87405931611E+01 -0.15507583938E+02  0.19517224333E+02  0.00000000000E+00 0. -1.
</event>
<event>
 7    1  0.5005325E-012  0.5052889E+02  0.7816164E-02  0.1300439E+00
        -11   -1    0    0    0    0  0.00000000000E+00  0.00000000000E+00  0.45593999997E+02  0.45594000000E+02  0.51100000000E-03 0. -1.
         11   -1    0    0    0    0 -0.00000000000E+00 -0.00000000000E+00 -0.45593999997E+02  0.45594000000E+02  0.51100000000E-03 0.  1.
    9900012    2    1    2    0    0 -0.87611975952E+00  0.13846670359E+00 -0.40649438131E+02  0.50528885656E+02  0.30000078439E+02 0.  0.
         12    1    1    2    0    0  0.87611975952E+00 -0.13846670359E+00  0.40649438131E+02  0.40659114344E+02  0.00000000000E+00 0. -1.
         11    1    3    3    0    0  0.44292150093E+00 -0.80844672409E+01 -0.31798837563E+01  0.86986465033E+01  0.51100000000E-03 0. -1.
        -11    1    3    3    0    0 -0.55384142144E+01  0.20593712660E+01 -0.31280213057E+01  0.66857729225E+01  0.51100000000E-03 0.  1.
        -12    1    3    3    0    0  0.42193729539E+01  0.61635626785E+01 -0.34341533070E+02  0.35144466230E+02  0.00000000000E+00 0.  1.
</event>
<event>
 7    1  0.5005325E-012  0.5052885E+02  0.7816164E-02  0.1300439E+00
        -11   -1    0    0    0    0  0.00000000000E+00  0.00000000000E+00  0.45593999997E+02  0.45594000000E+02  0.51100000000E-03 0. -1.
         11   -1    0    0    0    0 -0.00000000000E+00 -0.00000000000E+00 -0.45593999997E+02  0.45594000000E+02  0.51100000000E-03 0.  1.
    9900012    2    1    2    0    0  0.85914208668E+01  0.35912006947E+02  0.17020028925E+02  0.50528854164E+02  0.29999982718E+02 0.  0.
        -12    1    1    2    0    0 -0.85914208668E+01 -0.35912006947E+02 -0.17020028925E+02  0.40659145836E+02  0.00000000000E+00 0.  1.
         11    1    3    3    0    0  0.53375458205E+01 -0.16592356030E+00 -0.21212828118E+01  0.57460218450E+01  0.51100000000E-03 0. -1.
        -11    1    3    3    0    0  0.43862105679E+01  0.13685885686E+02 -0.13160721363E+01  0.14431713561E+02  0.51100000000E-03 0.  1.
         12    1    3    3    0    0 -0.11323355217E+01  0.22392044821E+02  0.20457383873E+02  0.30351118759E+02  0.00000000000E+00 0. -1.
</event>
<event>
 7    1  0.5005325E-012  0.5052886E+02  0.7816164E-02  0.1300439E+00
        -11   -1    0    0    0    0  0.00000000000E+00  0.00000000000E+00  0.45593999997E+02  0.45594000000E+02  0.51100000000E-03 0. -1.
         11   -1    0    0    0    0 -0.00000000000E+00 -0.00000000000E+00 -0.45593999997E+02  0.45594000000E+02  0.51100000000E-03 0.  1.
    9900012    2    1    2    0    0  0.30706551640E+02 -0.24146626429E+02 -0.11278921294E+02  0.50528856538E+02  0.29999989932E+02 0.  0.
         12    1    1    2    0    0 -0.30706551640E+02  0.24146626429E+02  0.11278921294E+02  0.40659143462E+02  0.00000000000E+00 0. -1.
         11    1    3    3    0    0  0.12972061333E+02 -0.10358652654E+02 -0.37019701023E+00  0.16604610989E+02  0.51100000000E-03 0. -1.
        -11    1    3    3    0    0  0.13060495684E+02  0.74659495263E+00  0.28308776306E+01  0.13384611311E+02  0.51100000000E-03 0.  1.
         12    1    3    3    0    0  0.46739946235E+01 -0.14534568728E+02 -0.13739601914E+02  0.20539634237E+02  0.00000000000E+00 0. -1.
</event>
<event>
 7    1  0.5005325E-012  0.5052886E+02  0.7816164E-02  0.1300439E+00
        -11   -1    0    0    0    0  0.00000000000E+00  0.00000000000E+00  0.45593999997E+02  0.45594000000E+02  0.51100000000E-03 0. -1.
         11   -1    0    0    0    0 -0.00000000000E+00 -0.00000000000E+00 -0.45593999997E+02  0.45594000000E+02  0.51100000000E-03 0.  1.
    9900012    2    1    2    0    0  0.20660498045E+02 -0.71978772483E+01  0.34270977411E+02  0.50528861924E+02  0.30000006306E+02 0.  0.
        -12    1    1    2    0    0 -0.20660498045E+02  0.71978772483E+01 -0.34270977411E+02  0.40659138076E+02  0.00000000000E+00 0.  1.
         11    1    3    3    0    0  0.77505982782E+00  0.12100895407E+01  0.11210452692E+02  0.11302180509E+02  0.51100000000E-03 0. -1.
        -11    1    3    3    0    0 -0.25113655271E+01 -0.70112454617E+01  0.59138123457E+00  0.74708936386E+01  0.51100000000E-03 0.  1.
        -12    1    3    3    0    0  0.22396803744E+02 -0.13967213273E+01  0.22469143485E+02  0.31755787777E+02  0.00000000000E+00 0.  1.
</event>
<event>
 7    1  0.5005325E-012  0.5052896E+02  0.7816164E-02  0.1300438E+00
        -11   -1    0    0    0    0  0.00000000000E+00  0.00000000000E+00  0.45593999997E+02  0.45594000000E+02  0.51100000000E-03 0.  1.
         11   -1    0    0    0    0 -0.00000000000E+00 -0.00000000000E+00 -0.45593999997E+02  0.45594000000E+02  0.51100000000E-03 0. -1.
    9900012    2    1    2    0    0 -0.34096878947E+02 -0.13442827454E+02  0.17602580454E+02  0.50528959154E+02  0.30000301843E+02 0.  0.
        -12    1    1    2    0    0  0.34096878947E+02  0.13442827454E+02 -0.17602580454E+02  0.40659040846E+02  0.00000000000E+00 0.  1.
         11    1    3    3    0    0 -0.13283147563E+01 -0.68343484655E+01  0.11866463804E+00  0.69632478483E+01  0.51100000000E-03 0. -1.
        -11    1    3    3    0    0 -0.22405371959E+02 -0.31905168099E+01  0.22177979155E+02  0.31686635192E+02  0.51100000000E-03 0.  1.
         12    1    3    3    0    0 -0.10363192232E+02 -0.34179621781E+01 -0.46940633392E+01  0.11879076114E+02  0.00000000000E+00 0. -1.
</event>
<event>
 7    1  0.5005325E-012  0.5052888E+02  0.7816164E-02  0.1300439E+00
        -11   -1    0    0    0    0  0.00000000000E+00  0.00000000000E+00  0.45593999997E+02  0.45594000000E+02  0.51100000000E-03 0. -1.
         11   -1    0    0    0    0 -0.00000000000E+00 -0.00000000000E+00 -0.45593999997E+02  0.45594000000E+02  0.51100000000E-03 0.  1.
    9900012    2    1    2    0    0 -0.14109775436E+02 -0.67221205707E+01 -0.37535200113E+02  0.50528881523E+02  0.30000065877E+02 0.  0.
         12    1    1    2    0    0  0.14109775436E+02  0.67221205707E+01  0.37535200113E+02  0.40659118477E+02  0.00000000000E+00 0. -1.
         11    1    3    3    0    0  0.62534240728E+01 -0.12251615734E+01 -0.11002342779E+02  0.12714475231E+02  0.51100000000E-03 0. -1.
        -11    1    3    3    0    0 -0.21768332935E+02 -0.57040161660E+01 -0.27899205595E+02  0.35843573933E+02  0.51100000000E-03 0.  1.
         12    1    3    3    0    0  0.14051334260E+01  0.20705716865E+00  0.13663482611E+01  0.19708323588E+01  0.00000000000E+00 0. -1.
</event>
<event>
 7    1  0.5005325E-012  0.5052879E+02  0.7816164E-02  0.1300439E+00
        -11   -1    0    0    0    0  0.00000000000E+00  0.00000000000E+00  0.45593999997E+02  0.45594000000E+02  0.51100000000E-03 0.  1.
         11   -1    0    0    0    0 -0.00000000000E+00 -0.00000000000E+00 -0.45593999997E+02  0.45594000000E+02  0.51100000000E-03 0. -1.
    9900012    2    1    2    0    0  0.33832566725E+02 -0.22267763087E+02 -0.35602671887E+01  0.50528790138E+02  0.29999788104E+02 0.  0.
        -12    1    1    2    0    0 -0.33832566725E+02  0.22267763087E+02  0.35602671887E+01  0.40659209862E+02  0.00000000000E+00 0.  1.
         11    1    3    3    0    0  0.31539046992E+01 -0.29857801915E+00 -0.84637452029E+01  0.90372145490E+01  0.51100000000E-03 0. -1.
        -11    1    3    3    0    0  0.10214787983E+02 -0.15043912911E+02 -0.31123216303E+01  0.18448516347E+02  0.51100000000E-03 0.  1.
        -12    1    3    3    0    0  0.20463874043E+02 -0.69252721565E+01  0.80157996445E+01  0.23043059242E+02  0.00000000000E+00 0.  1.
</event>
<event>
 7    1  0.5005325E-012  0.5052885E+02  0.7816164E-02  0.1300439E+00
        -11   -1    0    0    0    0  0.00000000000E+00  0.00000000000E+00  0.45593999997E+02  0.45594000000E+02  0.51100000000E-03 0. -1.
         11   -1    0    0    0    0 -0.00000000000E+00 -0.00000000000E+00 -0.45593999997E+02  0.45594000000E+02  0.51100000000E-03 0.  1.
    9900012    2    1    2    0    0  0.88781343070E+01 -0.28567458621E+02 -0.27536252397E+02  0.50528853957E+02  0.29999982088E+02 0.  0.
         12    1    1    2    0    0 -0.88781343070E+01  0.28567458621E+02  0.27536252397E+02  0.40659146043E+02  0.00000000000E+00 0. -1.
         11    1    3    3    0    0  0.49545146912E+01  0.84199384213E+00 -0.20679499148E+01  0.54343892543E+01  0.51100000000E-03 0. -1.
        -11    1    3    3    0    0  0.11909785705E+02 -0.15040649627E+02 -0.71313431074E+01  0.20467539948E+02  0.51100000000E-03 0.  1.
        -12    1    3    3    0    0 -0.79861660893E+01 -0.14368802837E+02 -0.18336959375E+02  0.24626924755E+02  0.00000000000E+00 0.  1.
</event>
<event>
 7    1  0.5005325E-012  0.5052885E+02  0.7816164E-02  0.1300439E+00
        -11   -1    0    0    0    0  0.00000000000E+00  0.00000000000E+00  0.45593999997E+02  0.45594000000E+02  0.51100000000E-03 0. -1.
         11   -1    0    0    0    0 -0.00000000000E+00 -0.00000000000E+00 -0.45593999997E+02  0.45594000000E+02  0.51100000000E-03 0.  1.
    9900012    2    1    2    0    0  0.85812090876E+00 -0.36004315227E+02 -0.18871122510E+02  0.50528851567E+02  0.29999974823E+02 0.  0.
         12    1    1    2    0    0 -0.85812090876E+00  0.36004315227E+02  0.18871122510E+02  0.40659148433E+02  0.00000000000E+00 0. -1.
         11    1    3    3    0    0 -0.17185174038E+00  0.15566870830E+01 -0.12566506758E+01  0.20079788040E+01  0.51100000000E-03 0. -1.
        -11    1    3    3    0    0  0.36163858782E+01 -0.34164007773E+02 -0.23226313794E+02  0.41469498751E+02  0.51100000000E-03 0.  1.
         12    1    3    3    0    0 -0.25864132291E+01 -0.33969945370E+01  0.56118419596E+01  0.70513740119E+01  0.00000000000E+00 0. -1.
</event>
<event>
 7    1  0.5005325E-012  0.5052886E+02  0.7816164E-02  0.1300439E+00
        -11   -1    0    0    0    0  0.00000000000E+00  0.00000000000E+00  0.45593999997E+02  0.45594000000E+02  0.51100000000E-03 0. -1.
         11   -1    0    0    0    0 -0.00000000000E+00 -0.00000000000E+00 -0.45593999997E+02  0.45594000000E+02  0.51100000000E-03 0.  1.
    9900012    2    1    2    0    0 -0.30686935164E+02 -0.55791889500E+01  0.26083531323E+02  0.50528856559E+02  0.29999989997E+02 0.  0.
        -12    1    1    2    0    0  0.30686935164E+02  0.55791889500E+01 -0.26083531323E+02  0.40659143441E+02  0.00000000000E+00 0.  1.
         11    1    3    3    0    0 -0.12278895246E+02 -0.85926575452E+00  0.13624482897E+02  0.18361267401E+02  0.51100000000E-03 0. -1.
        -11    1    3    3    0    0 -0.19180888575E+02 -0.34923302773E+01  0.17942221123E+02  0.26495776199E+02  0.51100000000E-03 0.  1.
        -12    1    3    3    0    0  0.77284865735E+00 -0.12275929182E+01 -0.54831726971E+01  0.56718129594E+01  0.00000000000E+00 0.  1.
</event>
<event>
 7    1  0.5005325E-012  0.5052886E+02  0.7816164E-02  0.1300439E+00
        -11   -1    0    0    0    0  0.00000000000E+00  0.00000000000E+00  0.45593999997E+02  0.45594000000E+02  0.51100000000E-03 0. -1.
         11   -1    0    0    0    0 -0.00000000000E+00 -0.00000000000E+00 -0.45593999997E+02  0.45594000000E+02  0.51100000000E-03 0.  1.
    9900012    2    1    2    0    0 -0.22970322104E+02  0.21949473594E+02 -0.25372239112E+02  0.50528860730E+02  0.30000002675E+02 0.  0.
         12    1    1    2    0    0  0.22970322104E+02 -0.21949473594E+02  0.25372239112E+02  0.40659139270E+02  0.00000000000E+00 0. -1.
         11    1    3    3    0    0  0.21344416395E+00  0.67855671669E+01 -0.47735068548E+00  0.68056846919E+01  0.51100000000E-03 0. -1.
        -11    1    3    3    0    0 -0.16306136395E+02  0.16599967267E+02 -0.66932498000E+01  0.24212570920E+02  0.51100000000E-03 0.  1.
        -12    1    3    3    0    0 -0.68776298735E+01 -0.14360608402E+01 -0.18201638626E+02  0.19510605119E+02  0.00000000000E+00 0.  1.
</event>
<event>
 7    1  0.5005325E-012  0.5052885E+02  0.7816164E-02  0.1300439E+00
        -11   -1    0    0    0    0  0.00000000000E+00  0.00000000000E+00  0.45593999997E+02  0.45594000000E+02  0.51100000000E-03 0. -1.
         11   -1    0    0    0    0 -0.00000000000E+00 -0.00000000000E+00 -0.45593999997E+02  0.45594000000E+02  0.51100000000E-03 0.  1.
    9900012    2    1    2    0    0 -0.17897383295E+02 -0.26261118379E+02 -0.25361455838E+02  0.50528854540E+02  0.29999983860E+02 0.  0.
         12    1    1    2    0    0  0.17897383295E+02  0.26261118379E+02  0.25361455838E+02  0.40659145460E+02  0.00000000000E+00 0. -1.
         11    1    3    3    0    0 -0.76131683433E+01 -0.79808765661E+01  0.33975150888E+01  0.11541136514E+02  0.51100000000E-03 0. -1.
        -11    1    3    3    0    0 -0.20568650786E+01 -0.11986333924E+02 -0.51515388370E+01  0.13207620813E+02  0.51100000000E-03 0.  1.
         12    1    3    3    0    0 -0.82273498730E+01 -0.62939078885E+01 -0.23607432090E+02  0.25780097213E+02  0.00000000000E+00 0. -1.
</event>
<event>
 7    1  0.5005325E-012  0.5052885E+02  0.7816164E-02  0.1300439E+00
        -11   -1    0    0    0    0  0.00000000000E+00  0.00000000000E+00  0.45593999997E+02  0.45594000000E+02  0.51100000000E-03 0. -1.
         11   -1    0    0    0    0 -0.00000000000E+00 -0.00000000000E+00 -0.45593999997E+02  0.45594000000E+02  0.51100000000E-03 0.  1.
    9900012    2    1    2    0    0  0.22642128070E+02 -0.31943768323E+01  0.33619881883E+02  0.50528850172E+02  0.29999970584E+02 0.  0.
        -12    1    1    2    0    0 -0.22642128070E+02  0.31943768323E+01 -0.33619881883E+02  0.40659149828E+02  0.00000000000E+00 0.  1.
         11    1    3    3    0    0  0.47896836942E+01 -0.33933145315E+01  0.91236768640E+01  0.10848830959E+02  0.51100000000E-03 0. -1.
        -11    1    3    3    0    0  0.38766798459E+01 -0.11246708729E+02  0.15385397494E+02  0.19448073431E+02  0.51100000000E-03 0.  1.
        -12    1    3    3    0    0  0.13975764530E+02  0.11445646429E+02  0.91108075247E+01  0.20231945782E+02  0.00000000000E+00 0.  1.
</event>
<event>
 7    1  0.5005325E-012  0.5052887E+02  0.7816164E-02  0.1300439E+00
        -11   -1    0    0    0    0  0.00000000000E+00  0.00000000000E+00  0.45593999997E+02  0.45594000000E+02  0.51100000000E-03 0. -1.
         11   -1    0    0    0    0 -0.00000000000E+00 -0.00000000000E+00 -0.45593999997E+02  0.45594000000E+02  0.51100000000E-03 0.  1.
    9900012    2    1    2    0    0 -0.22779466290E+02  0.31921419268E+02  0.10737041898E+02  0.50528866201E+02  0.30000019305E+02 0.  0.
        -12    1    1    2    0    0  0.22779466290E+02 -0.31921419268E+02 -0.10737041898E+02  0.40659133799E+02  0.00000000000E+00 0.  1.
         11    1    3    3    0    0 -0.11275939493E+02 -0.91569316623E-01  0.58429593258E+01  0.12700211429E+02  0.51100000000E-03 0. -1.
        -11    1    3    3    0    0  0.42993669894E+00  0.25943586926E+01 -0.40653587159E+01  0.48417645896E+01  0.51100000000E-03 0.  1.
         12    1    3    3    0    0 -0.11933463495E+02  0.29418629892E+02  0.89594412877E+01  0.32986890183E+02  0.00000000000E+00 0. -1.
</event>
<event>
 7    1  0.5005325E-012  0.5052886E+02  0.7816164E-02  0.1300439E+00
        -11   -1    0    0    0    0  0.00000000000E+00  0.00000000000E+00  0.45593999997E+02  0.45594000000E+02  0.51100000000E-03 0. -1.
         11   -1    0    0    0    0 -0.00000000000E+00 -0.00000000000E+00 -0.45593999997E+02  0.45594000000E+02  0.51100000000E-03 0.  1.
    9900012    2    1    2    0    0  0.19969509312E+02  0.20872286875E+02 -0.28613491246E+02  0.50528861508E+02  0.30000005041E+02 0.  0.
         12    1    1    2    0    0 -0.19969509312E+02 -0.20872286875E+02  0.28613491246E+02  0.40659138492E+02  0.00000000000E+00 0. -1.
         11    1    3    3    0    0  0.99714984735E+01  0.15450662982E+02 -0.19862320825E+02  0.27067795573E+02  0.51100000000E-03 0.  1.
        -11    1    3    3    0    0 -0.31023084390E+01  0.38990783797E+01 -0.89809454838E+01  0.10270565316E+02  0.51100000000E-03 0. -1.
         12    1    3    3    0    0  0.13100319277E+02  0.15225455134E+01  0.22977506195E+00  0.13190500619E+02  0.00000000000E+00 0. -1.
</event>
<event>
 7    1  0.5005325E-012  0.5052886E+02  0.7816164E-02  0.1300439E+00
        -11   -1    0    0    0    0  0.00000000000E+00  0.00000000000E+00  0.45593999997E+02  0.45594000000E+02  0.51100000000E-03 0. -1.
         11   -1    0    0    0    0 -0.00000000000E+00 -0.00000000000E+00 -0.45593999997E+02  0.45594000000E+02  0.51100000000E-03 0.  1.
    9900012    2    1    2    0    0 -0.11348624713E+02  0.40235772548E+01  0.38835358426E+02  0.50528861779E+02  0.30000005863E+02 0.  0.
        -12    1    1    2    0    0  0.11348624713E+02 -0.40235772548E+01 -0.38835358426E+02  0.40659138221E+02  0.00000000000E+00 0.  1.
         11    1    3    3    0    0 -0.11196608385E+02  0.39018788748E+01  0.26298082317E+01  0.12145146754E+02  0.51100000000E-03 0.  1.
        -11    1    3    3    0    0 -0.64078794512E+01 -0.32353135510E-01  0.20468953112E+02  0.21448543250E+02  0.51100000000E-03 0. -1.
        -12    1    3    3    0    0  0.62558631239E+01  0.15405151549E+00  0.15736597083E+02  0.16935171775E+02  0.00000000000E+00 0.  1.
</event>
<event>
 7    1  0.5005325E-012  0.5052891E+02  0.7816164E-02  0.1300439E+00
        -11   -1    0    0    0    0  0.00000000000E+00  0.00000000000E+00  0.45593999997E+02  0.45594000000E+02  0.51100000000E-03 0. -1.
         11   -1    0    0    0    0 -0.00000000000E+00 -0.00000000000E+00 -0.45593999997E+02  0.45594000000E+02  0.51100000000E-03 0.  1.
    9900012    2    1    2    0    0 -0.11407625850E+02  0.19987952508E+02  0.33518793623E+02  0.50528908779E+02  0.30000148723E+02 0.  0.
        -12    1    1    2    0    0  0.11407625850E+02 -0.19987952508E+02 -0.33518793623E+02  0.40659091221E+02  0.00000000000E+00 0.  1.
         11    1    3    3    0    0  0.42495926041E+01  0.52601036917E+01  0.38120239226E+01  0.77626834791E+01  0.51100000000E-03 0. -1.
        -11    1    3    3    0    0 -0.88734046263E+01 -0.14561177909E+01  0.21677051724E+02  0.23468109433E+02  0.51100000000E-03 0.  1.
         12    1    3    3    0    0 -0.67838138277E+01  0.16183966608E+02  0.80297179768E+01  0.19298115866E+02  0.00000000000E+00 0. -1.
</event>
<event>
 7    1  0.5005325E-012  0.5052886E+02  0.7816164E-02  0.1300439E+00
        -11   -1    0    0    0    0  0.00000000000E+00  0.00000000000E+00  0.45593999997E+02  0.45594000000E+02  0.51100000000E-03 0. -1.
         11   -1    0    0    0    0 -0.00000000000E+00 -0.00000000000E+00 -0.45593999997E+02  0.45594000000E+02  0.51100000000E-03 0.  1.
    9900012    2    1    2    0    0  0.18728808376E+01  0.22893559651E+02 -0.33549107517E+02  0.50528863618E+02  0.30000011454E+02 0.  0.
         12    1    1    2    0    0 -0.18728808376E+01 -0.22893559651E+02  0.33549107517E+02  0.40659136382E+02  0.00000000000E+00 0. -1.
         11    1    3    3    0    0 -0.58153795215E+01  0.34570531788E+01 -0.19359765432E+01  0.70368928582E+01  0.51100000000E-03 0. -1.
        -11    1    3    3    0    0 -0.22659015326E+01  0.93197708779E+01 -0.26865436352E+02  0.28526200407E+02  0.51100000000E-03 0.  1.
         12    1    3    3    0    0  0.99541618917E+01  0.10116735595E+02 -0.47476946212E+01  0.14965770354E+02  0.00000000000E+00 0. -1.
</event>
<event>
 7    1  0.5005325E-012  0.5052889E+02  0.7816164E-02  0.1300439E+00
        -11   -1    0    0    0    0  0.00000000000E+00  0.00000000000E+00  0.45593999997E+02  0.45594000000E+02  0.51100000000E-03 0. -1.
         11   -1    0    0    0    0 -0.00000000000E+00 -0.00000000000E+00 -0.45593999997E+02  0.45594000000E+02  0.51100000000E-03 0.  1.
    9900012    2    1    2    0    0 -0.36221342914E+02  0.81396565815E+01 -0.16580821465E+02  0.50528888693E+02  0.30000087672E+02 0.  0.
         12    1    1    2    0    0  0.36221342914E+02 -0.81396565815E+01  0.16580821465E+02  0.40659111307E+02  0.00000000000E+00 0. -1.
         11    1    3    3    0    0 -0.18949483081E+02 -0.40795437644E+01 -0.17359242253E+02  0.26020547232E+02  0.51100000000E-03 0. -1.
        -11    1    3    3    0    0 -0.44758201223E+01  0.11472759276E+01 -0.48278529181E+01  0.66826171431E+01  0.51100000000E-03 0.  1.
         12    1    3    3    0    0 -0.12796039711E+02  0.11071924418E+02  0.56062737062E+01  0.17825724318E+02  0.00000000000E+00 0. -1.
</event>
<event>
 7    1  0.5005325E-012  0.5052887E+02  0.7816164E-02  0.1300439E+00
        -11   -1    0    0    0    0  0.00000000000E+00  0.00000000000E+00  0.45593999997E+02  0.45594000000E+02  0.51100000000E-03 0. -1.
         11   -1    0    0    0    0 -0.00000000000E+00 -0.00000000000E+00 -0.45593999997E+02  0.45594000000E+02  0.51100000000E-03 0.  1.
    9900012    2    1    2    0    0  0.31026797170E+02  0.24150952032E+02  0.10355389322E+02  0.50528871693E+02  0.30000035997E+02 0.  0.
        -12    1    1    2    0    0 -0.31026797170E+02 -0.24150952032E+02 -0.10355389322E+02  0.40659128307E+02  0.00000000000E+00 0.  1.
         11    1    3    3    0    0  0.29314724862E+02  0.19073002001E+02 -0.24468017215E+00  0.34974167148E+02  0.51100000000E-03 0. -1.
        -11    1    3    3    0    0  0.35673220610E+01 -0.19691427431E+01  0.42678479391E+01  0.59006640408E+01  0.51100000000E-03 0.  1.
        -12    1    3    3    0    0 -0.18552497531E+01  0.70470927747E+01  0.63322215548E+01  0.96540405034E+01  0.00000000000E+00 0.  1.
</event>
<event>
 7    1  0.5005325E-012  0.5052890E+02  0.7816164E-02  0.1300439E+00
        -11   -1    0    0    0    0  0.00000000000E+00  0.00000000000E+00  0.45593999997E+02  0.45594000000E+02  0.51100000000E-03 0. -1.
         11   -1    0    0    0    0 -0.00000000000E+00 -0.00000000000E+00 -0.45593999997E+02  0.45594000000E+02  0.51100000000E-03 0.  1.
    9900012    2    1    2    0    0  0.30046869265E+02 -0.25939049890E+02 -0.88041726891E+01  0.50528903619E+02  0.30000133039E+02 0.  0.
         12    1    1    2    0    0 -0.30046869265E+02  0.25939049890E+02  0.88041726891E+01  0.40659096381E+02  0.00000000000E+00 0. -1.
         11    1    3    3    0    0 -0.45741941949E+01 -0.92638568877E+01 -0.57613736479E+01  0.11829443078E+02  0.51100000000E-03 0.  1.
        -11    1    3    3    0    0  0.66877055663E+01 -0.32344718334E+01  0.76310111497E+00  0.74679004650E+01  0.51100000000E-03 0. -1.
        -12    1    3    3    0    0  0.27933357893E+02 -0.13440721169E+02 -0.38059001562E+01  0.31231560075E+02  0.00000000000E+00 0.  1.
</event>
<event>
 7    1  0.5005325E-012  0.5052885E+02  0.7816164E-02  0.1300439E+00
        -11   -1    0    0    0    0  0.00000000000E+00  0.00000000000E+00  0.45593999997E+02  0.45594000000E+02  0.51100000000E-03 0. -1.
         11   -1    0    0    0    0 -0.00000000000E+00 -0.00000000000E+00 -0.45593999997E+02  0.45594000000E+02  0.51100000000E-03 0.  1.
    9900012    2    1    2    0    0  0.21589465762E+02 -0.67557570908E+01  0.33784920118E+02  0.50528854496E+02  0.29999983726E+02 0.  0.
        -12    1    1    2    0    0 -0.21589465762E+02  0.67557570908E+01 -0.33784920118E+02  0.40659145504E+02  0.00000000000E+00 0.  1.
         11    1    3    3    0    0  0.11715845039E+02 -0.71799749222E+00  0.32363743829E+01  0.12175822961E+02  0.51100000000E-03 0. -1.
        -11    1    3    3    0    0 -0.10149759842E+00 -0.93378976918E+01  0.47080230415E+01  0.10458112463E+02  0.51100000000E-03 0.  1.
        -12    1    3    3    0    0  0.99751183221E+01  0.33001380932E+01  0.25840522693E+02  0.27894919072E+02  0.00000000000E+00 0.  1.
</event>
<event>
 7    1  0.5005325E-012  0.5052886E+02  0.7816164E-02  0.1300439E+00
        -11   -1    0    0    0    0  0.00000000000E+00  0.00000000000E+00  0.45593999997E+02  0.45594000000E+02  0.51100000000E-03 0. -1.
         11   -1    0    0    0    0 -0.00000000000E+00 -0.00000000000E+00 -0.45593999997E+02  0.45594000000E+02  0.51100000000E-03 0.  1.
    9900012    2    1    2    0    0 -0.25961336795E+02  0.11016611483E+02 -0.29288381085E+02  0.50528855846E+02  0.29999987829E+02 0.  0.
         12    1    1    2    0    0  0.25961336795E+02 -0.11016611483E+02  0.29288381085E+02  0.40659144154E+02  0.00000000000E+00 0. -1.
         11    1    3    3    0    0 -0.53457697465E+01 -0.37192878140E+01 -0.71631986015E+01  0.96810004902E+01  0.51100000000E-03 0. -1.
        -11    1    3    3    0    0 -0.65724053443E+01  0.17348313249E+02 -0.18304193584E+02  0.26061542310E+02  0.51100000000E-03 0.  1.
         12    1    3    3    0    0 -0.14043161704E+02 -0.26124139516E+01 -0.38209889002E+01  0.14786313045E+02  0.00000000000E+00 0. -1.
</event>
<event>
 7    1  0.5005325E-012  0.5052886E+02  0.7816164E-02  0.1300439E+00
        -11   -1    0    0    0    0  0.00000000000E+00  0.00000000000E+00  0.45593999997E+02  0.45594000000E+02  0.51100000000E-03 0. -1.
         11   -1    0    0    0    0 -0.00000000000E+00 -0.00000000000E+00 -0.45593999997E+02  0.45594000000E+02  0.51100000000E-03 0.  1.
    9900012    2    1    2    0    0 -0.16832528198E+02 -0.57933784115E+01 -0.36555009509E+02  0.50528856389E+02  0.29999989481E+02 0.  0.
         12    1    1    2    0    0  0.16832528198E+02  0.57933784115E+01  0.36555009509E+02  0.40659143611E+02  0.00000000000E+00 0. -1.
         11    1    3    3    0    0  0.37381727189E+01 -0.56148466509E+00 -0.25509640307E+01  0.45603309148E+01  0.51100000000E-03 0. -1.
        -11    1    3    3    0    0 -0.63431596782E+01 -0.13068204515E+02 -0.18419907225E+02  0.23458615185E+02  0.51100000000E-03 0.  1.
         12    1    3    3    0    0 -0.14227541239E+02  0.78363107681E+01 -0.15584138253E+02  0.22509910290E+02  0.00000000000E+00 0. -1.
</event>
<event>
 7    1  0.5005325E-012  0.5052884E+02  0.7816164E-02  0.1300439E+00
        -11   -1    0    0    0    0  0.00000000000E+00  0.00000000000E+00  0.45593999997E+02  0.45594000000E+02  0.51100000000E-03 0. -1.
         11   -1    0    0    0    0 -0.00000000000E+00 -0.00000000000E+00 -0.45593999997E+02  0.45594000000E+02  0.51100000000E-03 0.  1.
    9900012    2    1    2    0    0  0.11129501677E+02 -0.70568733833E+01 -0.38464299778E+02  0.50528835880E+02  0.29999927142E+02 0.  0.
         12    1    1    2    0    0 -0.11129501677E+02  0.70568733833E+01  0.38464299778E+02  0.40659164120E+02  0.00000000000E+00 0. -1.
         11    1    3    3    0    0  0.21787504348E+01  0.19119559496E+01  0.12848449997E+01  0.31707027525E+01  0.51100000000E-03 0. -1.
        -11    1    3    3    0    0  0.13862525472E+02  0.14119374520E+01 -0.18000066588E+02  0.22763250587E+02  0.51100000000E-03 0.  1.
        -12    1    3    3    0    0 -0.49117742298E+01 -0.10380766785E+02 -0.21749078189E+02  0.24594882541E+02  0.00000000000E+00 0.  1.
</event>
<event>
 7    1  0.5005325E-012  0.5052886E+02  0.7816164E-02  0.1300439E+00
        -11   -1    0    0    0    0  0.00000000000E+00  0.00000000000E+00  0.45593999997E+02  0.45594000000E+02  0.51100000000E-03 0. -1.
         11   -1    0    0    0    0 -0.00000000000E+00 -0.00000000000E+00 -0.45593999997E+02  0.45594000000E+02  0.51100000000E-03 0.  1.
    9900012    2    1    2    0    0 -0.23074716070E+02  0.16006536559E+02 -0.29402622571E+02  0.50528856521E+02  0.29999989883E+02 0.  0.
         12    1    1    2    0    0  0.23074716070E+02 -0.16006536559E+02  0.29402622571E+02  0.40659143479E+02  0.00000000000E+00 0. -1.
         11    1    3    3    0    0 -0.72503146350E+01 -0.95922250613E+00  0.12866300110E+01  0.74258054896E+01  0.51100000000E-03 0. -1.
        -11    1    3    3    0    0  0.68888354630E+00 -0.11057374566E+01 -0.12594016433E+02  0.12661218979E+02  0.51100000000E-03 0.  1.
        -12    1    3    3    0    0 -0.16513284981E+02  0.18071496522E+02 -0.18095236149E+02  0.30441832053E+02  0.00000000000E+00 0.  1.
</event>
<event>
 7    1  0.5005325E-012  0.5052885E+02  0.7816164E-02  0.1300439E+00
        -11   -1    0    0    0    0  0.00000000000E+00  0.00000000000E+00  0.45593999997E+02  0.45594000000E+02  0.51100000000E-03 0. -1.
         11   -1    0    0    0    0 -0.00000000000E+00 -0.00000000000E+00 -0.45593999997E+02  0.45594000000E+02  0.51100000000E-03 0.  1.
    9900012    2    1    2    0    0 -0.16364812742E+02 -0.30582525680E+02  0.21214811715E+02  0.50528853315E+02  0.29999980137E+02 0.  0.
        -12    1    1    2    0    0  0.16364812742E+02  0.30582525680E+02 -0.21214811715E+02  0.40659146685E+02  0.00000000000E+00 0.  1.
         11    1    3    3    0    0 -0.40563178382E+01 -0.22087905164E+02  0.22824443741E+02  0.32020064042E+02  0.51100000000E-03 0. -1.
        -11    1    3    3    0    0 -0.11852179782E+02 -0.94454539742E+01  0.14957657182E+01  0.15229185195E+02  0.51100000000E-03 0.  1.
        -12    1    3    3    0    0 -0.45631512174E+00  0.95083345827E+00 -0.31053977441E+01  0.32796040774E+01  0.00000000000E+00 0.  1.
</event>
<event>
 7    1  0.5005325E-012  0.5052886E+02  0.7816164E-02  0.1300439E+00
        -11   -1    0    0    0    0  0.00000000000E+00  0.00000000000E+00  0.45593999997E+02  0.45594000000E+02  0.51100000000E-03 0. -1.
         11   -1    0    0    0    0 -0.00000000000E+00 -0.00000000000E+00 -0.45593999997E+02  0.45594000000E+02  0.51100000000E-03 0.  1.
    9900012    2    1    2    0    0  0.21110097248E+02 -0.22671181906E+02 -0.26335281768E+02  0.50528858831E+02  0.29999996902E+02 0.  0.
         12    1    1    2    0    0 -0.21110097248E+02  0.22671181906E+02  0.26335281768E+02  0.40659141169E+02  0.00000000000E+00 0. -1.
         11    1    3    3    0    0  0.16601740871E+01 -0.73779349746E+01 -0.12024543182E+02  0.14204919623E+02  0.51100000000E-03 0. -1.
        -11    1    3    3    0    0  0.17777129255E+02 -0.18675373178E+02 -0.17681898316E+02  0.31264123468E+02  0.51100000000E-03 0.  1.
         12    1    3    3    0    0  0.16727939055E+01  0.33821262468E+01  0.33711597302E+01  0.50598157403E+01  0.00000000000E+00 0. -1.
</event>
<event>
 7    1  0.5005325E-012  0.5052886E+02  0.7816164E-02  0.1300439E+00
        -11   -1    0    0    0    0  0.00000000000E+00  0.00000000000E+00  0.45593999997E+02  0.45594000000E+02  0.51100000000E-03 0. -1.
         11   -1    0    0    0    0 -0.00000000000E+00 -0.00000000000E+00 -0.45593999997E+02  0.45594000000E+02  0.51100000000E-03 0.  1.
    9900012    2    1    2    0    0  0.59642386644E+01  0.19850905600E+02  0.34979070391E+02  0.50528856362E+02  0.29999989397E+02 0.  0.
        -12    1    1    2    0    0 -0.59642386644E+01 -0.19850905600E+02 -0.34979070391E+02  0.40659143638E+02  0.00000000000E+00 0.  1.
         11    1    3    3    0    0 -0.48632389846E+01  0.10878167186E+02  0.68049593009E+00  0.11935187042E+02  0.51100000000E-03 0.  1.
        -11    1    3    3    0    0  0.13919326411E+01  0.73959843724E+01  0.20195534609E+02  0.21552208233E+02  0.51100000000E-03 0. -1.
        -12    1    3    3    0    0  0.94355450080E+01  0.15767540414E+01  0.14103039852E+02  0.17041461087E+02  0.00000000000E+00 0.  1.
</event>
<event>
 7    1  0.5005325E-012  0.5052886E+02  0.7816164E-02  0.1300439E+00
        -11   -1    0    0    0    0  0.00000000000E+00  0.00000000000E+00  0.45593999997E+02  0.45594000000E+02  0.51100000000E-03 0. -1.
         11   -1    0    0    0    0 -0.00000000000E+00 -0.00000000000E+00 -0.45593999997E+02  0.45594000000E+02  0.51100000000E-03 0.  1.
    9900012    2    1    2    0    0  0.11792846684E+02 -0.22262262461E+02 -0.31913722728E+02  0.50528864973E+02  0.30000015572E+02 0.  0.
         12    1    1    2    0    0 -0.11792846684E+02  0.22262262461E+02  0.31913722728E+02  0.40659135027E+02  0.00000000000E+00 0. -1.
         11    1    3    3    0    0  0.27485444125E+01 -0.13802947849E+02 -0.26717123297E+02  0.30197359872E+02  0.51100000000E-03 0. -1.
        -11    1    3    3    0    0  0.15493734486E+01  0.18801891907E+01 -0.70209047651E+01  0.74316063847E+01  0.51100000000E-03 0.  1.
         12    1    3    3    0    0  0.74949288227E+01 -0.10339503803E+02  0.18243053339E+01  0.12899898717E+02  0.00000000000E+00 0. -1.
</event>
<event>
 7    1  0.5005325E-012  0.5052886E+02  0.7816164E-02  0.1300439E+00
        -11   -1    0    0    0    0  0.00000000000E+00  0.00000000000E+00  0.45593999997E+02  0.45594000000E+02  0.51100000000E-03 0. -1.
         11   -1    0    0    0    0 -0.00000000000E+00 -0.00000000000E+00 -0.45593999997E+02  0.45594000000E+02  0.51100000000E-03 0.  1.
    9900012    2    1    2    0    0 -0.16099912446E+02 -0.18919622231E+02 -0.32187053878E+02  0.50528859287E+02  0.29999998289E+02 0.  0.
         12    1    1    2    0    0  0.16099912446E+02  0.18919622231E+02  0.32187053878E+02  0.40659140713E+02  0.00000000000E+00 0. -1.
         11    1    3    3    0    0  0.27429538255E+01 -0.32316940071E+01 -0.89221196102E+01  0.98778469539E+01  0.51100000000E-03 0. -1.
        -11    1    3    3    0    0  0.59226312009E+00 -0.87693429791E+01  0.94916425760E+00  0.88404222149E+01  0.51100000000E-03 0.  1.
         12    1    3    3    0    0 -0.19435129392E+02 -0.69185852452E+01 -0.24214098525E+02  0.31810590118E+02  0.00000000000E+00 0. -1.
</event>
<event>
 7    1  0.5005325E-012  0.5052886E+02  0.7816164E-02  0.1300439E+00
        -11   -1    0    0    0    0  0.00000000000E+00  0.00000000000E+00  0.45593999997E+02  0.45594000000E+02  0.51100000000E-03 0. -1.
         11   -1    0    0    0    0 -0.00000000000E+00 -0.00000000000E+00 -0.45593999997E+02  0.45594000000E+02  0.51100000000E-03 0.  1.
    9900012    2    1    2    0    0  0.32971842490E+02  0.26996551756E+01 -0.23637580044E+02  0.50528859262E+02  0.29999998212E+02 0.  0.
         12    1    1    2    0    0 -0.32971842490E+02 -0.26996551756E+01  0.23637580044E+02  0.40659140738E+02  0.00000000000E+00 0. -1.
         11    1    3    3    0    0  0.11967213149E+02  0.87963618421E+00 -0.20162493611E+01  0.12167711869E+02  0.51100000000E-03 0. -1.
        -11    1    3    3    0    0  0.17959174517E+02  0.55673078335E+01 -0.28969769187E+01  0.19024177811E+02  0.51100000000E-03 0.  1.
        -12    1    3    3    0    0  0.30454548235E+01 -0.37472888421E+01 -0.18724353764E+02  0.19336969582E+02  0.00000000000E+00 0.  1.
</event>
<event>
 7    1  0.5005325E-012  0.5052886E+02  0.7816164E-02  0.1300439E+00
        -11   -1    0    0    0    0  0.00000000000E+00  0.00000000000E+00  0.45593999997E+02  0.45594000000E+02  0.51100000000E-03 0. -1.
         11   -1    0    0    0    0 -0.00000000000E+00 -0.00000000000E+00 -0.45593999997E+02  0.45594000000E+02  0.51100000000E-03 0.  1.
    9900012    2    1    2    0    0 -0.13890581404E+02  0.93559425261E+01  0.37049746001E+02  0.50528860916E+02  0.30000003240E+02 0.  0.
        -12    1    1    2    0    0  0.13890581404E+02 -0.93559425261E+01 -0.37049746001E+02  0.40659139084E+02  0.00000000000E+00 0.  1.
         11    1    3    3    0    0 -0.15315475054E+02  0.66939833639E+01  0.31335765080E+02  0.35514832998E+02  0.51100000000E-03 0. -1.
        -11    1    3    3    0    0  0.38158393209E+01  0.55750386849E+01  0.81045823108E+01  0.10551110878E+02  0.51100000000E-03 0.  1.
        -12    1    3    3    0    0 -0.23909456707E+01 -0.29130795227E+01 -0.23906013899E+01  0.44629170406E+01  0.00000000000E+00 0.  1.
</event>
<event>
 7    1  0.5005325E-012  0.5052885E+02  0.7816164E-02  0.1300439E+00
        -11   -1    0    0    0    0  0.00000000000E+00  0.00000000000E+00  0.45593999997E+02  0.45594000000E+02  0.51100000000E-03 0. -1.
         11   -1    0    0    0    0 -0.00000000000E+00 -0.00000000000E+00 -0.45593999997E+02  0.45594000000E+02  0.51100000000E-03 0.  1.
    9900012    2    1    2    0    0  0.19585759437E+02 -0.12106697812E+02 -0.33511080752E+02  0.50528848044E+02  0.29999964114E+02 0.  0.
         12    1    1    2    0    0 -0.19585759437E+02  0.12106697812E+02  0.33511080752E+02  0.40659151956E+02  0.00000000000E+00 0. -1.
         11    1    3    3    0    0  0.25079497856E+01 -0.24538630593E+01 -0.18467925762E+02  0.18798285513E+02  0.51100000000E-03 0. -1.
        -11    1    3    3    0    0  0.13428706127E+01  0.56900977249E+01 -0.43680245540E+01  0.72979553552E+01  0.51100000000E-03 0.  1.
         12    1    3    3    0    0  0.15734939039E+02 -0.15342932477E+02 -0.10675130436E+02  0.24432607175E+02  0.00000000000E+00 0. -1.
</event>
<event>
 7    1  0.5005325E-012  0.5052885E+02  0.7816164E-02  0.1300439E+00
        -11   -1    0    0    0    0  0.00000000000E+00  0.00000000000E+00  0.45593999997E+02  0.45594000000E+02  0.51100000000E-03 0. -1.
         11   -1    0    0    0    0 -0.00000000000E+00 -0.00000000000E+00 -0.45593999997E+02  0.45594000000E+02  0.51100000000E-03 0.  1.
    9900012    2    1    2    0    0 -0.14863576812E+02 -0.27530825574E+01 -0.37744679170E+02  0.50528853614E+02  0.29999981044E+02 0.  0.
         12    1    1    2    0    0  0.14863576812E+02  0.27530825574E+01  0.37744679170E+02  0.40659146386E+02  0.00000000000E+00 0. -1.
         11    1    3    3    0    0 -0.27181891589E+01 -0.10294310238E+00 -0.65929060139E+01  0.71320095034E+01  0.51100000000E-03 0. -1.
        -11    1    3    3    0    0 -0.82369023450E+01 -0.79708599334E+01  0.92644820313E-01  0.11462536876E+02  0.51100000000E-03 0.  1.
         12    1    3    3    0    0 -0.39084853083E+01  0.53207204784E+01 -0.31244417976E+02  0.31934307234E+02  0.00000000000E+00 0. -1.
</event>
<event>
 7    1  0.5005325E-012  0.5052884E+02  0.7816164E-02  0.1300439E+00
        -11   -1    0    0    0    0  0.00000000000E+00  0.00000000000E+00  0.45593999997E+02  0.45594000000E+02  0.51100000000E-03 0. -1.
         11   -1    0    0    0    0 -0.00000000000E+00 -0.00000000000E+00 -0.45593999997E+02  0.45594000000E+02  0.51100000000E-03 0.  1.
    9900012    2    1    2    0    0  0.12068822306E+01 -0.37404668992E+02 -0.15893439033E+02  0.50528840743E+02  0.29999941924E+02 0.  0.
         12    1    1    2    0    0 -0.12068822306E+01  0.37404668992E+02  0.15893439033E+02  0.40659159257E+02  0.00000000000E+00 0. -1.
         11    1    3    3    0    0 -0.75502568166E+00  0.53851782869E+00 -0.40536690351E+01  0.41584009113E+01  0.51100000000E-03 0.  1.
        -11    1    3    3    0    0 -0.93759412843E+01 -0.11100883864E+02  0.92191645494E+00  0.14559801775E+02  0.51100000000E-03 0. -1.
         12    1    3    3    0    0  0.11337849197E+02 -0.26842302957E+02 -0.12761686453E+02  0.31810638057E+02  0.00000000000E+00 0. -1.
</event>
<event>
 7    1  0.5005325E-012  0.5052887E+02  0.7816164E-02  0.1300439E+00
        -11   -1    0    0    0    0  0.00000000000E+00  0.00000000000E+00  0.45593999997E+02  0.45594000000E+02  0.51100000000E-03 0. -1.
         11   -1    0    0    0    0 -0.00000000000E+00 -0.00000000000E+00 -0.45593999997E+02  0.45594000000E+02  0.51100000000E-03 0.  1.
    9900012    2    1    2    0    0 -0.24468381092E+02  0.86229702634E+01 -0.31306672431E+02  0.50528867838E+02  0.30000024282E+02 0.  0.
         12    1    1    2    0    0  0.24468381092E+02 -0.86229702634E+01  0.31306672431E+02  0.40659132162E+02  0.00000000000E+00 0. -1.
         11    1    3    3    0    0 -0.25014204374E+02  0.40664540999E+01 -0.21814309422E+02  0.33438160314E+02  0.51100000000E-03 0. -1.
        -11    1    3    3    0    0 -0.26313678322E+01  0.86352525005E+01 -0.56578978660E+01  0.10653801713E+02  0.51100000000E-03 0.  1.
        -12    1    3    3    0    0  0.31771911144E+01 -0.40787363371E+01 -0.38344651438E+01  0.64369058113E+01  0.00000000000E+00 0.  1.
</event>
<event>
 7    1  0.5005325E-012  0.5052886E+02  0.7816164E-02  0.1300439E+00
        -11   -1    0    0    0    0  0.00000000000E+00  0.00000000000E+00  0.45593999997E+02  0.45594000000E+02  0.51100000000E-03 0. -1.
         11   -1    0    0    0    0 -0.00000000000E+00 -0.00000000000E+00 -0.45593999997E+02  0.45594000000E+02  0.51100000000E-03 0.  1.
    9900012    2    1    2    0    0 -0.26381327604E+01  0.42176237564E+01  0.40353651825E+02  0.50528864369E+02  0.30000013737E+02 0.  0.
        -12    1    1    2    0    0  0.26381327604E+01 -0.42176237564E+01 -0.40353651825E+02  0.40659135631E+02  0.00000000000E+00 0.  1.
         11    1    3    3    0    0  0.22538505713E+01  0.12360792495E+02  0.72545535513E+01  0.14508534764E+02  0.51100000000E-03 0. -1.
        -11    1    3    3    0    0 -0.31069675638E+01 -0.14752979745E+01  0.25592159715E+02  0.25822246043E+02  0.51100000000E-03 0.  1.
        -12    1    3    3    0    0 -0.17850157679E+01 -0.66678707641E+01  0.75069385585E+01  0.10198083562E+02  0.00000000000E+00 0.  1.
</event>
<event>
 7    1  0.5005325E-012  0.5052897E+02  0.7816164E-02  0.1300438E+00
        -11   -1    0    0    0    0  0.00000000000E+00  0.00000000000E+00  0.45593999997E+02  0.45594000000E+02  0.51100000000E-03 0. -1.
         11   -1    0    0    0    0 -0.00000000000E+00 -0.00000000000E+00 -0.45593999997E+02  0.45594000000E+02  0.51100000000E-03 0.  1.
    9900012    2    1    2    0    0 -0.26215769126E+01 -0.14679847973E+02  0.37825735374E+02  0.50528968302E+02  0.30000329648E+02 0.  0.
        -12    1    1    2    0    0  0.26215769126E+01  0.14679847973E+02 -0.37825735374E+02  0.40659031698E+02  0.00000000000E+00 0.  1.
         11    1    3    3    0    0 -0.56326605405E+01 -0.14466008084E+02  0.16259138492E+02  0.22480032016E+02  0.51100000000E-03 0. -1.
        -11    1    3    3    0    0  0.48781205757E+01 -0.82727206160E+01  0.12702532057E+02  0.15924455647E+02  0.51100000000E-03 0.  1.
        -12    1    3    3    0    0 -0.18670369478E+01  0.80588807270E+01  0.88640648246E+01  0.12124480638E+02  0.00000000000E+00 0.  1.
</event>
<event>
 7    1  0.5005325E-012  0.5052886E+02  0.7816164E-02  0.1300439E+00
        -11   -1    0    0    0    0  0.00000000000E+00  0.00000000000E+00  0.45593999997E+02  0.45594000000E+02  0.51100000000E-03 0. -1.
         11   -1    0    0    0    0 -0.00000000000E+00 -0.00000000000E+00 -0.45593999997E+02  0.45594000000E+02  0.51100000000E-03 0.  1.
    9900012    2    1    2    0    0  0.13917422585E+02 -0.11580753338E+02 -0.36405454159E+02  0.50528860906E+02  0.30000003211E+02 0.  0.
         12    1    1    2    0    0 -0.13917422585E+02  0.11580753338E+02  0.36405454159E+02  0.40659139094E+02  0.00000000000E+00 0. -1.
         11    1    3    3    0    0 -0.74405065494E+00 -0.62600948311E+01 -0.97324356432E+00  0.63788401742E+01  0.51100000000E-03 0. -1.
        -11    1    3    3    0    0  0.14052796150E+02 -0.12658579248E+02 -0.26839008592E+02  0.32833718807E+02  0.51100000000E-03 0.  1.
         12    1    3    3    0    0  0.60867709018E+00  0.73379207413E+01 -0.85932020031E+01  0.11316301926E+02  0.00000000000E+00 0. -1.
</event>
<event>
 7    1  0.5005325E-012  0.5052885E+02  0.7816164E-02  0.1300439E+00
        -11   -1    0    0    0    0  0.00000000000E+00  0.00000000000E+00  0.45593999997E+02  0.45594000000E+02  0.51100000000E-03 0. -1.
         11   -1    0    0    0    0 -0.00000000000E+00 -0.00000000000E+00 -0.45593999997E+02  0.45594000000E+02  0.51100000000E-03 0.  1.
    9900012    2    1    2    0    0  0.19396316384E+02  0.13725363420E+02 -0.32993393385E+02  0.50528847312E+02  0.29999961890E+02 0.  0.
         12    1    1    2    0    0 -0.19396316384E+02 -0.13725363420E+02  0.32993393385E+02  0.40659152688E+02  0.00000000000E+00 0. -1.
         11    1    3    3    0    0  0.40730172928E+01 -0.19906777486E+01 -0.34006837982E+00  0.45461978102E+01  0.51100000000E-03 0. -1.
        -11    1    3    3    0    0  0.14226001058E+02  0.15187538606E+02 -0.96346716000E+01  0.22931797402E+02  0.51100000000E-03 0.  1.
         12    1    3    3    0    0  0.10972980331E+01  0.52850256240E+00 -0.23018653405E+02  0.23050852100E+02  0.00000000000E+00 0. -1.
</event>
<event>
 7    1  0.5005325E-012  0.5052886E+02  0.7816164E-02  0.1300439E+00
        -11   -1    0    0    0    0  0.00000000000E+00  0.00000000000E+00  0.45593999997E+02  0.45594000000E+02  0.51100000000E-03 0. -1.
         11   -1    0    0    0    0 -0.00000000000E+00 -0.00000000000E+00 -0.45593999997E+02  0.45594000000E+02  0.51100000000E-03 0.  1.
    9900012    2    1    2    0    0  0.26941658985E+02 -0.42137204409E+00 -0.30448889840E+02  0.50528862826E+02  0.30000009045E+02 0.  0.
         12    1    1    2    0    0 -0.26941658985E+02  0.42137204409E+00  0.30448889840E+02  0.40659137174E+02  0.00000000000E+00 0. -1.
         11    1    3    3    0    0 -0.28036869178E+01 -0.57596065838E+01 -0.44304286049E+01  0.77886087472E+01  0.51100000000E-03 0. -1.
        -11    1    3    3    0    0  0.11282587410E+02  0.96741293672E+01 -0.12903968881E+02  0.19682427971E+02  0.51100000000E-03 0.  1.
         12    1    3    3    0    0  0.18462758493E+02 -0.43358948275E+01 -0.13114492354E+02  0.23057826108E+02  0.00000000000E+00 0. -1.
</event>
<event>
 7    1  0.5005325E-012  0.5052885E+02  0.7816164E-02  0.1300439E+00
        -11   -1    0    0    0    0  0.00000000000E+00  0.00000000000E+00  0.45593999997E+02  0.45594000000E+02  0.51100000000E-03 0.  1.
         11   -1    0    0    0    0 -0.00000000000E+00 -0.00000000000E+00 -0.45593999997E+02  0.45594000000E+02  0.51100000000E-03 0. -1.
    9900012    2    1    2    0    0  0.27958473365E+02 -0.29304423480E+02  0.35694318519E+01  0.50528852049E+02  0.29999976287E+02 0.  0.
        -12    1    1    2    0    0 -0.27958473365E+02  0.29304423480E+02 -0.35694318519E+01  0.40659147951E+02  0.00000000000E+00 0.  1.
         11    1    3    3    0    0  0.64078596408E+01  0.20366517012E+01 -0.12547878236E+01  0.68398178390E+01  0.51100000000E-03 0.  1.
        -11    1    3    3    0    0  0.16080177078E+02 -0.21135076959E+02  0.12946825142E+02  0.29544607874E+02  0.51100000000E-03 0. -1.
         12    1    3    3    0    0  0.54704366463E+01 -0.10205998222E+02 -0.81226054663E+01  0.14144426336E+02  0.00000000000E+00 0. -1.
</event>
<event>
 7    1  0.5005325E-012  0.5052886E+02  0.7816164E-02  0.1300439E+00
        -11   -1    0    0    0    0  0.00000000000E+00  0.00000000000E+00  0.45593999997E+02  0.45594000000E+02  0.51100000000E-03 0. -1.
         11   -1    0    0    0    0 -0.00000000000E+00 -0.00000000000E+00 -0.45593999997E+02  0.45594000000E+02  0.51100000000E-03 0.  1.
    9900012    2    1    2    0    0 -0.34521162461E+02 -0.21366159594E+02 -0.22230813643E+01  0.50528861738E+02  0.30000005739E+02 0.  0.
         12    1    1    2    0    0  0.34521162461E+02  0.21366159594E+02  0.22230813643E+01  0.40659138262E+02  0.00000000000E+00 0. -1.
         11    1    3    3    0    0 -0.11635613741E+02 -0.71088666272E+00  0.35534252012E+01  0.12186865795E+02  0.51100000000E-03 0. -1.
        -11    1    3    3    0    0 -0.14384720726E+02 -0.24623268274E+02 -0.40532442409E+01  0.28803720593E+02  0.51100000000E-03 0.  1.
         12    1    3    3    0    0 -0.85008279930E+01  0.39679953426E+01 -0.17232623246E+01  0.95382753496E+01  0.00000000000E+00 0. -1.
</event>
<event>
 7    1  0.5005325E-012  0.5052886E+02  0.7816164E-02  0.1300439E+00
        -11   -1    0    0    0    0  0.00000000000E+00  0.00000000000E+00  0.45593999997E+02  0.45594000000E+02  0.51100000000E-03 0.  1.
         11   -1    0    0    0    0 -0.00000000000E+00 -0.00000000000E+00 -0.45593999997E+02  0.45594000000E+02  0.51100000000E-03 0. -1.
    9900012    2    1    2    0    0  0.79746902970E+01 -0.31430571536E+02 -0.24529346890E+02  0.50528863619E+02  0.30000011455E+02 0.  0.
         12    1    1    2    0    0 -0.79746902970E+01  0.31430571536E+02  0.24529346890E+02  0.40659136381E+02  0.00000000000E+00 0. -1.
         11    1    3    3    0    0 -0.16214013952E-01  0.27568079180E+01  0.21296391035E+01  0.34836210706E+01  0.51100000000E-03 0. -1.
        -11    1    3    3    0    0  0.34406613420E+01 -0.19326324659E+02 -0.47729983156E+01  0.20202140691E+02  0.51100000000E-03 0.  1.
        -12    1    3    3    0    0  0.45502429690E+01 -0.14861054795E+02 -0.21885987678E+02  0.26843101857E+02  0.00000000000E+00 0.  1.
</event>
<event>
 7    1  0.5005325E-012  0.5052884E+02  0.7816164E-02  0.1300439E+00
        -11   -1    0    0    0    0  0.00000000000E+00  0.00000000000E+00  0.45593999997E+02  0.45594000000E+02  0.51100000000E-03 0. -1.
         11   -1    0    0    0    0 -0.00000000000E+00 -0.00000000000E+00 -0.45593999997E+02  0.45594000000E+02  0.51100000000E-03 0.  1.
    9900012    2    1    2    0    0 -0.42077303939E+01 -0.95821063891E+01  0.39289258673E+02  0.50528836150E+02  0.29999927961E+02 0.  0.
        -12    1    1    2    0    0  0.42077303939E+01  0.95821063891E+01 -0.39289258673E+02  0.40659163850E+02  0.00000000000E+00 0.  1.
         11    1    3    3    0    0  0.20419746640E+01  0.19003950453E+01 -0.93159222542E+00  0.29409226770E+01  0.51100000000E-03 0. -1.
        -11    1    3    3    0    0 -0.45400547108E+01  0.60104238009E+01  0.15756028406E+02  0.17463954948E+02  0.51100000000E-03 0.  1.
         12    1    3    3    0    0 -0.17096503472E+01 -0.17492925235E+02  0.24464822493E+02  0.30123958525E+02  0.00000000000E+00 0. -1.
</event>
<event>
 7    1  0.6167559E-012  0.5052886E+02  0.7816164E-02  0.1300439E+00
        -11   -1    0    0    0    0  0.00000000000E+00  0.00000000000E+00  0.45593999997E+02  0.45594000000E+02  0.51100000000E-03 0. -1.
         11   -1    0    0    0    0 -0.00000000000E+00 -0.00000000000E+00 -0.45593999997E+02  0.45594000000E+02  0.51100000000E-03 0.  1.
    9900012    2    1    2    0    0  0.33604033592E+02 -0.50006373841E+01  0.22336700467E+02  0.50528860368E+02  0.30000001573E+02 0.  0.
        -12    1    1    2    0    0 -0.33604033592E+02  0.50006373841E+01 -0.22336700467E+02  0.40659139632E+02  0.00000000000E+00 0.  1.
         11    1    3    3    0    0  0.16132053644E+02  0.28089013224E+01  0.84790766972E+01  0.18439843365E+02  0.51100000000E-03 0. -1.
        -11    1    3    3    0    0  0.16895606267E+02 -0.58639475763E+01  0.19281053364E+02  0.26298410814E+02  0.51100000000E-03 0.  1.
        -12    1    3    3    0    0  0.57637368094E+00 -0.19455911302E+01 -0.54234295939E+01  0.57906061881E+01  0.00000000000E+00 0.  1.
</event>
<event>
 7    1  0.5005325E-012  0.5052886E+02  0.7816164E-02  0.1300439E+00
        -11   -1    0    0    0    0  0.00000000000E+00  0.00000000000E+00  0.45593999997E+02  0.45594000000E+02  0.51100000000E-03 0. -1.
         11   -1    0    0    0    0 -0.00000000000E+00 -0.00000000000E+00 -0.45593999997E+02  0.45594000000E+02  0.51100000000E-03 0.  1.
    9900012    2    1    2    0    0 -0.24221035850E+02 -0.13686952737E+02  0.29650878462E+02  0.50528857776E+02  0.29999993695E+02 0.  0.
        -12    1    1    2    0    0  0.24221035850E+02  0.13686952737E+02 -0.29650878462E+02  0.40659142224E+02  0.00000000000E+00 0.  1.
         11    1    3    3    0    0 -0.13507847028E+02 -0.11238071888E+01  0.92500598177E+01  0.16410011603E+02  0.51100000000E-03 0. -1.
        -11    1    3    3    0    0 -0.92959165368E+01 -0.15241872774E+02  0.23678597501E+02  0.29654758974E+02  0.51100000000E-03 0.  1.
         12    1    3    3    0    0 -0.14172722854E+01  0.26787272257E+01 -0.32777788573E+01  0.44640871987E+01  0.00000000000E+00 0. -1.
</event>
<event>
 7    1  0.5005325E-012  0.5052886E+02  0.7816164E-02  0.1300439E+00
        -11   -1    0    0    0    0  0.00000000000E+00  0.00000000000E+00  0.45593999997E+02  0.45594000000E+02  0.51100000000E-03 0. -1.
         11   -1    0    0    0    0 -0.00000000000E+00 -0.00000000000E+00 -0.45593999997E+02  0.45594000000E+02  0.51100000000E-03 0.  1.
    9900012    2    1    2    0    0  0.12355854669E+02 -0.38623355527E+02  0.29554352520E+01  0.50528864074E+02  0.30000012838E+02 0.  0.
        -12    1    1    2    0    0 -0.12355854669E+02  0.38623355527E+02 -0.29554352520E+01  0.40659135926E+02  0.00000000000E+00 0.  1.
         11    1    3    3    0    0  0.59936735079E+01  0.10755997063E+01  0.23375623706E+01  0.65226708445E+01  0.51100000000E-03 0. -1.
        -11    1    3    3    0    0  0.40402021062E+01 -0.59183695693E+01 -0.61888891961E+01  0.94685099757E+01  0.51100000000E-03 0.  1.
         12    1    3    3    0    0  0.23219790548E+01 -0.33780585664E+02  0.68067620774E+01  0.34537683253E+02  0.00000000000E+00 0. -1.
</event>
<event>
 7    1  0.5005325E-012  0.5052889E+02  0.7816164E-02  0.1300439E+00
        -11   -1    0    0    0    0  0.00000000000E+00  0.00000000000E+00  0.45593999997E+02  0.45594000000E+02  0.51100000000E-03 0. -1.
         11   -1    0    0    0    0 -0.00000000000E+00 -0.00000000000E+00 -0.45593999997E+02  0.45594000000E+02  0.51100000000E-03 0.  1.
    9900012    2    1    2    0    0  0.27551509091E+02 -0.71219225679E+01 -0.29040591595E+02  0.50528887928E+02  0.30000085346E+02 0.  0.
         12    1    1    2    0    0 -0.27551509091E+02  0.71219225679E+01  0.29040591595E+02  0.40659112072E+02  0.00000000000E+00 0. -1.
         11    1    3    3    0    0  0.14452210065E+01  0.26373501386E+01 -0.32653657383E+01  0.44392446629E+01  0.51100000000E-03 0. -1.
        -11    1    3    3    0    0 -0.85254242161E+00  0.64338127534E+01 -0.66003260841E+01  0.92566235639E+01  0.51100000000E-03 0.  1.
        -12    1    3    3    0    0  0.26958830507E+02 -0.16193085460E+02 -0.19174899773E+02  0.36833019701E+02  0.00000000000E+00 0.  1.
</event>
<event>
 7    1  0.5518028E-012  0.5052885E+02  0.7816164E-02  0.1300439E+00
        -11   -1    0    0    0    0  0.00000000000E+00  0.00000000000E+00  0.45593999997E+02  0.45594000000E+02  0.51100000000E-03 0. -1.
         11   -1    0    0    0    0 -0.00000000000E+00 -0.00000000000E+00 -0.45593999997E+02  0.45594000000E+02  0.51100000000E-03 0.  1.
    9900012    2    1    2    0    0  0.15664616172E+02  0.15722699707E+02  0.34067325474E+02  0.50528854032E+02  0.29999982316E+02 0.  0.
        -12    1    1    2    0    0 -0.15664616172E+02 -0.15722699707E+02 -0.34067325474E+02  0.40659145968E+02  0.00000000000E+00 0.  1.
         11    1    3    3    0    0  0.50386217606E+00  0.12762400574E+02  0.20330578284E+02  0.24009688860E+02  0.51100000000E-03 0. -1.
        -11    1    3    3    0    0  0.49670373389E+01 -0.31083465476E+01  0.13429118562E+02  0.14651774766E+02  0.51100000000E-03 0.  1.
        -12    1    3    3    0    0  0.10193716657E+02  0.60686456804E+01  0.30762862773E+00  0.11867390406E+02  0.00000000000E+00 0.  1.
</event>
<event>
 7    1  0.5005325E-012  0.5052886E+02  0.7816164E-02  0.1300439E+00
        -11   -1    0    0    0    0  0.00000000000E+00  0.00000000000E+00  0.45593999997E+02  0.45594000000E+02  0.51100000000E-03 0.  1.
         11   -1    0    0    0    0 -0.00000000000E+00 -0.00000000000E+00 -0.45593999997E+02  0.45594000000E+02  0.51100000000E-03 0. -1.
    9900012    2    1    2    0    0 -0.32053082039E+00  0.40643646428E+02  0.10756492931E+01  0.50528858883E+02  0.29999997060E+02 0.  0.
        -12    1    1    2    0    0  0.32053082039E+00 -0.40643646428E+02 -0.10756492931E+01  0.40659141117E+02  0.00000000000E+00 0.  1.
         11    1    3    3    0    0  0.21236352338E+01  0.92505302719E+01 -0.11695408738E+01  0.95629474031E+01  0.51100000000E-03 0. -1.
        -11    1    3    3    0    0  0.47872073915E+01 -0.18660596738E+01 -0.38083309783E+01  0.63955389465E+01  0.51100000000E-03 0.  1.
         12    1    3    3    0    0 -0.72313734456E+01  0.33259175830E+02  0.60535211452E+01  0.34570372533E+02  0.00000000000E+00 0. -1.
</event>
<event>
 7    1  0.5005325E-012  0.5052887E+02  0.7816164E-02  0.1300439E+00
        -11   -1    0    0    0    0  0.00000000000E+00  0.00000000000E+00  0.45593999997E+02  0.45594000000E+02  0.51100000000E-03 0. -1.
         11   -1    0    0    0    0 -0.00000000000E+00 -0.00000000000E+00 -0.45593999997E+02  0.45594000000E+02  0.51100000000E-03 0.  1.
    9900012    2    1    2    0    0  0.27540438888E+02  0.21807801540E+02 -0.20472149137E+02  0.50528869753E+02  0.30000030101E+02 0.  0.
         12    1    1    2    0    0 -0.27540438888E+02 -0.21807801540E+02  0.20472149137E+02  0.40659130247E+02  0.00000000000E+00 0. -1.
         11    1    3    3    0    0  0.36879318373E+01 -0.18324611624E+01 -0.23452095534E+01  0.47390677627E+01  0.51100000000E-03 0. -1.
        -11    1    3    3    0    0  0.19414559757E+02  0.11270270885E+02  0.11285124994E+01  0.22477047784E+02  0.51100000000E-03 0.  1.
        -12    1    3    3    0    0  0.44379472940E+01  0.12369991818E+02 -0.19255452083E+02  0.23312754206E+02  0.00000000000E+00 0.  1.
</event>
<event>
 7    1  0.5005325E-012  0.5052886E+02  0.7816164E-02  0.1300439E+00
        -11   -1    0    0    0    0  0.00000000000E+00  0.00000000000E+00  0.45593999997E+02  0.45594000000E+02  0.51100000000E-03 0.  1.
         11   -1    0    0    0    0 -0.00000000000E+00 -0.00000000000E+00 -0.45593999997E+02  0.45594000000E+02  0.51100000000E-03 0. -1.
    9900012    2    1    2    0    0  0.40216446573E+02  0.57103730155E+01  0.17873532220E+01  0.50528861218E+02  0.30000004159E+02 0.  0.
         12    1    1    2    0    0 -0.40216446573E+02 -0.57103730155E+01 -0.17873532220E+01  0.40659138782E+02  0.00000000000E+00 0. -1.
         11    1    3    3    0    0 -0.22065813899E+01 -0.23462137437E+00  0.32914882645E+01  0.39696276747E+01  0.51100000000E-03 0. -1.
        -11    1    3    3    0    0  0.62603478655E+01  0.52734774340E+01 -0.59480485224E+01  0.10118339841E+02  0.51100000000E-03 0.  1.
        -12    1    3    3    0    0  0.36162680097E+02  0.67151695583E+00  0.44439134799E+01  0.36440893703E+02  0.00000000000E+00 0.  1.
</event>
<event>
 7    1  0.5005325E-012  0.5052887E+02  0.7816164E-02  0.1300439E+00
        -11   -1    0    0    0    0  0.00000000000E+00  0.00000000000E+00  0.45593999997E+02  0.45594000000E+02  0.51100000000E-03 0. -1.
         11   -1    0    0    0    0 -0.00000000000E+00 -0.00000000000E+00 -0.45593999997E+02  0.45594000000E+02  0.51100000000E-03 0.  1.
    9900012    2    1    2    0    0 -0.94141533239E+01 -0.15530703285E+02  0.36377685903E+02  0.50528867459E+02  0.30000023128E+02 0.  0.
        -12    1    1    2    0    0  0.94141533239E+01  0.15530703285E+02 -0.36377685903E+02  0.40659132541E+02  0.00000000000E+00 0.  1.
         11    1    3    3    0    0 -0.57982753570E+00  0.12601541544E+01  0.23197682119E+02  0.23239118839E+02  0.51100000000E-03 0. -1.
        -11    1    3    3    0    0 -0.89947525346E+00  0.14594253506E+01 -0.17206042691E+01  0.24288798648E+01  0.51100000000E-03 0.  1.
         12    1    3    3    0    0 -0.79348505348E+01 -0.18250282789E+02  0.14900608054E+02  0.24860868755E+02  0.00000000000E+00 0. -1.
</event>
<event>
 7    1  0.5005325E-012  0.5052885E+02  0.7816164E-02  0.1300439E+00
        -11   -1    0    0    0    0  0.00000000000E+00  0.00000000000E+00  0.45593999997E+02  0.45594000000E+02  0.51100000000E-03 0.  1.
         11   -1    0    0    0    0 -0.00000000000E+00 -0.00000000000E+00 -0.45593999997E+02  0.45594000000E+02  0.51100000000E-03 0. -1.
    9900012    2    1    2    0    0 -0.10054938184E+02 -0.33332392524E+02  0.21000381812E+02  0.50528853311E+02  0.29999980123E+02 0.  0.
        -12    1    1    2    0    0  0.10054938184E+02  0.33332392524E+02 -0.21000381812E+02  0.40659146689E+02  0.00000000000E+00 0.  1.
         11    1    3    3    0    0 -0.90238729470E+01 -0.26867067607E+02  0.19533048334E+02  0.34421063061E+02  0.51100000000E-03 0. -1.
        -11    1    3    3    0    0 -0.74771962112E+01 -0.10328886336E+01  0.14036730948E+01  0.76776051298E+01  0.51100000000E-03 0.  1.
         12    1    3    3    0    0  0.64461309743E+01 -0.54324362837E+01  0.63660383163E-01  0.84301851200E+01  0.00000000000E+00 0. -1.
</event>
<event>
 7    1  0.7823845E-012  0.5052891E+02  0.7816164E-02  0.1300439E+00
        -11   -1    0    0    0    0  0.00000000000E+00  0.00000000000E+00  0.45593999997E+02  0.45594000000E+02  0.51100000000E-03 0. -1.
         11   -1    0    0    0    0 -0.00000000000E+00 -0.00000000000E+00 -0.45593999997E+02  0.45594000000E+02  0.51100000000E-03 0.  1.
    9900012    2    1    2    0    0  0.96745254624E+01 -0.17079243331E+02  0.35607091863E+02  0.50528905241E+02  0.30000137969E+02 0.  0.
        -12    1    1    2    0    0 -0.96745254624E+01  0.17079243331E+02 -0.35607091863E+02  0.40659094759E+02  0.00000000000E+00 0.  1.
         11    1    3    3    0    0 -0.43527152815E+01 -0.13009880956E+02  0.20421128421E+02  0.24601333684E+02  0.51100000000E-03 0. -1.
        -11    1    3    3    0    0  0.57560336828E+01 -0.30377154594E+01  0.16268670386E+02  0.17522250864E+02  0.51100000000E-03 0.  1.
        -12    1    3    3    0    0  0.82712070611E+01 -0.10316469156E+01 -0.10827069431E+01  0.84053206918E+01  0.00000000000E+00 0.  1.
</event>
<event>
 7    1  0.5005325E-012  0.5052886E+02  0.7816164E-02  0.1300439E+00
        -11   -1    0    0    0    0  0.00000000000E+00  0.00000000000E+00  0.45593999997E+02  0.45594000000E+02  0.51100000000E-03 0. -1.
         11   -1    0    0    0    0 -0.00000000000E+00 -0.00000000000E+00 -0.45593999997E+02  0.45594000000E+02  0.51100000000E-03 0.  1.
    9900012    2    1    2    0    0 -0.21361481581E+02  0.32675536465E+02  0.11364965635E+02  0.50528855610E+02  0.29999987113E+02 0.  0.
        -12    1    1    2    0    0  0.21361481581E+02 -0.32675536465E+02 -0.11364965635E+02  0.40659144390E+02  0.00000000000E+00 0.  1.
         11    1    3    3    0    0 -0.70440824056E+01  0.44870673084E+01 -0.60683151033E+01  0.10323629130E+02  0.51100000000E-03 0. -1.
        -11    1    3    3    0    0 -0.13723412932E+02  0.12656435589E+02  0.28373968125E+01  0.18883014729E+02  0.51100000000E-03 0.  1.
         12    1    3    3    0    0 -0.59398624424E+00  0.15532033568E+02  0.14595883925E+02  0.21322211751E+02  0.00000000000E+00 0. -1.
</event>
<event>
 7    1  0.5005325E-012  0.5052887E+02  0.7816164E-02  0.1300439E+00
        -11   -1    0    0    0    0  0.00000000000E+00  0.00000000000E+00  0.45593999997E+02  0.45594000000E+02  0.51100000000E-03 0. -1.
         11   -1    0    0    0    0 -0.00000000000E+00 -0.00000000000E+00 -0.45593999997E+02  0.45594000000E+02  0.51100000000E-03 0.  1.
    9900012    2    1    2    0    0  0.14399701274E+02  0.31682321600E+02  0.21024845271E+02  0.50528867970E+02  0.30000024683E+02 0.  0.
        -12    1    1    2    0    0 -0.14399701274E+02 -0.31682321600E+02 -0.21024845271E+02  0.40659132030E+02  0.00000000000E+00 0.  1.
         11    1    3    3    0    0 -0.36971839111E+01  0.18194929821E+01 -0.14108273084E+01  0.43554744334E+01  0.51100000000E-03 0. -1.
        -11    1    3    3    0    0  0.13244685331E+01  0.20377108877E+02  0.73537612351E+01  0.21703884161E+02  0.51100000000E-03 0.  1.
        -12    1    3    3    0    0  0.16772416652E+02  0.94857197408E+01  0.15081911344E+02  0.24469509377E+02  0.00000000000E+00 0.  1.
</event>
<event>
 7    1  0.6284937E-012  0.5052893E+02  0.7816164E-02  0.1300439E+00
        -11   -1    0    0    0    0  0.00000000000E+00  0.00000000000E+00  0.45593999997E+02  0.45594000000E+02  0.51100000000E-03 0. -1.
         11   -1    0    0    0    0 -0.00000000000E+00 -0.00000000000E+00 -0.45593999997E+02  0.45594000000E+02  0.51100000000E-03 0.  1.
    9900012    2    1    2    0    0 -0.52334408929E+01  0.10338499842E+02  0.38972895161E+02  0.50528929182E+02  0.30000210742E+02 0.  0.
        -12    1    1    2    0    0  0.52334408929E+01 -0.10338499842E+02 -0.38972895161E+02  0.40659070818E+02  0.00000000000E+00 0.  1.
         11    1    3    3    0    0 -0.72067798726E+01 -0.10905973351E+01  0.66267468181E+01  0.98509315464E+01  0.51100000000E-03 0. -1.
        -11    1    3    3    0    0  0.69287533322E+01  0.17422758947E+01  0.65900410892E+00  0.71747776766E+01  0.51100000000E-03 0.  1.
         12    1    3    3    0    0 -0.49554143526E+01  0.96868212821E+01  0.31687144234E+02  0.33503219959E+02  0.00000000000E+00 0. -1.
</event>
<event>
 7    1  0.5005325E-012  0.5052886E+02  0.7816164E-02  0.1300439E+00
        -11   -1    0    0    0    0  0.00000000000E+00  0.00000000000E+00  0.45593999997E+02  0.45594000000E+02  0.51100000000E-03 0.  1.
         11   -1    0    0    0    0 -0.00000000000E+00 -0.00000000000E+00 -0.45593999997E+02  0.45594000000E+02  0.51100000000E-03 0. -1.
    9900012    2    1    2    0    0  0.11715635691E+02 -0.34160894333E+02  0.18680014581E+02  0.50528858764E+02  0.29999996701E+02 0.  0.
         12    1    1    2    0    0 -0.11715635691E+02  0.34160894333E+02 -0.18680014581E+02  0.40659141236E+02  0.00000000000E+00 0. -1.
         11    1    3    3    0    0 -0.17279606279E+01 -0.22924269955E+02  0.11338304733E+02  0.25633282181E+02  0.51100000000E-03 0. -1.
        -11    1    3    3    0    0  0.72380146204E+01 -0.80050017292E+01  0.12267511071E+02  0.16338933150E+02  0.51100000000E-03 0.  1.
         12    1    3    3    0    0  0.62055816981E+01 -0.32316226490E+01 -0.49258012234E+01  0.85566434336E+01  0.00000000000E+00 0. -1.
</event>
<event>
 7    1  0.5005325E-012  0.5052886E+02  0.7816164E-02  0.1300439E+00
        -11   -1    0    0    0    0  0.00000000000E+00  0.00000000000E+00  0.45593999997E+02  0.45594000000E+02  0.51100000000E-03 0. -1.
         11   -1    0    0    0    0 -0.00000000000E+00 -0.00000000000E+00 -0.45593999997E+02  0.45594000000E+02  0.51100000000E-03 0.  1.
    9900012    2    1    2    0    0  0.24257786460E+02 -0.28694501271E+02  0.15535475703E+02  0.50528860653E+02  0.30000002440E+02 0.  0.
        -12    1    1    2    0    0 -0.24257786460E+02  0.28694501271E+02 -0.15535475703E+02  0.40659139347E+02  0.00000000000E+00 0.  1.
         11    1    3    3    0    0 -0.22465009814E+01 -0.11534241043E+02  0.10563114553E+02  0.15800787082E+02  0.51100000000E-03 0. -1.
        -11    1    3    3    0    0  0.69705302551E+00 -0.15248889923E+01 -0.30722445393E+01  0.34999794470E+01  0.51100000000E-03 0.  1.
         12    1    3    3    0    0  0.25807234416E+02 -0.15635371236E+02  0.80446056893E+01  0.31228094124E+02  0.00000000000E+00 0. -1.
</event>
<event>
 7    1  0.5005325E-012  0.5052889E+02  0.7816164E-02  0.1300439E+00
        -11   -1    0    0    0    0  0.00000000000E+00  0.00000000000E+00  0.45593999997E+02  0.45594000000E+02  0.51100000000E-03 0. -1.
         11   -1    0    0    0    0 -0.00000000000E+00 -0.00000000000E+00 -0.45593999997E+02  0.45594000000E+02  0.51100000000E-03 0.  1.
    9900012    2    1    2    0    0  0.46074379269E+01  0.34755021060E+02  0.20591819055E+02  0.50528892962E+02  0.30000100647E+02 0.  0.
        -12    1    1    2    0    0 -0.46074379269E+01 -0.34755021060E+02 -0.20591819055E+02  0.40659107038E+02  0.00000000000E+00 0.  1.
         11    1    3    3    0    0 -0.47587175488E+01  0.15638988661E+02  0.11108636898E+02  0.19764239754E+02  0.51100000000E-03 0. -1.
        -11    1    3    3    0    0 -0.49324533765E+01 -0.23598028820E+00  0.10202780648E+00  0.49391490100E+01  0.51100000000E-03 0.  1.
        -12    1    3    3    0    0  0.14298608852E+02  0.19352012687E+02  0.93811543501E+01  0.25825504198E+02  0.00000000000E+00 0.  1.
</event>
<event>
 7    1  0.5005325E-012  0.5052886E+02  0.7816164E-02  0.1300439E+00
        -11   -1    0    0    0    0  0.00000000000E+00  0.00000000000E+00  0.45593999997E+02  0.45594000000E+02  0.51100000000E-03 0. -1.
         11   -1    0    0    0    0 -0.00000000000E+00 -0.00000000000E+00 -0.45593999997E+02  0.45594000000E+02  0.51100000000E-03 0.  1.
    9900012    2    1    2    0    0 -0.37288733545E+02  0.90614532866E+01  0.13438975028E+02  0.50528860378E+02  0.30000001604E+02 0.  0.
        -12    1    1    2    0    0  0.37288733545E+02 -0.90614532866E+01 -0.13438975028E+02  0.40659139622E+02  0.00000000000E+00 0.  1.
         11    1    3    3    0    0 -0.24255754211E+02  0.10904579665E+02  0.15836623032E+00  0.26594671461E+02  0.51100000000E-03 0. -1.
        -11    1    3    3    0    0 -0.88345450296E+01 -0.23236069968E+01 -0.86023731907E+00  0.91754206368E+01  0.51100000000E-03 0.  1.
        -12    1    3    3    0    0 -0.41984343038E+01  0.48048061862E+00  0.14140846117E+02  0.14758768279E+02  0.00000000000E+00 0.  1.
</event>
<event>
 7    1  0.5005325E-012  0.5052886E+02  0.7816164E-02  0.1300439E+00
        -11   -1    0    0    0    0  0.00000000000E+00  0.00000000000E+00  0.45593999997E+02  0.45594000000E+02  0.51100000000E-03 0. -1.
         11   -1    0    0    0    0 -0.00000000000E+00 -0.00000000000E+00 -0.45593999997E+02  0.45594000000E+02  0.51100000000E-03 0.  1.
    9900012    2    1    2    0    0  0.24622997438E+02 -0.12682986676E+02 -0.29766012149E+02  0.50528860398E+02  0.30000001666E+02 0.  0.
         12    1    1    2    0    0 -0.24622997438E+02  0.12682986676E+02  0.29766012149E+02  0.40659139602E+02  0.00000000000E+00 0. -1.
         11    1    3    3    0    0 -0.13430473963E+01 -0.96918913416E+01 -0.11734662293E+02  0.15278705229E+02  0.51100000000E-03 0. -1.
        -11    1    3    3    0    0  0.88066088430E+00  0.30606772425E+01 -0.59679929249E+01  0.67646321843E+01  0.51100000000E-03 0.  1.
         12    1    3    3    0    0  0.25085383950E+02 -0.60517725773E+01 -0.12063356931E+02  0.28485522985E+02  0.00000000000E+00 0. -1.
</event>
<event>
 7    1  0.5005325E-012  0.5052885E+02  0.7816164E-02  0.1300439E+00
        -11   -1    0    0    0    0  0.00000000000E+00  0.00000000000E+00  0.45593999997E+02  0.45594000000E+02  0.51100000000E-03 0. -1.
         11   -1    0    0    0    0 -0.00000000000E+00 -0.00000000000E+00 -0.45593999997E+02  0.45594000000E+02  0.51100000000E-03 0.  1.
    9900012    2    1    2    0    0 -0.25325126915E+02  0.24538962329E+02 -0.20239649599E+02  0.50528854149E+02  0.29999982671E+02 0.  0.
         12    1    1    2    0    0  0.25325126915E+02 -0.24538962329E+02  0.20239649599E+02  0.40659145851E+02  0.00000000000E+00 0. -1.
         11    1    3    3    0    0 -0.17741092383E+02  0.25570807769E+02 -0.11730791606E+02  0.33259946495E+02  0.51100000000E-03 0. -1.
        -11    1    3    3    0    0  0.15059454032E+01  0.36630941308E+01  0.24043170756E-02  0.39605727124E+01  0.51100000000E-03 0.  1.
        -12    1    3    3    0    0 -0.90899799360E+01 -0.46949395708E+01 -0.85112623099E+01  0.13308334942E+02  0.00000000000E+00 0.  1.
</event>
<event>
 7    1  0.5005325E-012  0.5052886E+02  0.7816164E-02  0.1300439E+00
        -11   -1    0    0    0    0  0.00000000000E+00  0.00000000000E+00  0.45593999997E+02  0.45594000000E+02  0.51100000000E-03 0. -1.
         11   -1    0    0    0    0 -0.00000000000E+00 -0.00000000000E+00 -0.45593999997E+02  0.45594000000E+02  0.51100000000E-03 0.  1.
    9900012    2    1    2    0    0  0.67197076329E+00 -0.35765945235E+02  0.19326432465E+02  0.50528863572E+02  0.30000011312E+02 0.  0.
        -12    1    1    2    0    0 -0.67197076329E+00  0.35765945235E+02 -0.19326432465E+02  0.40659136428E+02  0.00000000000E+00 0.  1.
         11    1    3    3    0    0  0.80889200777E+00 -0.31462428339E+01  0.85043238108E+01  0.91036626690E+01  0.51100000000E-03 0. -1.
        -11    1    3    3    0    0  0.55480576455E+01 -0.43998342151E+01 -0.49131698656E+01  0.86185104947E+01  0.51100000000E-03 0.  1.
         12    1    3    3    0    0 -0.56849788900E+01 -0.28219868186E+02  0.15735278520E+02  0.32806690408E+02  0.00000000000E+00 0. -1.
</event>
<event>
 7    1  0.5005325E-012  0.5052886E+02  0.7816164E-02  0.1300439E+00
        -11   -1    0    0    0    0  0.00000000000E+00  0.00000000000E+00  0.45593999997E+02  0.45594000000E+02  0.51100000000E-03 0. -1.
         11   -1    0    0    0    0 -0.00000000000E+00 -0.00000000000E+00 -0.45593999997E+02  0.45594000000E+02  0.51100000000E-03 0.  1.
    9900012    2    1    2    0    0 -0.21242793500E+02 -0.21784014067E+02  0.26969724136E+02  0.50528861242E+02  0.30000004230E+02 0.  0.
        -12    1    1    2    0    0  0.21242793500E+02  0.21784014067E+02 -0.26969724136E+02  0.40659138758E+02  0.00000000000E+00 0.  1.
         11    1    3    3    0    0  0.14236208832E+01  0.42394024696E+00  0.42898475826E+01  0.45397372496E+01  0.51100000000E-03 0. -1.
        -11    1    3    3    0    0 -0.31160639684E+00 -0.78922841511E+01 -0.35598071444E+01  0.86635717135E+01  0.51100000000E-03 0.  1.
         12    1    3    3    0    0 -0.22354807987E+02 -0.14315670163E+02  0.26239683698E+02  0.37325552279E+02  0.00000000000E+00 0. -1.
</event>
<event>
 7    1  0.5005325E-012  0.5052886E+02  0.7816164E-02  0.1300439E+00
        -11   -1    0    0    0    0  0.00000000000E+00  0.00000000000E+00  0.45593999997E+02  0.45594000000E+02  0.51100000000E-03 0. -1.
         11   -1    0    0    0    0 -0.00000000000E+00 -0.00000000000E+00 -0.45593999997E+02  0.45594000000E+02  0.51100000000E-03 0.  1.
    9900012    2    1    2    0    0  0.37040956736E+02  0.16756756935E+02 -0.58669335241E+00  0.50528860953E+02  0.30000003354E+02 0.  0.
         12    1    1    2    0    0 -0.37040956736E+02 -0.16756756935E+02  0.58669335241E+00  0.40659139047E+02  0.00000000000E+00 0. -1.
         11    1    3    3    0    0  0.11981613440E+02 -0.28973063988E+00 -0.31504113705E-01  0.11985157372E+02  0.51100000000E-03 0. -1.
        -11    1    3    3    0    0  0.28685406106E+02  0.18658196409E+02 -0.21035751789E+01  0.34284192356E+02  0.51100000000E-03 0.  1.
        -12    1    3    3    0    0 -0.36260628093E+01 -0.16117088339E+01  0.15483859402E+01  0.42595112257E+01  0.00000000000E+00 0.  1.
</event>
<event>
 7    1  0.5005325E-012  0.5052884E+02  0.7816164E-02  0.1300439E+00
        -11   -1    0    0    0    0  0.00000000000E+00  0.00000000000E+00  0.45593999997E+02  0.45594000000E+02  0.51100000000E-03 0.  1.
         11   -1    0    0    0    0 -0.00000000000E+00 -0.00000000000E+00 -0.45593999997E+02  0.45594000000E+02  0.51100000000E-03 0. -1.
    9900012    2    1    2    0    0  0.36185723730E+02  0.40747304574E+01  0.18087485186E+02  0.50528841739E+02  0.29999944949E+02 0.  0.
         12    1    1    2    0    0 -0.36185723730E+02 -0.40747304574E+01 -0.18087485186E+02  0.40659158261E+02  0.00000000000E+00 0. -1.
         11    1    3    3    0    0  0.14776601186E+02  0.20565791238E+01 -0.22037751332E+01  0.15080917923E+02  0.51100000000E-03 0. -1.
        -11    1    3    3    0    0  0.30023333055E+01  0.74107555713E+01  0.69326990600E+00  0.80258287322E+01  0.51100000000E-03 0.  1.
         12    1    3    3    0    0  0.18406789238E+02 -0.53926042378E+01  0.19597990413E+02  0.27422095084E+02  0.00000000000E+00 0. -1.
</event>
<event>
 7    1  0.5005325E-012  0.5052887E+02  0.7816164E-02  0.1300439E+00
        -11   -1    0    0    0    0  0.00000000000E+00  0.00000000000E+00  0.45593999997E+02  0.45594000000E+02  0.51100000000E-03 0. -1.
         11   -1    0    0    0    0 -0.00000000000E+00 -0.00000000000E+00 -0.45593999997E+02  0.45594000000E+02  0.51100000000E-03 0.  1.
    9900012    2    1    2    0    0  0.19084576926E+02  0.20615450385E+01  0.35842629254E+02  0.50528866755E+02  0.30000020989E+02 0.  0.
        -12    1    1    2    0    0 -0.19084576926E+02 -0.20615450385E+01 -0.35842629254E+02  0.40659133245E+02  0.00000000000E+00 0.  1.
         11    1    3    3    0    0  0.16673818536E+02 -0.50018721618E+01  0.12147070932E+02  0.21227017742E+02  0.51100000000E-03 0. -1.
        -11    1    3    3    0    0 -0.50555223451E+01  0.19342981581E+01  0.19644170806E+01  0.57583635066E+01  0.51100000000E-03 0.  1.
        -12    1    3    3    0    0  0.74662807344E+01  0.51291190423E+01  0.21731141241E+02  0.23543485507E+02  0.00000000000E+00 0.  1.
</event>
<event>
 7    1  0.5005325E-012  0.5052886E+02  0.7816164E-02  0.1300439E+00
        -11   -1    0    0    0    0  0.00000000000E+00  0.00000000000E+00  0.45593999997E+02  0.45594000000E+02  0.51100000000E-03 0. -1.
         11   -1    0    0    0    0 -0.00000000000E+00 -0.00000000000E+00 -0.45593999997E+02  0.45594000000E+02  0.51100000000E-03 0.  1.
    9900012    2    1    2    0    0  0.22763883842E+02  0.21258923965E+02  0.26134837538E+02  0.50528856024E+02  0.29999988369E+02 0.  0.
        -12    1    1    2    0    0 -0.22763883842E+02 -0.21258923965E+02 -0.26134837538E+02  0.40659143976E+02  0.00000000000E+00 0.  1.
         11    1    3    3    0    0  0.61216482887E+00 -0.23780151472E+01  0.69667322128E+01  0.73868166218E+01  0.51100000000E-03 0. -1.
        -11    1    3    3    0    0  0.53377371234E+01 -0.20578456716E+01  0.92440842298E+01  0.10871028466E+02  0.51100000000E-03 0.  1.
         12    1    3    3    0    0  0.16813981890E+02  0.25694784784E+02  0.99240210958E+01  0.32271010936E+02  0.00000000000E+00 0. -1.
</event>
<event>
 7    1  0.5005325E-012  0.5052886E+02  0.7816164E-02  0.1300439E+00
        -11   -1    0    0    0    0  0.00000000000E+00  0.00000000000E+00  0.45593999997E+02  0.45594000000E+02  0.51100000000E-03 0. -1.
         11   -1    0    0    0    0 -0.00000000000E+00 -0.00000000000E+00 -0.45593999997E+02  0.45594000000E+02  0.51100000000E-03 0.  1.
    9900012    2    1    2    0    0  0.20624851279E+01  0.62099535580E+01 -0.40129146167E+02  0.50528859082E+02  0.29999997665E+02 0.  0.
         12    1    1    2    0    0 -0.20624851279E+01 -0.62099535580E+01  0.40129146167E+02  0.40659140918E+02  0.00000000000E+00 0. -1.
         11    1    3    3    0    0 -0.68198781485E+01  0.29838312052E+00 -0.28621613932E+01  0.74021441859E+01  0.51100000000E-03 0. -1.
        -11    1    3    3    0    0  0.14722866208E+01 -0.66284614573E+01 -0.84708320037E+01  0.10856294224E+02  0.51100000000E-03 0.  1.
         12    1    3    3    0    0  0.74100766556E+01  0.12540031895E+02 -0.28796152770E+02  0.32270420672E+02  0.00000000000E+00 0. -1.
</event>
<event>
 7    1  0.5005325E-012  0.5052886E+02  0.7816164E-02  0.1300439E+00
        -11   -1    0    0    0    0  0.00000000000E+00  0.00000000000E+00  0.45593999997E+02  0.45594000000E+02  0.51100000000E-03 0. -1.
         11   -1    0    0    0    0 -0.00000000000E+00 -0.00000000000E+00 -0.45593999997E+02  0.45594000000E+02  0.51100000000E-03 0.  1.
    9900012    2    1    2    0    0 -0.13358654153E+02  0.47718548661E+01 -0.38104352502E+02  0.50528856880E+02  0.29999990974E+02 0.  0.
         12    1    1    2    0    0  0.13358654153E+02 -0.47718548661E+01  0.38104352502E+02  0.40659143120E+02  0.00000000000E+00 0. -1.
         11    1    3    3    0    0 -0.44605391984E+01  0.85070160774E-01  0.72111886895E+00  0.45192543143E+01  0.51100000000E-03 0. -1.
        -11    1    3    3    0    0 -0.93688566866E+01  0.78569692448E+01 -0.71336617204E+01  0.14156149587E+02  0.51100000000E-03 0.  1.
        -12    1    3    3    0    0  0.47074173185E+00 -0.31701845394E+01 -0.31691809650E+02  0.31853452979E+02  0.00000000000E+00 0.  1.
</event>
<event>
 7    1  0.5005325E-012  0.5052886E+02  0.7816164E-02  0.1300439E+00
        -11   -1    0    0    0    0  0.00000000000E+00  0.00000000000E+00  0.45593999997E+02  0.45594000000E+02  0.51100000000E-03 0. -1.
         11   -1    0    0    0    0 -0.00000000000E+00 -0.00000000000E+00 -0.45593999997E+02  0.45594000000E+02  0.51100000000E-03 0.  1.
    9900012    2    1    2    0    0  0.94235843048E+00 -0.27647768011E+02 -0.29797289982E+02  0.50528860736E+02  0.30000002694E+02 0.  0.
         12    1    1    2    0    0 -0.94235843048E+00  0.27647768011E+02  0.29797289982E+02  0.40659139264E+02  0.00000000000E+00 0. -1.
         11    1    3    3    0    0  0.50843961496E+00  0.38467159236E+01 -0.10709904334E+02  0.11391127483E+02  0.51100000000E-03 0. -1.
        -11    1    3    3    0    0 -0.54474686015E+01 -0.64535549493E+01 -0.46816722064E+01  0.96561555786E+01  0.51100000000E-03 0.  1.
        -12    1    3    3    0    0  0.58813874170E+01 -0.25040928985E+02 -0.14405713442E+02  0.29481577674E+02  0.00000000000E+00 0.  1.
</event>
<event>
 7    1  0.5005325E-012  0.5052886E+02  0.7816164E-02  0.1300439E+00
        -11   -1    0    0    0    0  0.00000000000E+00  0.00000000000E+00  0.45593999997E+02  0.45594000000E+02  0.51100000000E-03 0. -1.
         11   -1    0    0    0    0 -0.00000000000E+00 -0.00000000000E+00 -0.45593999997E+02  0.45594000000E+02  0.51100000000E-03 0.  1.
    9900012    2    1    2    0    0 -0.10897737726E+02  0.24927767703E+02 -0.30216077313E+02  0.50528860580E+02  0.30000002219E+02 0.  0.
         12    1    1    2    0    0  0.10897737726E+02 -0.24927767703E+02  0.30216077313E+02  0.40659139420E+02  0.00000000000E+00 0. -1.
         11    1    3    3    0    0 -0.91443796878E+01  0.19686954666E+01 -0.17974836429E+02  0.20263025110E+02  0.51100000000E-03 0. -1.
        -11    1    3    3    0    0 -0.13181650383E+01  0.10010153503E+02 -0.13925501282E+02  0.17200590642E+02  0.51100000000E-03 0.  1.
         12    1    3    3    0    0 -0.43519300005E+00  0.12948918734E+02  0.16842603981E+01  0.13065244828E+02  0.00000000000E+00 0. -1.
</event>
<event>
 7    1  0.5005325E-012  0.5052886E+02  0.7816164E-02  0.1300439E+00
        -11   -1    0    0    0    0  0.00000000000E+00  0.00000000000E+00  0.45593999997E+02  0.45594000000E+02  0.51100000000E-03 0. -1.
         11   -1    0    0    0    0 -0.00000000000E+00 -0.00000000000E+00 -0.45593999997E+02  0.45594000000E+02  0.51100000000E-03 0.  1.
    9900012    2    1    2    0    0 -0.30387480831E+02 -0.19375921581E+02  0.18823925825E+02  0.50528861890E+02  0.30000006202E+02 0.  0.
        -12    1    1    2    0    0  0.30387480831E+02  0.19375921581E+02 -0.18823925825E+02  0.40659138110E+02  0.00000000000E+00 0.  1.
         11    1    3    3    0    0 -0.44265928390E+01 -0.55112152372E+01  0.86057762511E+00  0.71210119831E+01  0.51100000000E-03 0.  1.
        -11    1    3    3    0    0 -0.17051751578E+02 -0.99658221616E+01  0.24664473771E+02  0.31597723176E+02  0.51100000000E-03 0. -1.
         12    1    3    3    0    0 -0.89091364134E+01 -0.38988841818E+01 -0.67011255707E+01  0.11810126731E+02  0.00000000000E+00 0. -1.
</event>
<event>
 7    1  0.5005325E-012  0.5052885E+02  0.7816164E-02  0.1300439E+00
        -11   -1    0    0    0    0  0.00000000000E+00  0.00000000000E+00  0.45593999997E+02  0.45594000000E+02  0.51100000000E-03 0. -1.
         11   -1    0    0    0    0 -0.00000000000E+00 -0.00000000000E+00 -0.45593999997E+02  0.45594000000E+02  0.51100000000E-03 0.  1.
    9900012    2    1    2    0    0  0.95818704889E+01 -0.12120460726E+01 -0.39495377952E+02  0.50528853706E+02  0.29999981325E+02 0.  0.
         12    1    1    2    0    0 -0.95818704889E+01  0.12120460726E+01  0.39495377952E+02  0.40659146294E+02  0.00000000000E+00 0. -1.
         11    1    3    3    0    0  0.14383857576E+01 -0.69196583801E+01 -0.46399408399E+01  0.84545654498E+01  0.51100000000E-03 0. -1.
        -11    1    3    3    0    0 -0.71890066922E+01  0.29719687695E+01 -0.90574684895E+01  0.11939520563E+02  0.51100000000E-03 0.  1.
         12    1    3    3    0    0  0.15332491423E+02  0.27356435380E+01 -0.25797968623E+02  0.30134767693E+02  0.00000000000E+00 0. -1.
</event>
<event>
 7    1  0.5005325E-012  0.5052873E+02  0.7816164E-02  0.1300439E+00
        -11   -1    0    0    0    0  0.00000000000E+00  0.00000000000E+00  0.45593999997E+02  0.45594000000E+02  0.51100000000E-03 0.  1.
         11   -1    0    0    0    0 -0.00000000000E+00 -0.00000000000E+00 -0.45593999997E+02  0.45594000000E+02  0.51100000000E-03 0. -1.
    9900012    2    1    2    0    0 -0.34090939633E+02 -0.20504240526E+02  0.84000197841E+01  0.50528728278E+02  0.29999600071E+02 0.  0.
        -12    1    1    2    0    0  0.34090939633E+02  0.20504240526E+02 -0.84000197841E+01  0.40659271722E+02  0.00000000000E+00 0.  1.
         11    1    3    3    0    0 -0.19006521786E+02 -0.45071240728E+01 -0.41316619314E+01  0.19965787447E+02  0.51100000000E-03 0. -1.
        -11    1    3    3    0    0 -0.55402564029E+01 -0.11123774470E+02 -0.19168238473E+01  0.12574061134E+02  0.51100000000E-03 0.  1.
         12    1    3    3    0    0 -0.95441614437E+01 -0.48733419838E+01  0.14448505563E+02  0.17988879697E+02  0.00000000000E+00 0. -1.
</event>
<event>
 7    1  0.5005325E-012  0.5052886E+02  0.7816164E-02  0.1300439E+00
        -11   -1    0    0    0    0  0.00000000000E+00  0.00000000000E+00  0.45593999997E+02  0.45594000000E+02  0.51100000000E-03 0. -1.
         11   -1    0    0    0    0 -0.00000000000E+00 -0.00000000000E+00 -0.45593999997E+02  0.45594000000E+02  0.51100000000E-03 0.  1.
    9900012    2    1    2    0    0  0.98804252037E+01  0.38448717348E+01  0.39252509409E+02  0.50528864056E+02  0.30000012784E+02 0.  0.
        -12    1    1    2    0    0 -0.98804252037E+01 -0.38448717348E+01 -0.39252509409E+02  0.40659135944E+02  0.00000000000E+00 0.  1.
         11    1    3    3    0    0 -0.79405301899E+01  0.11594318114E+01  0.62707687384E+01  0.10184244825E+02  0.51100000000E-03 0. -1.
        -11    1    3    3    0    0  0.54534624567E+00  0.52533487893E+01  0.11529496435E+02  0.12681654637E+02  0.51100000000E-03 0.  1.
         12    1    3    3    0    0  0.17275609148E+02 -0.25679088659E+01  0.21452244235E+02  0.27662964593E+02  0.00000000000E+00 0. -1.
</event>
<event>
 7    1  0.5005325E-012  0.5052886E+02  0.7816164E-02  0.1300439E+00
        -11   -1    0    0    0    0  0.00000000000E+00  0.00000000000E+00  0.45593999997E+02  0.45594000000E+02  0.51100000000E-03 0. -1.
         11   -1    0    0    0    0 -0.00000000000E+00 -0.00000000000E+00 -0.45593999997E+02  0.45594000000E+02  0.51100000000E-03 0.  1.
    9900012    2    1    2    0    0  0.61766117270E+01  0.30634194558E+02  0.26010785126E+02  0.50528863862E+02  0.30000012196E+02 0.  0.
        -12    1    1    2    0    0 -0.61766117270E+01 -0.30634194558E+02 -0.26010785126E+02  0.40659136138E+02  0.00000000000E+00 0.  1.
         11    1    3    3    0    0  0.51455790802E+01  0.25863833070E+02  0.10331766127E+02  0.28322433453E+02  0.51100000000E-03 0. -1.
        -11    1    3    3    0    0 -0.28953504041E+01  0.37924965127E+01 -0.11415330065E+01  0.49060352248E+01  0.51100000000E-03 0.  1.
         12    1    3    3    0    0  0.39263830509E+01  0.97786497491E+00  0.16820552005E+02  0.17300395184E+02  0.00000000000E+00 0. -1.
</event>
<event>
 7    1  0.5005325E-012  0.5052883E+02  0.7816164E-02  0.1300439E+00
        -11   -1    0    0    0    0  0.00000000000E+00  0.00000000000E+00  0.45593999997E+02  0.45594000000E+02  0.51100000000E-03 0.  1.
         11   -1    0    0    0    0 -0.00000000000E+00 -0.00000000000E+00 -0.45593999997E+02  0.45594000000E+02  0.51100000000E-03 0. -1.
    9900012    2    1    2    0    0  0.23846117511E+02  0.43956710541E+01  0.32637537121E+02  0.50528830386E+02  0.29999910441E+02 0.  0.
        -12    1    1    2    0    0 -0.23846117511E+02 -0.43956710541E+01 -0.32637537121E+02  0.40659169614E+02  0.00000000000E+00 0.  1.
         11    1    3    3    0    0  0.12590830393E+02  0.24332847597E+01  0.73782759251E+01  0.14794892382E+02  0.51100000000E-03 0. -1.
        -11    1    3    3    0    0  0.15887489111E+02  0.31129946709E+01  0.26267289237E+02  0.30855688782E+02  0.51100000000E-03 0.  1.
        -12    1    3    3    0    0 -0.46322019931E+01 -0.11506083765E+01 -0.10080280410E+01  0.48782492220E+01  0.00000000000E+00 0.  1.
</event>
<event>
 7    1  0.5005325E-012  0.5052886E+02  0.7816164E-02  0.1300439E+00
        -11   -1    0    0    0    0  0.00000000000E+00  0.00000000000E+00  0.45593999997E+02  0.45594000000E+02  0.51100000000E-03 0. -1.
         11   -1    0    0    0    0 -0.00000000000E+00 -0.00000000000E+00 -0.45593999997E+02  0.45594000000E+02  0.51100000000E-03 0.  1.
    9900012    2    1    2    0    0 -0.78409815305E+01  0.29045550808E+02  0.27350332234E+02  0.50528859744E+02  0.29999999677E+02 0.  0.
        -12    1    1    2    0    0  0.78409815305E+01 -0.29045550808E+02 -0.27350332234E+02  0.40659140256E+02  0.00000000000E+00 0.  1.
         11    1    3    3    0    0 -0.13853340268E+02  0.47763150013E+01  0.21922108153E+01  0.14816680131E+02  0.51100000000E-03 0. -1.
        -11    1    3    3    0    0  0.17026634293E+01  0.22911137368E+01  0.19333252345E+01  0.34476095533E+01  0.51100000000E-03 0.  1.
         12    1    3    3    0    0  0.43096953081E+01  0.21978122070E+02  0.23224796184E+02  0.32264570060E+02  0.00000000000E+00 0. -1.
</event>
<event>
 7    1  0.5005325E-012  0.5052886E+02  0.7816164E-02  0.1300439E+00
        -11   -1    0    0    0    0  0.00000000000E+00  0.00000000000E+00  0.45593999997E+02  0.45594000000E+02  0.51100000000E-03 0.  1.
         11   -1    0    0    0    0 -0.00000000000E+00 -0.00000000000E+00 -0.45593999997E+02  0.45594000000E+02  0.51100000000E-03 0. -1.
    9900012    2    1    2    0    0 -0.35072397527E+02 -0.20877602261E+01  0.20462984971E+02  0.50528861237E+02  0.30000004215E+02 0.  0.
        -12    1    1    2    0    0  0.35072397527E+02  0.20877602261E+01 -0.20462984971E+02  0.40659138763E+02  0.00000000000E+00 0.  1.
         11    1    3    3    0    0 -0.51833580772E+01 -0.47489571690E+01 -0.41430334681E+01  0.81599339291E+01  0.51100000000E-03 0. -1.
        -11    1    3    3    0    0 -0.17795652104E+02  0.74761674381E+01  0.71279602247E+01  0.20576348816E+02  0.51100000000E-03 0.  1.
        -12    1    3    3    0    0 -0.12093387345E+02 -0.48149704952E+01  0.17478058215E+02  0.21792578492E+02  0.00000000000E+00 0.  1.
</event>
<event>
 7    1  0.5005325E-012  0.5052887E+02  0.7816164E-02  0.1300439E+00
        -11   -1    0    0    0    0  0.00000000000E+00  0.00000000000E+00  0.45593999997E+02  0.45594000000E+02  0.51100000000E-03 0. -1.
         11   -1    0    0    0    0 -0.00000000000E+00 -0.00000000000E+00 -0.45593999997E+02  0.45594000000E+02  0.51100000000E-03 0.  1.
    9900012    2    1    2    0    0 -0.37857354624E+01  0.79764434022E+01 -0.39688906483E+02  0.50528871380E+02  0.30000035047E+02 0.  0.
         12    1    1    2    0    0  0.37857354624E+01 -0.79764434022E+01  0.39688906483E+02  0.40659128620E+02  0.00000000000E+00 0. -1.
         11    1    3    3    0    0  0.23798898708E+01 -0.56100510269E+01 -0.15553410918E+02  0.16704644258E+02  0.51100000000E-03 0. -1.
        -11    1    3    3    0    0 -0.32719916373E+01  0.13690997596E+02 -0.26552150526E+02  0.30052721046E+02  0.51100000000E-03 0.  1.
         12    1    3    3    0    0 -0.28936336959E+01 -0.10450316698E+00  0.24166549618E+01  0.37715060762E+01  0.00000000000E+00 0. -1.
</event>
<event>
 7    1  0.5005325E-012  0.5052887E+02  0.7816164E-02  0.1300439E+00
        -11   -1    0    0    0    0  0.00000000000E+00  0.00000000000E+00  0.45593999997E+02  0.45594000000E+02  0.51100000000E-03 0. -1.
         11   -1    0    0    0    0 -0.00000000000E+00 -0.00000000000E+00 -0.45593999997E+02  0.45594000000E+02  0.51100000000E-03 0.  1.
    9900012    2    1    2    0    0 -0.19991668916E+02 -0.18867352291E+02 -0.29958654273E+02  0.50528870959E+02  0.30000033768E+02 0.  0.
         12    1    1    2    0    0  0.19991668916E+02  0.18867352291E+02  0.29958654273E+02  0.40659129041E+02  0.00000000000E+00 0. -1.
         11    1    3    3    0    0 -0.15800939029E+02 -0.14096829693E+01 -0.45517760058E+01  0.16503803966E+02  0.51100000000E-03 0. -1.
        -11    1    3    3    0    0 -0.72333082520E+01 -0.36530633350E+01 -0.12416124454E+02  0.14826522408E+02  0.51100000000E-03 0.  1.
         12    1    3    3    0    0  0.30425783657E+01 -0.13804605986E+02 -0.12990753813E+02  0.19198544585E+02  0.00000000000E+00 0. -1.
</event>
<event>
 7    1  0.5005325E-012  0.5052886E+02  0.7816164E-02  0.1300439E+00
        -11   -1    0    0    0    0  0.00000000000E+00  0.00000000000E+00  0.45593999997E+02  0.45594000000E+02  0.51100000000E-03 0. -1.
         11   -1    0    0    0    0 -0.00000000000E+00 -0.00000000000E+00 -0.45593999997E+02  0.45594000000E+02  0.51100000000E-03 0.  1.
    9900012    2    1    2    0    0  0.35265712650E+02  0.19458920299E+02  0.55538723413E+01  0.50528861225E+02  0.30000004179E+02 0.  0.
        -12    1    1    2    0    0 -0.35265712650E+02 -0.19458920299E+02 -0.55538723413E+01  0.40659138775E+02  0.00000000000E+00 0.  1.
         11    1    3    3    0    0  0.47963205410E+01  0.24452164456E+01  0.22948367114E+01  0.58523542264E+01  0.51100000000E-03 0. -1.
        -11    1    3    3    0    0  0.34091181426E+02  0.10611984670E+02  0.70619075584E+01  0.36396337842E+02  0.51100000000E-03 0.  1.
        -12    1    3    3    0    0 -0.36217893169E+01  0.64017191832E+01 -0.38028719286E+01  0.82801691566E+01  0.00000000000E+00 0.  1.
</event>
<event>
 7    1  0.5005325E-012  0.5052885E+02  0.7816164E-02  0.1300439E+00
        -11   -1    0    0    0    0  0.00000000000E+00  0.00000000000E+00  0.45593999997E+02  0.45594000000E+02  0.51100000000E-03 0.  1.
         11   -1    0    0    0    0 -0.00000000000E+00 -0.00000000000E+00 -0.45593999997E+02  0.45594000000E+02  0.51100000000E-03 0. -1.
    9900012    2    1    2    0    0 -0.24178686917E+02  0.18577576110E+02  0.26896671095E+02  0.50528854028E+02  0.29999982305E+02 0.  0.
        -12    1    1    2    0    0  0.24178686917E+02 -0.18577576110E+02 -0.26896671095E+02  0.40659145972E+02  0.00000000000E+00 0.  1.
         11    1    3    3    0    0 -0.19437819594E+01  0.10764165783E+02  0.14815713600E+02  0.18416050691E+02  0.51100000000E-03 0. -1.
        -11    1    3    3    0    0 -0.59654017703E+01  0.92190152501E+01 -0.12240264878E+01  0.11048733030E+02  0.51100000000E-03 0.  1.
        -12    1    3    3    0    0 -0.16269503187E+02 -0.14056049228E+01  0.13304983983E+02  0.21064070308E+02  0.00000000000E+00 0.  1.
</event>
<event>
 7    1  0.5005325E-012  0.5052886E+02  0.7816164E-02  0.1300439E+00
        -11   -1    0    0    0    0  0.00000000000E+00  0.00000000000E+00  0.45593999997E+02  0.45594000000E+02  0.51100000000E-03 0. -1.
         11   -1    0    0    0    0 -0.00000000000E+00 -0.00000000000E+00 -0.45593999997E+02  0.45594000000E+02  0.51100000000E-03 0.  1.
    9900012    2    1    2    0    0 -0.39491315160E+01 -0.23506126975E+02  0.32939824839E+02  0.50528859508E+02  0.29999998960E+02 0.  0.
        -12    1    1    2    0    0  0.39491315160E+01  0.23506126975E+02 -0.32939824839E+02  0.40659140492E+02  0.00000000000E+00 0.  1.
         11    1    3    3    0    0 -0.64196922232E+00  0.18289890643E+01  0.64944576574E+00  0.20442860718E+01  0.51100000000E-03 0. -1.
        -11    1    3    3    0    0 -0.32413320262E+01 -0.15034660822E+02  0.85418649183E+00  0.15403794797E+02  0.51100000000E-03 0.  1.
         12    1    3    3    0    0 -0.65830267438E-01 -0.10300455217E+02  0.31436192582E+02  0.33080778639E+02  0.00000000000E+00 0. -1.
</event>
<event>
 7    1  0.5005325E-012  0.5052887E+02  0.7816164E-02  0.1300439E+00
        -11   -1    0    0    0    0  0.00000000000E+00  0.00000000000E+00  0.45593999997E+02  0.45594000000E+02  0.51100000000E-03 0. -1.
         11   -1    0    0    0    0 -0.00000000000E+00 -0.00000000000E+00 -0.45593999997E+02  0.45594000000E+02  0.51100000000E-03 0.  1.
    9900012    2    1    2    0    0 -0.69249556039E+01  0.31336385102E+02  0.24964798293E+02  0.50528865784E+02  0.30000018038E+02 0.  0.
        -12    1    1    2    0    0  0.69249556039E+01 -0.31336385102E+02 -0.24964798293E+02  0.40659134216E+02  0.00000000000E+00 0.  1.
         11    1    3    3    0    0 -0.13537763741E+00  0.21057788465E+02  0.21514511715E+02  0.30105198833E+02  0.51100000000E-03 0. -1.
        -11    1    3    3    0    0  0.12965305985E+01  0.78520467364E+01 -0.42280958500E+01  0.90117936239E+01  0.51100000000E-03 0.  1.
         12    1    3    3    0    0 -0.80861085649E+01  0.24265499001E+01  0.76783824276E+01  0.11411873328E+02  0.00000000000E+00 0. -1.
</event>
<event>
 7    1  0.5005325E-012  0.5052885E+02  0.7816164E-02  0.1300439E+00
        -11   -1    0    0    0    0  0.00000000000E+00  0.00000000000E+00  0.45593999997E+02  0.45594000000E+02  0.51100000000E-03 0. -1.
         11   -1    0    0    0    0 -0.00000000000E+00 -0.00000000000E+00 -0.45593999997E+02  0.45594000000E+02  0.51100000000E-03 0.  1.
    9900012    2    1    2    0    0  0.70899017575E+01 -0.17494144416E+02 -0.36011865166E+02  0.50528853077E+02  0.29999979413E+02 0.  0.
         12    1    1    2    0    0 -0.70899017575E+01  0.17494144416E+02  0.36011865166E+02  0.40659146923E+02  0.00000000000E+00 0. -1.
         11    1    3    3    0    0 -0.16263730075E+01 -0.34796365543E+00 -0.32110145749E+01  0.36161834476E+01  0.51100000000E-03 0. -1.
        -11    1    3    3    0    0 -0.38102626341E+01 -0.56589080211E+01 -0.28603533983E+02  0.29405841221E+02  0.51100000000E-03 0.  1.
         12    1    3    3    0    0  0.12526537399E+02 -0.11487272740E+02 -0.41973166076E+01  0.17506828408E+02  0.00000000000E+00 0. -1.
</event>
<event>
 7    1  0.5005325E-012  0.5052886E+02  0.7816164E-02  0.1300439E+00
        -11   -1    0    0    0    0  0.00000000000E+00  0.00000000000E+00  0.45593999997E+02  0.45594000000E+02  0.51100000000E-03 0. -1.
         11   -1    0    0    0    0 -0.00000000000E+00 -0.00000000000E+00 -0.45593999997E+02  0.45594000000E+02  0.51100000000E-03 0.  1.
    9900012    2    1    2    0    0  0.13428075121E+02 -0.70803840963E+01 -0.37718966112E+02  0.50528862713E+02  0.30000008702E+02 0.  0.
         12    1    1    2    0    0 -0.13428075121E+02  0.70803840963E+01  0.37718966112E+02  0.40659137287E+02  0.00000000000E+00 0. -1.
         11    1    3    3    0    0 -0.21262368665E+01 -0.46637749011E+01  0.24849382900E-01  0.51256509142E+01  0.51100000000E-03 0. -1.
        -11    1    3    3    0    0 -0.16173241615E+01  0.55518478384E+01 -0.13167799488E+02  0.14381574861E+02  0.51100000000E-03 0.  1.
        -12    1    3    3    0    0  0.17171636149E+02 -0.79684570336E+01 -0.24576016006E+02  0.31021636937E+02  0.00000000000E+00 0.  1.
</event>
<event>
 7    1  0.5005325E-012  0.5052888E+02  0.7816164E-02  0.1300439E+00
        -11   -1    0    0    0    0  0.00000000000E+00  0.00000000000E+00  0.45593999997E+02  0.45594000000E+02  0.51100000000E-03 0.  1.
         11   -1    0    0    0    0 -0.00000000000E+00 -0.00000000000E+00 -0.45593999997E+02  0.45594000000E+02  0.51100000000E-03 0. -1.
    9900012    2    1    2    0    0  0.59336768332E+01  0.24386150439E+02  0.31988614091E+02  0.50528876971E+02  0.30000052041E+02 0.  0.
        -12    1    1    2    0    0 -0.59336768332E+01 -0.24386150439E+02 -0.31988614091E+02  0.40659123029E+02  0.00000000000E+00 0.  1.
         11    1    3    3    0    0  0.27611878138E+01  0.25150223541E+01 -0.19397693654E+01  0.42085865842E+01  0.51100000000E-03 0. -1.
        -11    1    3    3    0    0 -0.42799989085E+01  0.40899464909E+01 -0.13911790494E+01  0.60812360884E+01  0.51100000000E-03 0.  1.
        -12    1    3    3    0    0  0.74524879278E+01  0.17781181594E+02  0.35319562506E+02  0.40239054298E+02  0.00000000000E+00 0.  1.
</event>
<event>
 7    1  0.5005325E-012  0.5052883E+02  0.7816164E-02  0.1300439E+00
        -11   -1    0    0    0    0  0.00000000000E+00  0.00000000000E+00  0.45593999997E+02  0.45594000000E+02  0.51100000000E-03 0. -1.
         11   -1    0    0    0    0 -0.00000000000E+00 -0.00000000000E+00 -0.45593999997E+02  0.45594000000E+02  0.51100000000E-03 0.  1.
    9900012    2    1    2    0    0  0.95680915826E+01  0.18380526140E+02 -0.34982504471E+02  0.50528834530E+02  0.29999923036E+02 0.  0.
         12    1    1    2    0    0 -0.95680915826E+01 -0.18380526140E+02  0.34982504471E+02  0.40659165470E+02  0.00000000000E+00 0. -1.
         11    1    3    3    0    0  0.17631423019E+01  0.32343602921E+01 -0.18073673698E+02  0.18445255175E+02  0.51100000000E-03 0. -1.
        -11    1    3    3    0    0 -0.69326591634E+01  0.69148332443E+01 -0.95200850245E+01  0.13656818847E+02  0.51100000000E-03 0.  1.
         12    1    3    3    0    0  0.14737608444E+02  0.82313326035E+01 -0.73887457478E+01  0.18426760508E+02  0.00000000000E+00 0. -1.
</event>
<event>
 7    1  0.5005325E-012  0.5052886E+02  0.7816164E-02  0.1300439E+00
        -11   -1    0    0    0    0  0.00000000000E+00  0.00000000000E+00  0.45593999997E+02  0.45594000000E+02  0.51100000000E-03 0. -1.
         11   -1    0    0    0    0 -0.00000000000E+00 -0.00000000000E+00 -0.45593999997E+02  0.45594000000E+02  0.51100000000E-03 0.  1.
    9900012    2    1    2    0    0  0.26768223512E+02  0.64018372166E+01  0.29927313635E+02  0.50528863129E+02  0.30000009966E+02 0.  0.
        -12    1    1    2    0    0 -0.26768223512E+02 -0.64018372166E+01 -0.29927313635E+02  0.40659136871E+02  0.00000000000E+00 0.  1.
         11    1    3    3    0    0  0.81630204401E+01  0.13260790471E+02  0.18712766770E+02  0.24344426613E+02  0.51100000000E-03 0. -1.
        -11    1    3    3    0    0  0.74300317381E+01 -0.94346499657E+00 -0.21442133090E+01  0.77905807746E+01  0.51100000000E-03 0.  1.
        -12    1    3    3    0    0  0.11175171334E+02 -0.59154882581E+01  0.13358760173E+02  0.18393855741E+02  0.00000000000E+00 0.  1.
</event>
<event>
 7    1  0.5005325E-012  0.5052883E+02  0.7816164E-02  0.1300439E+00
        -11   -1    0    0    0    0  0.00000000000E+00  0.00000000000E+00  0.45593999997E+02  0.45594000000E+02  0.51100000000E-03 0. -1.
         11   -1    0    0    0    0 -0.00000000000E+00 -0.00000000000E+00 -0.45593999997E+02  0.45594000000E+02  0.51100000000E-03 0.  1.
    9900012    2    1    2    0    0  0.10973713995E+02  0.36696937309E+02  0.13641121537E+02  0.50528833709E+02  0.29999920541E+02 0.  0.
        -12    1    1    2    0    0 -0.10973713995E+02 -0.36696937309E+02 -0.13641121537E+02  0.40659166291E+02  0.00000000000E+00 0.  1.
         11    1    3    3    0    0  0.16891379551E+02  0.12774647583E+02  0.49869608976E+01  0.21757299999E+02  0.51100000000E-03 0. -1.
        -11    1    3    3    0    0  0.29442483231E+01  0.12561260545E+02  0.26999685007E+01  0.13181187156E+02  0.51100000000E-03 0.  1.
         12    1    3    3    0    0 -0.88619138790E+01  0.11361029181E+02  0.59541921390E+01  0.15590346554E+02  0.00000000000E+00 0. -1.
</event>
<event>
 7    1  0.5005325E-012  0.5052885E+02  0.7816164E-02  0.1300439E+00
        -11   -1    0    0    0    0  0.00000000000E+00  0.00000000000E+00  0.45593999997E+02  0.45594000000E+02  0.51100000000E-03 0. -1.
         11   -1    0    0    0    0 -0.00000000000E+00 -0.00000000000E+00 -0.45593999997E+02  0.45594000000E+02  0.51100000000E-03 0.  1.
    9900012    2    1    2    0    0  0.20423268718E+02  0.27449466566E+02  0.21967770899E+02  0.50528854926E+02  0.29999985034E+02 0.  0.
        -12    1    1    2    0    0 -0.20423268718E+02 -0.27449466566E+02 -0.21967770899E+02  0.40659145074E+02  0.00000000000E+00 0.  1.
         11    1    3    3    0    0  0.78152395792E-02 -0.27058656051E+01 -0.28697397071E+01  0.39442586120E+01  0.51100000000E-03 0.  1.
        -11    1    3    3    0    0 -0.31580475369E+00  0.41401999899E+01  0.86390589989E+01  0.95851097670E+01  0.51100000000E-03 0. -1.
        -12    1    3    3    0    0  0.20731258232E+02  0.26015132181E+02  0.16198451607E+02  0.36999486547E+02  0.00000000000E+00 0.  1.
</event>
<event>
 7    1  0.5005325E-012  0.5052886E+02  0.7816164E-02  0.1300439E+00
        -11   -1    0    0    0    0  0.00000000000E+00  0.00000000000E+00  0.45593999997E+02  0.45594000000E+02  0.51100000000E-03 0. -1.
         11   -1    0    0    0    0 -0.00000000000E+00 -0.00000000000E+00 -0.45593999997E+02  0.45594000000E+02  0.51100000000E-03 0.  1.
    9900012    2    1    2    0    0  0.24252151609E+02  0.14795318417E+02  0.29087750408E+02  0.50528861685E+02  0.30000005579E+02 0.  0.
        -12    1    1    2    0    0 -0.24252151609E+02 -0.14795318417E+02 -0.29087750408E+02  0.40659138315E+02  0.00000000000E+00 0.  1.
         11    1    3    3    0    0 -0.32221164212E+01  0.36279091652E+01  0.92727472625E+01  0.10465543521E+02  0.51100000000E-03 0. -1.
        -11    1    3    3    0    0  0.38668856626E+01  0.34004467690E+01 -0.33057990051E+01  0.61191625473E+01  0.51100000000E-03 0.  1.
         12    1    3    3    0    0  0.23607382367E+02  0.77669624823E+01  0.23120802151E+02  0.33944155617E+02  0.00000000000E+00 0. -1.
</event>
<event>
 7    1  0.5005325E-012  0.5052886E+02  0.7816164E-02  0.1300439E+00
        -11   -1    0    0    0    0  0.00000000000E+00  0.00000000000E+00  0.45593999997E+02  0.45594000000E+02  0.51100000000E-03 0. -1.
         11   -1    0    0    0    0 -0.00000000000E+00 -0.00000000000E+00 -0.45593999997E+02  0.45594000000E+02  0.51100000000E-03 0.  1.
    9900012    2    1    2    0    0  0.30531468724E+02 -0.12435706578E+02 -0.23798076827E+02  0.50528857839E+02  0.29999993889E+02 0.  0.
         12    1    1    2    0    0 -0.30531468724E+02  0.12435706578E+02  0.23798076827E+02  0.40659142161E+02  0.00000000000E+00 0. -1.
         11    1    3    3    0    0  0.15389519852E+02 -0.12579384010E+02 -0.87758593982E+01  0.21727722655E+02  0.51100000000E-03 0.  1.
        -11    1    3    3    0    0  0.34069534929E+01 -0.26814105648E+00  0.47221045432E+01  0.58290225001E+01  0.51100000000E-03 0. -1.
         12    1    3    3    0    0  0.11734995380E+02  0.41181848900E+00 -0.19744321972E+02  0.22972112684E+02  0.00000000000E+00 0. -1.
</event>
<event>
 7    1  0.5005325E-012  0.5052887E+02  0.7816164E-02  0.1300439E+00
        -11   -1    0    0    0    0  0.00000000000E+00  0.00000000000E+00  0.45593999997E+02  0.45594000000E+02  0.51100000000E-03 0. -1.
         11   -1    0    0    0    0 -0.00000000000E+00 -0.00000000000E+00 -0.45593999997E+02  0.45594000000E+02  0.51100000000E-03 0.  1.
    9900012    2    1    2    0    0 -0.78902541201E+01 -0.21983912165E+02  0.33280873238E+02  0.50528867845E+02  0.30000024300E+02 0.  0.
        -12    1    1    2    0    0  0.78902541201E+01  0.21983912165E+02 -0.33280873238E+02  0.40659132155E+02  0.00000000000E+00 0.  1.
         11    1    3    3    0    0  0.57063734262E+01 -0.13678707661E+01  0.15375617912E+01  0.60661243504E+01  0.51100000000E-03 0. -1.
        -11    1    3    3    0    0 -0.14016256641E+02 -0.49756088685E+01  0.19878469055E+02  0.24826712752E+02  0.51100000000E-03 0.  1.
         12    1    3    3    0    0  0.41962909506E+00 -0.15640432531E+02  0.11864842392E+02  0.19636030742E+02  0.00000000000E+00 0. -1.
</event>
<event>
 7    1  0.5005325E-012  0.5052886E+02  0.7816164E-02  0.1300439E+00
        -11   -1    0    0    0    0  0.00000000000E+00  0.00000000000E+00  0.45593999997E+02  0.45594000000E+02  0.51100000000E-03 0. -1.
         11   -1    0    0    0    0 -0.00000000000E+00 -0.00000000000E+00 -0.45593999997E+02  0.45594000000E+02  0.51100000000E-03 0.  1.
    9900012    2    1    2    0    0 -0.17120049827E+02 -0.17805862040E+02  0.32295839077E+02  0.50528855263E+02  0.29999986057E+02 0.  0.
        -12    1    1    2    0    0  0.17120049827E+02  0.17805862040E+02 -0.32295839077E+02  0.40659144737E+02  0.00000000000E+00 0.  1.
         11    1    3    3    0    0 -0.10256067525E+02 -0.11070504505E+02  0.17909679740E+02  0.23420068739E+02  0.51100000000E-03 0. -1.
        -11    1    3    3    0    0  0.56868653483E+01 -0.77763711292E+01  0.97000506926E+01  0.13671260700E+02  0.51100000000E-03 0.  1.
         12    1    3    3    0    0 -0.12550847650E+02  0.10410135949E+01  0.46861086444E+01  0.13437525824E+02  0.00000000000E+00 0. -1.
</event>
<event>
 7    1  0.5005325E-012  0.5052886E+02  0.7816164E-02  0.1300439E+00
        -11   -1    0    0    0    0  0.00000000000E+00  0.00000000000E+00  0.45593999997E+02  0.45594000000E+02  0.51100000000E-03 0. -1.
         11   -1    0    0    0    0 -0.00000000000E+00 -0.00000000000E+00 -0.45593999997E+02  0.45594000000E+02  0.51100000000E-03 0.  1.
    9900012    2    1    2    0    0 -0.17506399531E+02 -0.25031532690E+02  0.26834934020E+02  0.50528864038E+02  0.30000012730E+02 0.  0.
        -12    1    1    2    0    0  0.17506399531E+02  0.25031532690E+02 -0.26834934020E+02  0.40659135962E+02  0.00000000000E+00 0.  1.
         11    1    3    3    0    0 -0.15805723652E+02 -0.21138646497E+02  0.14622382860E+02  0.30174117330E+02  0.51100000000E-03 0. -1.
        -11    1    3    3    0    0 -0.60739448573E+01 -0.17357965688E+01 -0.88509551583E+00  0.63788078973E+01  0.51100000000E-03 0.  1.
         12    1    3    3    0    0  0.43732689785E+01 -0.21570896245E+01  0.13097646675E+02  0.13975938810E+02  0.00000000000E+00 0. -1.
</event>
<event>
 7    1  0.5005325E-012  0.5052886E+02  0.7816164E-02  0.1300439E+00
        -11   -1    0    0    0    0  0.00000000000E+00  0.00000000000E+00  0.45593999997E+02  0.45594000000E+02  0.51100000000E-03 0. -1.
         11   -1    0    0    0    0 -0.00000000000E+00 -0.00000000000E+00 -0.45593999997E+02  0.45594000000E+02  0.51100000000E-03 0.  1.
    9900012    2    1    2    0    0 -0.12947157286E+02 -0.33669123459E+02 -0.18759720899E+02  0.50528857307E+02  0.29999992271E+02 0.  0.
         12    1    1    2    0    0  0.12947157286E+02  0.33669123459E+02  0.18759720899E+02  0.40659142693E+02  0.00000000000E+00 0. -1.
         11    1    3    3    0    0  0.48245909127E+01 -0.10668147357E+02  0.19425979536E+01  0.11868434293E+02  0.51100000000E-03 0. -1.
        -11    1    3    3    0    0 -0.25059274456E+01  0.21012867803E+01 -0.21176849983E+01  0.38961094066E+01  0.51100000000E-03 0.  1.
         12    1    3    3    0    0 -0.15265820753E+02 -0.25102262883E+02 -0.18584633854E+02  0.34764313607E+02  0.00000000000E+00 0. -1.
</event>
<event>
 7    1  0.5005325E-012  0.5052889E+02  0.7816164E-02  0.1300439E+00
        -11   -1    0    0    0    0  0.00000000000E+00  0.00000000000E+00  0.45593999997E+02  0.45594000000E+02  0.51100000000E-03 0. -1.
         11   -1    0    0    0    0 -0.00000000000E+00 -0.00000000000E+00 -0.45593999997E+02  0.45594000000E+02  0.51100000000E-03 0.  1.
    9900012    2    1    2    0    0 -0.19669272846E+01  0.16198697259E+02 -0.37241056892E+02  0.50528893833E+02  0.30000103295E+02 0.  0.
         12    1    1    2    0    0  0.19669272846E+01 -0.16198697259E+02  0.37241056892E+02  0.40659106167E+02  0.00000000000E+00 0. -1.
         11    1    3    3    0    0 -0.30398365689E+01 -0.42122587297E+01 -0.63915130096E+01  0.82362108269E+01  0.51100000000E-03 0. -1.
        -11    1    3    3    0    0  0.79617193280E+01  0.74466141091E+01 -0.23433161784E+02  0.25844808140E+02  0.51100000000E-03 0.  1.
         12    1    3    3    0    0 -0.68888100438E+01  0.12964341880E+02 -0.74163820990E+01  0.16447874867E+02  0.00000000000E+00 0. -1.
</event>
<event>
 7    1  0.5005325E-012  0.5052887E+02  0.7816164E-02  0.1300439E+00
        -11   -1    0    0    0    0  0.00000000000E+00  0.00000000000E+00  0.45593999997E+02  0.45594000000E+02  0.51100000000E-03 0. -1.
         11   -1    0    0    0    0 -0.00000000000E+00 -0.00000000000E+00 -0.45593999997E+02  0.45594000000E+02  0.51100000000E-03 0.  1.
    9900012    2    1    2    0    0  0.72287673336E+01  0.30950210308E+02 -0.25357329827E+02  0.50528870998E+02  0.30000033885E+02 0.  0.
         12    1    1    2    0    0 -0.72287673336E+01 -0.30950210308E+02  0.25357329827E+02  0.40659129002E+02  0.00000000000E+00 0. -1.
         11    1    3    3    0    0 -0.29705794979E+01  0.18844675345E+01 -0.70269448759E+01  0.78583404731E+01  0.51100000000E-03 0. -1.
        -11    1    3    3    0    0 -0.40619427489E+01  0.17005703478E+02 -0.16264898815E+02  0.23879704006E+02  0.51100000000E-03 0.  1.
        -12    1    3    3    0    0  0.14261289580E+02  0.12060039295E+02 -0.20654861366E+01  0.18790826519E+02  0.00000000000E+00 0.  1.
</event>
<event>
 7    1  0.5005325E-012  0.5052886E+02  0.7816164E-02  0.1300439E+00
        -11   -1    0    0    0    0  0.00000000000E+00  0.00000000000E+00  0.45593999997E+02  0.45594000000E+02  0.51100000000E-03 0. -1.
         11   -1    0    0    0    0 -0.00000000000E+00 -0.00000000000E+00 -0.45593999997E+02  0.45594000000E+02  0.51100000000E-03 0.  1.
    9900012    2    1    2    0    0 -0.24767366558E+02 -0.70294324085E+01  0.31469511857E+02  0.50528861510E+02  0.30000005045E+02 0.  0.
        -12    1    1    2    0    0  0.24767366558E+02  0.70294324085E+01 -0.31469511857E+02  0.40659138490E+02  0.00000000000E+00 0.  1.
         11    1    3    3    0    0 -0.10926421490E+02 -0.77483680790E+01  0.28355807856E+02  0.31360416673E+02  0.51100000000E-03 0. -1.
        -11    1    3    3    0    0 -0.33058130774E+01 -0.52478194493E+01 -0.11965375082E+01  0.63166218301E+01  0.51100000000E-03 0.  1.
        -12    1    3    3    0    0 -0.10535131991E+02  0.59667551198E+01  0.43102415093E+01  0.12851823007E+02  0.00000000000E+00 0.  1.
</event>
<event>
 7    1  0.5005325E-012  0.5052892E+02  0.7816164E-02  0.1300439E+00
        -11   -1    0    0    0    0  0.00000000000E+00  0.00000000000E+00  0.45593999997E+02  0.45594000000E+02  0.51100000000E-03 0. -1.
         11   -1    0    0    0    0 -0.00000000000E+00 -0.00000000000E+00 -0.45593999997E+02  0.45594000000E+02  0.51100000000E-03 0.  1.
    9900012    2    1    2    0    0  0.29582159875E+02  0.65743737366E+01  0.27107829156E+02  0.50528917688E+02  0.30000175805E+02 0.  0.
        -12    1    1    2    0    0 -0.29582159875E+02 -0.65743737366E+01 -0.27107829156E+02  0.40659082312E+02  0.00000000000E+00 0.  1.
         11    1    3    3    0    0  0.22177846024E+02  0.50731151837E+01  0.18537794498E+02  0.29346944935E+02  0.51100000000E-03 0. -1.
        -11    1    3    3    0    0  0.43826336508E+01 -0.25164454779E+01 -0.47557072124E+01  0.69395048031E+01  0.51100000000E-03 0.  1.
         12    1    3    3    0    0  0.30216801999E+01  0.40177040308E+01  0.13325741870E+02  0.14242467950E+02  0.00000000000E+00 0. -1.
</event>
<event>
 7    1  0.5005325E-012  0.5052887E+02  0.7816164E-02  0.1300439E+00
        -11   -1    0    0    0    0  0.00000000000E+00  0.00000000000E+00  0.45593999997E+02  0.45594000000E+02  0.51100000000E-03 0. -1.
         11   -1    0    0    0    0 -0.00000000000E+00 -0.00000000000E+00 -0.45593999997E+02  0.45594000000E+02  0.51100000000E-03 0.  1.
    9900012    2    1    2    0    0 -0.28305335746E+02  0.96250412210E+01 -0.27555968791E+02  0.50528869829E+02  0.30000030333E+02 0.  0.
         12    1    1    2    0    0  0.28305335746E+02 -0.96250412210E+01  0.27555968791E+02  0.40659130171E+02  0.00000000000E+00 0. -1.
         11    1    3    3    0    0 -0.41762417666E+01  0.14438151808E+01 -0.19450832979E+02  0.19946440821E+02  0.51100000000E-03 0. -1.
        -11    1    3    3    0    0  0.66931882244E+00 -0.27959723242E+00  0.22836010167E+01  0.23960375963E+01  0.51100000000E-03 0.  1.
        -12    1    3    3    0    0 -0.24798412802E+02  0.84608232726E+01 -0.10388736829E+02  0.28186391412E+02  0.00000000000E+00 0.  1.
</event>
<event>
 7    1  0.5005325E-012  0.5052887E+02  0.7816164E-02  0.1300439E+00
        -11   -1    0    0    0    0  0.00000000000E+00  0.00000000000E+00  0.45593999997E+02  0.45594000000E+02  0.51100000000E-03 0. -1.
         11   -1    0    0    0    0 -0.00000000000E+00 -0.00000000000E+00 -0.45593999997E+02  0.45594000000E+02  0.51100000000E-03 0.  1.
    9900012    2    1    2    0    0  0.26626265560E+02  0.31401641653E+01 -0.30567082962E+02  0.50528865608E+02  0.30000017503E+02 0.  0.
         12    1    1    2    0    0 -0.26626265560E+02 -0.31401641653E+01  0.30567082962E+02  0.40659134392E+02  0.00000000000E+00 0. -1.
         11    1    3    3    0    0  0.11050362793E+02 -0.11743408893E+02 -0.12036357412E+02  0.20121930084E+02  0.51100000000E-03 0. -1.
        -11    1    3    3    0    0 -0.21324157078E+00  0.21301486477E+01 -0.64299401865E+01  0.67769562704E+01  0.51100000000E-03 0.  1.
         12    1    3    3    0    0  0.15789144337E+02  0.12753424411E+02 -0.12100785364E+02  0.23629979254E+02  0.00000000000E+00 0. -1.
</event>
<event>
 7    1  0.5005325E-012  0.5052887E+02  0.7816164E-02  0.1300439E+00
        -11   -1    0    0    0    0  0.00000000000E+00  0.00000000000E+00  0.45593999997E+02  0.45594000000E+02  0.51100000000E-03 0. -1.
         11   -1    0    0    0    0 -0.00000000000E+00 -0.00000000000E+00 -0.45593999997E+02  0.45594000000E+02  0.51100000000E-03 0.  1.
    9900012    2    1    2    0    0 -0.17065001729E+02 -0.21878853796E+02 -0.29719799876E+02  0.50528867789E+02  0.30000024132E+02 0.  0.
         12    1    1    2    0    0  0.17065001729E+02  0.21878853796E+02  0.29719799876E+02  0.40659132211E+02  0.00000000000E+00 0. -1.
         11    1    3    3    0    0 -0.12250233859E+01  0.52543332089E+01 -0.41227367138E+01  0.67901147294E+01  0.51100000000E-03 0. -1.
        -11    1    3    3    0    0 -0.29692083615E-01 -0.80315299676E+01 -0.14493841994E+02  0.16570389592E+02  0.51100000000E-03 0.  1.
        -12    1    3    3    0    0 -0.15810286259E+02 -0.19101657038E+02 -0.11103221169E+02  0.27168363467E+02  0.00000000000E+00 0.  1.
</event>
<event>
 7    1  0.5005325E-012  0.5052886E+02  0.7816164E-02  0.1300439E+00
        -11   -1    0    0    0    0  0.00000000000E+00  0.00000000000E+00  0.45593999997E+02  0.45594000000E+02  0.51100000000E-03 0. -1.
         11   -1    0    0    0    0 -0.00000000000E+00 -0.00000000000E+00 -0.45593999997E+02  0.45594000000E+02  0.51100000000E-03 0.  1.
    9900012    2    1    2    0    0 -0.35598124551E+02  0.13552025444E+01  0.19598538038E+02  0.50528859100E+02  0.29999997721E+02 0.  0.
        -12    1    1    2    0    0  0.35598124551E+02 -0.13552025444E+01 -0.19598538038E+02  0.40659140900E+02  0.00000000000E+00 0.  1.
         11    1    3    3    0    0 -0.16809154994E+02  0.20402186345E+01  0.15835613254E+02  0.23183546560E+02  0.51100000000E-03 0. -1.
        -11    1    3    3    0    0 -0.19753120469E+02  0.55146515193E+01  0.11255039848E+01  0.20539325917E+02  0.51100000000E-03 0.  1.
        -12    1    3    3    0    0  0.96415091178E+00 -0.61996676095E+01  0.26374207991E+01  0.68059866236E+01  0.00000000000E+00 0.  1.
</event>
<event>
 7    1  0.5005325E-012  0.5052886E+02  0.7816164E-02  0.1300439E+00
        -11   -1    0    0    0    0  0.00000000000E+00  0.00000000000E+00  0.45593999997E+02  0.45594000000E+02  0.51100000000E-03 0. -1.
         11   -1    0    0    0    0 -0.00000000000E+00 -0.00000000000E+00 -0.45593999997E+02  0.45594000000E+02  0.51100000000E-03 0.  1.
    9900012    2    1    2    0    0 -0.43397186654E+01 -0.22646185777E+02  0.33488548203E+02  0.50528858972E+02  0.29999997332E+02 0.  0.
        -12    1    1    2    0    0  0.43397186654E+01  0.22646185777E+02 -0.33488548203E+02  0.40659141028E+02  0.00000000000E+00 0.  1.
         11    1    3    3    0    0 -0.34305008638E+01  0.47619567829E+01  0.53168835762E+01  0.79192057558E+01  0.51100000000E-03 0.  1.
        -11    1    3    3    0    0 -0.83904174308E+01 -0.16092797923E+02  0.13435967648E+02  0.22581020273E+02  0.51100000000E-03 0. -1.
        -12    1    3    3    0    0  0.74811996292E+01 -0.11315344637E+02  0.14735696979E+02  0.20028632944E+02  0.00000000000E+00 0.  1.
</event>
<event>
 7    1  0.5005325E-012  0.5052890E+02  0.7816164E-02  0.1300439E+00
        -11   -1    0    0    0    0  0.00000000000E+00  0.00000000000E+00  0.45593999997E+02  0.45594000000E+02  0.51100000000E-03 0. -1.
         11   -1    0    0    0    0 -0.00000000000E+00 -0.00000000000E+00 -0.45593999997E+02  0.45594000000E+02  0.51100000000E-03 0.  1.
    9900012    2    1    2    0    0 -0.20960063306E+02 -0.16039892896E+02 -0.30928308278E+02  0.50528896827E+02  0.30000112394E+02 0.  0.
         12    1    1    2    0    0  0.20960063306E+02  0.16039892896E+02  0.30928308278E+02  0.40659103173E+02  0.00000000000E+00 0. -1.
         11    1    3    3    0    0 -0.17830974771E+02 -0.14874655872E+02 -0.21575707780E+02  0.31697164148E+02  0.51100000000E-03 0. -1.
        -11    1    3    3    0    0 -0.24396955681E+01 -0.19197008643E+01 -0.13863335923E+02  0.14206669175E+02  0.51100000000E-03 0.  1.
         12    1    3    3    0    0 -0.68939296662E+00  0.75446384008E+00  0.45107354241E+01  0.46250635038E+01  0.00000000000E+00 0. -1.
</event>
<event>
 7    1  0.5005325E-012  0.5052886E+02  0.7816164E-02  0.1300439E+00
        -11   -1    0    0    0    0  0.00000000000E+00  0.00000000000E+00  0.45593999997E+02  0.45594000000E+02  0.51100000000E-03 0. -1.
         11   -1    0    0    0    0 -0.00000000000E+00 -0.00000000000E+00 -0.45593999997E+02  0.45594000000E+02  0.51100000000E-03 0.  1.
    9900012    2    1    2    0    0  0.18797505016E+02 -0.30277885565E+02  0.19572146388E+02  0.50528862487E+02  0.30000008015E+02 0.  0.
        -12    1    1    2    0    0 -0.18797505016E+02  0.30277885565E+02 -0.19572146388E+02  0.40659137513E+02  0.00000000000E+00 0.  1.
         11    1    3    3    0    0  0.64028088382E+01  0.27072873251E+01 -0.11816274900E+01  0.70513551510E+01  0.51100000000E-03 0. -1.
        -11    1    3    3    0    0  0.81975586295E+01 -0.11569554143E+02  0.12938759955E+01  0.14238281705E+02  0.51100000000E-03 0.  1.
         12    1    3    3    0    0  0.41971375480E+01 -0.21415618746E+02  0.19459897883E+02  0.29239225631E+02  0.00000000000E+00 0. -1.
</event>
<event>
 7    1  0.5005325E-012  0.5052886E+02  0.7816164E-02  0.1300439E+00
        -11   -1    0    0    0    0  0.00000000000E+00  0.00000000000E+00  0.45593999997E+02  0.45594000000E+02  0.51100000000E-03 0. -1.
         11   -1    0    0    0    0 -0.00000000000E+00 -0.00000000000E+00 -0.45593999997E+02  0.45594000000E+02  0.51100000000E-03 0.  1.
    9900012    2    1    2    0    0 -0.92856767454E+01 -0.22280039912E+02  0.32719133165E+02  0.50528860238E+02  0.30000001180E+02 0.  0.
        -12    1    1    2    0    0  0.92856767454E+01  0.22280039912E+02 -0.32719133165E+02  0.40659139762E+02  0.00000000000E+00 0.  1.
         11    1    3    3    0    0 -0.12610769113E+02 -0.30456721587E+01  0.10843854504E+02  0.16908482997E+02  0.51100000000E-03 0. -1.
        -11    1    3    3    0    0  0.46925330697E+01  0.61162649031E+00  0.11032863756E+01  0.48591351763E+01  0.51100000000E-03 0.  1.
         12    1    3    3    0    0 -0.13674407025E+01 -0.19845994244E+02  0.20771992285E+02  0.28761242065E+02  0.00000000000E+00 0. -1.
</event>
<event>
 7    1  0.5005325E-012  0.5052886E+02  0.7816164E-02  0.1300439E+00
        -11   -1    0    0    0    0  0.00000000000E+00  0.00000000000E+00  0.45593999997E+02  0.45594000000E+02  0.51100000000E-03 0. -1.
         11   -1    0    0    0    0 -0.00000000000E+00 -0.00000000000E+00 -0.45593999997E+02  0.45594000000E+02  0.51100000000E-03 0.  1.
    9900012    2    1    2    0    0  0.14895243913E+02  0.55448930451E+01 -0.37423942568E+02  0.50528860714E+02  0.30000002627E+02 0.  0.
         12    1    1    2    0    0 -0.14895243913E+02 -0.55448930451E+01  0.37423942568E+02  0.40659139286E+02  0.00000000000E+00 0. -1.
         11    1    3    3    0    0  0.56374704670E+00 -0.34809383085E+01  0.46815095510E-01  0.35266037706E+01  0.51100000000E-03 0. -1.
        -11    1    3    3    0    0  0.95093718252E+01 -0.28777048387E+01 -0.31134157541E+02  0.32680959345E+02  0.51100000000E-03 0.  1.
        -12    1    3    3    0    0  0.48221250411E+01  0.11903536192E+02 -0.63366001228E+01  0.14321297599E+02  0.00000000000E+00 0.  1.
</event>
<event>
 7    1  0.5005325E-012  0.5052886E+02  0.7816164E-02  0.1300439E+00
        -11   -1    0    0    0    0  0.00000000000E+00  0.00000000000E+00  0.45593999997E+02  0.45594000000E+02  0.51100000000E-03 0. -1.
         11   -1    0    0    0    0 -0.00000000000E+00 -0.00000000000E+00 -0.45593999997E+02  0.45594000000E+02  0.51100000000E-03 0.  1.
    9900012    2    1    2    0    0  0.14163155132E+02  0.17271702298E+02  0.33974385237E+02  0.50528861842E+02  0.30000006053E+02 0.  0.
        -12    1    1    2    0    0 -0.14163155132E+02 -0.17271702298E+02 -0.33974385237E+02  0.40659138158E+02  0.00000000000E+00 0.  1.
         11    1    3    3    0    0  0.57918722024E+01  0.14644025291E+02  0.78465527982E+01  0.17594364194E+02  0.51100000000E-03 0. -1.
        -11    1    3    3    0    0  0.63773697465E+01  0.13616209083E+01 -0.17732305264E+00  0.65235189972E+01  0.51100000000E-03 0.  1.
        -12    1    3    3    0    0  0.19939131830E+01  0.12660560991E+01  0.26305155491E+02  0.26410978650E+02  0.00000000000E+00 0.  1.
</event>
<event>
 7    1  0.5005325E-012  0.5052886E+02  0.7816164E-02  0.1300439E+00
        -11   -1    0    0    0    0  0.00000000000E+00  0.00000000000E+00  0.45593999997E+02  0.45594000000E+02  0.51100000000E-03 0.  1.
         11   -1    0    0    0    0 -0.00000000000E+00 -0.00000000000E+00 -0.45593999997E+02  0.45594000000E+02  0.51100000000E-03 0. -1.
    9900012    2    1    2    0    0 -0.30098299470E+02  0.26071713771E+02  0.82172796220E+01  0.50528861122E+02  0.30000003867E+02 0.  0.
        -12    1    1    2    0    0  0.30098299470E+02 -0.26071713771E+02 -0.82172796220E+01  0.40659138878E+02  0.00000000000E+00 0.  1.
         11    1    3    3    0    0 -0.11583329287E+02  0.22610128145E+02  0.65857019116E+01  0.26244292371E+02  0.51100000000E-03 0. -1.
        -11    1    3    3    0    0 -0.45935383417E+01  0.93800643063E+00  0.75993079253E+01  0.89291618736E+01  0.51100000000E-03 0.  1.
         12    1    3    3    0    0 -0.13921431841E+02  0.25235791949E+01 -0.59677302149E+01  0.15355406878E+02  0.00000000000E+00 0. -1.
</event>
<event>
 7    1  0.5005325E-012  0.5052884E+02  0.7816164E-02  0.1300439E+00
        -11   -1    0    0    0    0  0.00000000000E+00  0.00000000000E+00  0.45593999997E+02  0.45594000000E+02  0.51100000000E-03 0.  1.
         11   -1    0    0    0    0 -0.00000000000E+00 -0.00000000000E+00 -0.45593999997E+02  0.45594000000E+02  0.51100000000E-03 0. -1.
    9900012    2    1    2    0    0 -0.15838252094E+02 -0.32328614213E+02  0.18899146372E+02  0.50528840393E+02  0.29999940860E+02 0.  0.
        -12    1    1    2    0    0  0.15838252094E+02  0.32328614213E+02 -0.18899146372E+02  0.40659159607E+02  0.00000000000E+00 0.  1.
         11    1    3    3    0    0 -0.57167797584E+01 -0.12117125563E+00 -0.54478831935E+00  0.57439575080E+01  0.51100000000E-03 0. -1.
        -11    1    3    3    0    0  0.55520178247E+01 -0.15143732954E+01  0.40656602950E+01  0.70461210818E+01  0.51100000000E-03 0.  1.
        -12    1    3    3    0    0 -0.15673490160E+02 -0.30693069662E+02  0.15378274397E+02  0.37738761804E+02  0.00000000000E+00 0.  1.
</event>
<event>
 7    1  0.5005325E-012  0.5052889E+02  0.7816164E-02  0.1300439E+00
        -11   -1    0    0    0    0  0.00000000000E+00  0.00000000000E+00  0.45593999997E+02  0.45594000000E+02  0.51100000000E-03 0. -1.
         11   -1    0    0    0    0 -0.00000000000E+00 -0.00000000000E+00 -0.45593999997E+02  0.45594000000E+02  0.51100000000E-03 0.  1.
    9900012    2    1    2    0    0 -0.38801053590E+02 -0.93416678967E+01 -0.77701417904E+01  0.50528885127E+02  0.30000076833E+02 0.  0.
        -12    1    1    2    0    0  0.38801053590E+02  0.93416678967E+01  0.77701417904E+01  0.40659114873E+02  0.00000000000E+00 0.  1.
         11    1    3    3    0    0 -0.98718500390E+01  0.14747249252E+01  0.28051748229E+01  0.10368087714E+02  0.51100000000E-03 0. -1.
        -11    1    3    3    0    0 -0.28978840700E+02 -0.25699703206E+01 -0.12545266332E+02  0.31682197894E+02  0.51100000000E-03 0.  1.
        -12    1    3    3    0    0  0.49637149356E-01 -0.82464225013E+01  0.19699497190E+01  0.84785995195E+01  0.00000000000E+00 0.  1.
</event>
<event>
 7    1  0.5005325E-012  0.5052886E+02  0.7816164E-02  0.1300439E+00
        -11   -1    0    0    0    0  0.00000000000E+00  0.00000000000E+00  0.45593999997E+02  0.45594000000E+02  0.51100000000E-03 0.  1.
         11   -1    0    0    0    0 -0.00000000000E+00 -0.00000000000E+00 -0.45593999997E+02  0.45594000000E+02  0.51100000000E-03 0. -1.
    9900012    2    1    2    0    0  0.37490618443E+02  0.70883007902E+01  0.14049015737E+02  0.50528864218E+02  0.30000013278E+02 0.  0.
        -12    1    1    2    0    0 -0.37490618443E+02 -0.70883007902E+01 -0.14049015737E+02  0.40659135782E+02  0.00000000000E+00 0.  1.
         11    1    3    3    0    0  0.13827029128E+02 -0.57751566249E+01  0.13979622923E+02  0.20493145827E+02  0.51100000000E-03 0. -1.
        -11    1    3    3    0    0  0.11658220278E+02  0.42108460782E+01  0.63880995555E+01  0.13944645601E+02  0.51100000000E-03 0.  1.
        -12    1    3    3    0    0  0.12005369038E+02  0.86526113369E+01 -0.63187067417E+01  0.16091072791E+02  0.00000000000E+00 0.  1.
</event>
<event>
 7    1  0.5005325E-012  0.5052886E+02  0.7816164E-02  0.1300439E+00
        -11   -1    0    0    0    0  0.00000000000E+00  0.00000000000E+00  0.45593999997E+02  0.45594000000E+02  0.51100000000E-03 0. -1.
         11   -1    0    0    0    0 -0.00000000000E+00 -0.00000000000E+00 -0.45593999997E+02  0.45594000000E+02  0.51100000000E-03 0.  1.
    9900012    2    1    2    0    0  0.51854291932E+01  0.83079272058E+01  0.39462070626E+02  0.50528863899E+02  0.30000012309E+02 0.  0.
        -12    1    1    2    0    0 -0.51854291932E+01 -0.83079272058E+01 -0.39462070626E+02  0.40659136101E+02  0.00000000000E+00 0.  1.
         11    1    3    3    0    0 -0.28634185863E+01 -0.28233116015E+00  0.30144058826E+01  0.41671956962E+01  0.51100000000E-03 0. -1.
        -11    1    3    3    0    0  0.26295419206E+00  0.14582908187E+02  0.32772842017E+02  0.35871848715E+02  0.51100000000E-03 0.  1.
        -12    1    3    3    0    0  0.77858935875E+01 -0.59926498210E+01  0.36748227263E+01  0.10489819489E+02  0.00000000000E+00 0.  1.
</event>
<event>
 7    1  0.5005325E-012  0.5052887E+02  0.7816164E-02  0.1300439E+00
        -11   -1    0    0    0    0  0.00000000000E+00  0.00000000000E+00  0.45593999997E+02  0.45594000000E+02  0.51100000000E-03 0. -1.
         11   -1    0    0    0    0 -0.00000000000E+00 -0.00000000000E+00 -0.45593999997E+02  0.45594000000E+02  0.51100000000E-03 0.  1.
    9900012    2    1    2    0    0  0.10945498481E+02 -0.39153763615E+02 -0.58592977462E+00  0.50528874875E+02  0.30000045670E+02 0.  0.
        -12    1    1    2    0    0 -0.10945498481E+02  0.39153763615E+02  0.58592977462E+00  0.40659125125E+02  0.00000000000E+00 0.  1.
         11    1    3    3    0    0  0.41723343399E+01  0.14920348538E+01  0.24220365021E+01  0.50498319702E+01  0.51100000000E-03 0. -1.
        -11    1    3    3    0    0 -0.51738490784E+01 -0.90248524439E+01 -0.51518290098E+01  0.11608532135E+02  0.51100000000E-03 0.  1.
         12    1    3    3    0    0  0.11947013220E+02 -0.31620946025E+02  0.21438627331E+01  0.33870510770E+02  0.00000000000E+00 0. -1.
</event>
<event>
 7    1  0.5955376E-012  0.5052886E+02  0.7816164E-02  0.1300439E+00
        -11   -1    0    0    0    0  0.00000000000E+00  0.00000000000E+00  0.45593999997E+02  0.45594000000E+02  0.51100000000E-03 0. -1.
         11   -1    0    0    0    0 -0.00000000000E+00 -0.00000000000E+00 -0.45593999997E+02  0.45594000000E+02  0.51100000000E-03 0.  1.
    9900012    2    1    2    0    0  0.54697312656E+01  0.16853919628E+02  0.36594984486E+02  0.50528862571E+02  0.30000008270E+02 0.  0.
        -12    1    1    2    0    0 -0.54697312656E+01 -0.16853919628E+02 -0.36594984486E+02  0.40659137429E+02  0.00000000000E+00 0.  1.
         11    1    3    3    0    0 -0.45638734999E+00  0.67797220044E+01  0.19087211515E+02  0.20260665427E+02  0.51100000000E-03 0. -1.
        -11    1    3    3    0    0  0.57204840866E+01 -0.29253223133E+01  0.15923493042E+02  0.17170878828E+02  0.51100000000E-03 0.  1.
        -12    1    3    3    0    0  0.20563452895E+00  0.12999519937E+02  0.15842799290E+01  0.13097318315E+02  0.00000000000E+00 0.  1.
</event>
<event>
 7    1  0.5005325E-012  0.5052886E+02  0.7816164E-02  0.1300439E+00
        -11   -1    0    0    0    0  0.00000000000E+00  0.00000000000E+00  0.45593999997E+02  0.45594000000E+02  0.51100000000E-03 0. -1.
         11   -1    0    0    0    0 -0.00000000000E+00 -0.00000000000E+00 -0.45593999997E+02  0.45594000000E+02  0.51100000000E-03 0.  1.
    9900012    2    1    2    0    0  0.24186168875E+02  0.15542418058E+02 -0.28751142237E+02  0.50528859529E+02  0.29999999023E+02 0.  0.
         12    1    1    2    0    0 -0.24186168875E+02 -0.15542418058E+02  0.28751142237E+02  0.40659140471E+02  0.00000000000E+00 0. -1.
         11    1    3    3    0    0 -0.33693868161E+01 -0.20440573478E+01 -0.33745882333E+00  0.39553529142E+01  0.51100000000E-03 0. -1.
        -11    1    3    3    0    0  0.13617884923E+02  0.75767708316E+01 -0.24398037191E+02  0.28950275733E+02  0.51100000000E-03 0.  1.
         12    1    3    3    0    0  0.13937670768E+02  0.10009704574E+02 -0.40156462226E+01  0.17623230881E+02  0.00000000000E+00 0. -1.
</event>
<event>
 7    1  0.5005325E-012  0.5052886E+02  0.7816164E-02  0.1300439E+00
        -11   -1    0    0    0    0  0.00000000000E+00  0.00000000000E+00  0.45593999997E+02  0.45594000000E+02  0.51100000000E-03 0. -1.
         11   -1    0    0    0    0 -0.00000000000E+00 -0.00000000000E+00 -0.45593999997E+02  0.45594000000E+02  0.51100000000E-03 0.  1.
    9900012    2    1    2    0    0 -0.18344521764E+01 -0.28741592427E+02  0.28700548187E+02  0.50528858146E+02  0.29999994821E+02 0.  0.
        -12    1    1    2    0    0  0.18344521764E+01  0.28741592427E+02 -0.28700548187E+02  0.40659141854E+02  0.00000000000E+00 0.  1.
         11    1    3    3    0    0 -0.14760645422E+01 -0.14044532487E+01  0.39947528818E+01  0.44843401196E+01  0.51100000000E-03 0. -1.
        -11    1    3    3    0    0  0.65349998223E+01 -0.29688341060E+02  0.14968040866E+02  0.33884304113E+02  0.51100000000E-03 0.  1.
        -12    1    3    3    0    0 -0.68933874565E+01  0.23512018812E+01  0.97377544390E+01  0.12160213914E+02  0.00000000000E+00 0.  1.
</event>
<event>
 7    1  0.5005325E-012  0.5052887E+02  0.7816164E-02  0.1300439E+00
        -11   -1    0    0    0    0  0.00000000000E+00  0.00000000000E+00  0.45593999997E+02  0.45594000000E+02  0.51100000000E-03 0. -1.
         11   -1    0    0    0    0 -0.00000000000E+00 -0.00000000000E+00 -0.45593999997E+02  0.45594000000E+02  0.51100000000E-03 0.  1.
    9900012    2    1    2    0    0 -0.37193957181E+01  0.15943658157E+02  0.37217349108E+02  0.50528865546E+02  0.30000017313E+02 0.  0.
        -12    1    1    2    0    0  0.37193957181E+01 -0.15943658157E+02 -0.37217349108E+02  0.40659134454E+02  0.00000000000E+00 0.  1.
         11    1    3    3    0    0 -0.11096736029E+02  0.50847802521E+01  0.98926293583E+01  0.15711672622E+02  0.51100000000E-03 0. -1.
        -11    1    3    3    0    0  0.35383847935E+01  0.31276077189E+01 -0.13172444580E+01  0.49027778058E+01  0.51100000000E-03 0.  1.
        -12    1    3    3    0    0  0.38389555175E+01  0.77312701858E+01  0.28641964208E+02  0.29914415118E+02  0.00000000000E+00 0.  1.
</event>
<event>
 7    1  0.5005325E-012  0.5052885E+02  0.7816164E-02  0.1300439E+00
        -11   -1    0    0    0    0  0.00000000000E+00  0.00000000000E+00  0.45593999997E+02  0.45594000000E+02  0.51100000000E-03 0.  1.
         11   -1    0    0    0    0 -0.00000000000E+00 -0.00000000000E+00 -0.45593999997E+02  0.45594000000E+02  0.51100000000E-03 0. -1.
    9900012    2    1    2    0    0  0.32283842904E+02  0.12746649650E+02  0.21176471396E+02  0.50528849360E+02  0.29999968114E+02 0.  0.
        -12    1    1    2    0    0 -0.32283842904E+02 -0.12746649650E+02 -0.21176471396E+02  0.40659150640E+02  0.00000000000E+00 0.  1.
         11    1    3    3    0    0  0.19579250772E+02  0.16383160476E+01  0.71678592208E+01  0.20914333514E+02  0.51100000000E-03 0. -1.
        -11    1    3    3    0    0  0.10611726436E+02  0.15007856903E+02  0.16356648238E+02  0.24604561540E+02  0.51100000000E-03 0.  1.
         12    1    3    3    0    0  0.20928656967E+01 -0.38995233007E+01 -0.23480360620E+01  0.50099543057E+01  0.00000000000E+00 0. -1.
</event>
<event>
 7    1  0.5005325E-012  0.5052886E+02  0.7816164E-02  0.1300439E+00
        -11   -1    0    0    0    0  0.00000000000E+00  0.00000000000E+00  0.45593999997E+02  0.45594000000E+02  0.51100000000E-03 0. -1.
         11   -1    0    0    0    0 -0.00000000000E+00 -0.00000000000E+00 -0.45593999997E+02  0.45594000000E+02  0.51100000000E-03 0.  1.
    9900012    2    1    2    0    0  0.80348802743E+01  0.45990461632E+01 -0.39591095721E+02  0.50528863425E+02  0.30000010865E+02 0.  0.
         12    1    1    2    0    0 -0.80348802743E+01 -0.45990461632E+01  0.39591095721E+02  0.40659136575E+02  0.00000000000E+00 0. -1.
         11    1    3    3    0    0  0.10674726653E+02 -0.79207324602E+00 -0.27115561282E+01  0.11042178501E+02  0.51100000000E-03 0. -1.
        -11    1    3    3    0    0  0.51938933677E+01  0.22270430617E+01 -0.14044381140E+02  0.15138721577E+02  0.51100000000E-03 0.  1.
         12    1    3    3    0    0 -0.78337397468E+01  0.31640763475E+01 -0.22835158453E+02  0.24347963346E+02  0.00000000000E+00 0. -1.
</event>
<event>
 7    1  0.5005325E-012  0.5052887E+02  0.7816164E-02  0.1300439E+00
        -11   -1    0    0    0    0  0.00000000000E+00  0.00000000000E+00  0.45593999997E+02  0.45594000000E+02  0.51100000000E-03 0. -1.
         11   -1    0    0    0    0 -0.00000000000E+00 -0.00000000000E+00 -0.45593999997E+02  0.45594000000E+02  0.51100000000E-03 0.  1.
    9900012    2    1    2    0    0  0.19230951813E+02  0.22049141227E+02 -0.28234212758E+02  0.50528869334E+02  0.30000028828E+02 0.  0.
         12    1    1    2    0    0 -0.19230951813E+02 -0.22049141227E+02  0.28234212758E+02  0.40659130666E+02  0.00000000000E+00 0. -1.
         11    1    3    3    0    0  0.18479580077E+02  0.17463355153E+02 -0.12837649422E+02  0.28482782448E+02  0.51100000000E-03 0. -1.
        -11    1    3    3    0    0 -0.20192039689E+01  0.91639170697E+01 -0.57234459848E+01  0.10991469189E+02  0.51100000000E-03 0.  1.
        -12    1    3    3    0    0  0.27705757046E+01 -0.45781309960E+01 -0.96731173507E+01  0.11054617697E+02  0.00000000000E+00 0.  1.
</event>
<event>
 7    1  0.5005325E-012  0.5052886E+02  0.7816164E-02  0.1300439E+00
        -11   -1    0    0    0    0  0.00000000000E+00  0.00000000000E+00  0.45593999997E+02  0.45594000000E+02  0.51100000000E-03 0. -1.
         11   -1    0    0    0    0 -0.00000000000E+00 -0.00000000000E+00 -0.45593999997E+02  0.45594000000E+02  0.51100000000E-03 0.  1.
    9900012    2    1    2    0    0  0.30662154648E+02 -0.64860128384E+00  0.26694147400E+02  0.50528856912E+02  0.29999991069E+02 0.  0.
        -12    1    1    2    0    0 -0.30662154648E+02  0.64860128384E+00 -0.26694147400E+02  0.40659143088E+02  0.00000000000E+00 0.  1.
         11    1    3    3    0    0  0.13235574346E+02  0.25910059273E+01  0.37919482707E+01  0.14009732757E+02  0.51100000000E-03 0. -1.
        -11    1    3    3    0    0  0.67992839221E+01  0.95995958536E+01  0.10058986255E+02  0.15477910296E+02  0.51100000000E-03 0.  1.
         12    1    3    3    0    0  0.10627296380E+02 -0.12839203065E+02  0.12843212874E+02  0.21041213858E+02  0.00000000000E+00 0. -1.
</event>
<event>
 7    1  0.5005325E-012  0.5052886E+02  0.7816164E-02  0.1300439E+00
        -11   -1    0    0    0    0  0.00000000000E+00  0.00000000000E+00  0.45593999997E+02  0.45594000000E+02  0.51100000000E-03 0. -1.
         11   -1    0    0    0    0 -0.00000000000E+00 -0.00000000000E+00 -0.45593999997E+02  0.45594000000E+02  0.51100000000E-03 0.  1.
    9900012    2    1    2    0    0 -0.69903470516E-01 -0.22660394702E+02  0.33758957659E+02  0.50528860846E+02  0.30000003027E+02 0.  0.
        -12    1    1    2    0    0  0.69903470516E-01  0.22660394702E+02 -0.33758957659E+02  0.40659139154E+02  0.00000000000E+00 0.  1.
         11    1    3    3    0    0  0.44252276825E+00 -0.21672750373E+02  0.14896191765E+02  0.26302100001E+02  0.51100000000E-03 0. -1.
        -11    1    3    3    0    0 -0.55355989048E+01 -0.58640578405E+01  0.11709874792E+02  0.14217988518E+02  0.51100000000E-03 0.  1.
        -12    1    3    3    0    0  0.50231726660E+01  0.48764135113E+01  0.71528911021E+01  0.10008772327E+02  0.00000000000E+00 0.  1.
</event>
<event>
 7    1  0.5005325E-012  0.5052885E+02  0.7816164E-02  0.1300439E+00
        -11   -1    0    0    0    0  0.00000000000E+00  0.00000000000E+00  0.45593999997E+02  0.45594000000E+02  0.51100000000E-03 0. -1.
         11   -1    0    0    0    0 -0.00000000000E+00 -0.00000000000E+00 -0.45593999997E+02  0.45594000000E+02  0.51100000000E-03 0.  1.
    9900012    2    1    2    0    0  0.23564287480E+02 -0.24167437805E+02  0.22667724022E+02  0.50528850884E+02  0.29999972747E+02 0.  0.
        -12    1    1    2    0    0 -0.23564287480E+02  0.24167437805E+02 -0.22667724022E+02  0.40659149116E+02  0.00000000000E+00 0.  1.
         11    1    3    3    0    0  0.29932665018E+01 -0.19830313125E+01  0.47724181207E+01  0.59722719728E+01  0.51100000000E-03 0. -1.
        -11    1    3    3    0    0  0.46565494213E+01 -0.20333867658E+02  0.44253690548E+00  0.20864933875E+02  0.51100000000E-03 0.  1.
        -12    1    3    3    0    0  0.15914471557E+02 -0.18505388348E+01  0.17452768995E+02  0.23691645037E+02  0.00000000000E+00 0.  1.
</event>
<event>
 7    1  0.5005325E-012  0.5052888E+02  0.7816164E-02  0.1300439E+00
        -11   -1    0    0    0    0  0.00000000000E+00  0.00000000000E+00  0.45593999997E+02  0.45594000000E+02  0.51100000000E-03 0. -1.
         11   -1    0    0    0    0 -0.00000000000E+00 -0.00000000000E+00 -0.45593999997E+02  0.45594000000E+02  0.51100000000E-03 0.  1.
    9900012    2    1    2    0    0 -0.28599476847E+02  0.15209579550E+02 -0.24574427723E+02  0.50528881909E+02  0.30000067051E+02 0.  0.
         12    1    1    2    0    0  0.28599476847E+02 -0.15209579550E+02  0.24574427723E+02  0.40659118091E+02  0.00000000000E+00 0. -1.
         11    1    3    3    0    0 -0.92584310662E+01  0.82599633376E+01  0.52715451069E+01  0.13480902352E+02  0.51100000000E-03 0. -1.
        -11    1    3    3    0    0 -0.94106338101E+01  0.28693626498E+01 -0.79032155457E+01  0.12619591394E+02  0.51100000000E-03 0.  1.
        -12    1    3    3    0    0 -0.99304119711E+01  0.40802535623E+01 -0.21942757284E+02  0.24428388164E+02  0.00000000000E+00 0.  1.
</event>
<event>
 7    1  0.5005325E-012  0.5052887E+02  0.7816164E-02  0.1300439E+00
        -11   -1    0    0    0    0  0.00000000000E+00  0.00000000000E+00  0.45593999997E+02  0.45594000000E+02  0.51100000000E-03 0. -1.
         11   -1    0    0    0    0 -0.00000000000E+00 -0.00000000000E+00 -0.45593999997E+02  0.45594000000E+02  0.51100000000E-03 0.  1.
    9900012    2    1    2    0    0 -0.23362051919E+02  0.22083124650E+02 -0.24894068546E+02  0.50528874174E+02  0.30000043538E+02 0.  0.
         12    1    1    2    0    0  0.23362051919E+02 -0.22083124650E+02  0.24894068546E+02  0.40659125826E+02  0.00000000000E+00 0. -1.
         11    1    3    3    0    0 -0.13809328072E+02  0.13053301946E+02 -0.85006904320E+01  0.20817011591E+02  0.51100000000E-03 0. -1.
        -11    1    3    3    0    0 -0.86259838353E+01  0.18873769261E+01  0.27581686112E+01  0.92507990540E+01  0.51100000000E-03 0.  1.
         12    1    3    3    0    0 -0.92674001107E+00  0.71424457785E+01 -0.19151546725E+02  0.20461063529E+02  0.00000000000E+00 0. -1.
</event>
<event>
 7    1  0.5005325E-012  0.5052883E+02  0.7816164E-02  0.1300439E+00
        -11   -1    0    0    0    0  0.00000000000E+00  0.00000000000E+00  0.45593999997E+02  0.45594000000E+02  0.51100000000E-03 0. -1.
         11   -1    0    0    0    0 -0.00000000000E+00 -0.00000000000E+00 -0.45593999997E+02  0.45594000000E+02  0.51100000000E-03 0.  1.
    9900012    2    1    2    0    0  0.32881691582E+02 -0.14215516708E+02 -0.19232310876E+02  0.50528827133E+02  0.29999900553E+02 0.  0.
         12    1    1    2    0    0 -0.32881691582E+02  0.14215516708E+02  0.19232310876E+02  0.40659172867E+02  0.00000000000E+00 0. -1.
         11    1    3    3    0    0  0.35377466601E+00 -0.53174387084E+00 -0.10191407951E+02  0.10211400704E+02  0.51100000000E-03 0. -1.
        -11    1    3    3    0    0  0.21454679973E+02  0.25948956328E+00 -0.57119366580E+01  0.22203532337E+02  0.51100000000E-03 0.  1.
         12    1    3    3    0    0  0.11073236943E+02 -0.13943262401E+02 -0.33289662679E+01  0.18113894092E+02  0.00000000000E+00 0. -1.
</event>
<event>
 7    1  0.5005325E-012  0.5052886E+02  0.7816164E-02  0.1300439E+00
        -11   -1    0    0    0    0  0.00000000000E+00  0.00000000000E+00  0.45593999997E+02  0.45594000000E+02  0.51100000000E-03 0.  1.
         11   -1    0    0    0    0 -0.00000000000E+00 -0.00000000000E+00 -0.45593999997E+02  0.45594000000E+02  0.51100000000E-03 0. -1.
    9900012    2    1    2    0    0 -0.37086944749E+02 -0.16349275090E+02 -0.32288456677E+01  0.50528859439E+02  0.29999998750E+02 0.  0.
         12    1    1    2    0    0  0.37086944749E+02  0.16349275090E+02  0.32288456677E+01  0.40659140561E+02  0.00000000000E+00 0. -1.
         11    1    3    3    0    0 -0.74017767394E+01 -0.97377603202E+01 -0.36615380475E+01  0.12767816418E+02  0.51100000000E-03 0. -1.
        -11    1    3    3    0    0 -0.25253793586E+02 -0.13932866100E+02  0.25199634331E+01  0.28952185828E+02  0.51100000000E-03 0.  1.
        -12    1    3    3    0    0 -0.44313744237E+01  0.73213513302E+01 -0.20872710533E+01  0.88088571922E+01  0.00000000000E+00 0.  1.
</event>
<event>
 7    1  0.5005325E-012  0.5052886E+02  0.7816164E-02  0.1300439E+00
        -11   -1    0    0    0    0  0.00000000000E+00  0.00000000000E+00  0.45593999997E+02  0.45594000000E+02  0.51100000000E-03 0. -1.
         11   -1    0    0    0    0 -0.00000000000E+00 -0.00000000000E+00 -0.45593999997E+02  0.45594000000E+02  0.51100000000E-03 0.  1.
    9900012    2    1    2    0    0 -0.30738416879E+01  0.24507423663E+02  0.32297112550E+02  0.50528858391E+02  0.29999995565E+02 0.  0.
        -12    1    1    2    0    0  0.30738416879E+01 -0.24507423663E+02 -0.32297112550E+02  0.40659141609E+02  0.00000000000E+00 0.  1.
         11    1    3    3    0    0 -0.19276582010E+01 -0.25831806531E+01  0.33724290751E+01  0.46649722994E+01  0.51100000000E-03 0. -1.
        -11    1    3    3    0    0 -0.20697754077E+00  0.13842345063E+02  0.29482131552E+02  0.32570683715E+02  0.51100000000E-03 0.  1.
         12    1    3    3    0    0 -0.93920594613E+00  0.13248259254E+02 -0.55744807790E+00  0.13293202376E+02  0.00000000000E+00 0. -1.
</event>
<event>
 7    1  0.5005325E-012  0.5052890E+02  0.7816164E-02  0.1300439E+00
        -11   -1    0    0    0    0  0.00000000000E+00  0.00000000000E+00  0.45593999997E+02  0.45594000000E+02  0.51100000000E-03 0. -1.
         11   -1    0    0    0    0 -0.00000000000E+00 -0.00000000000E+00 -0.45593999997E+02  0.45594000000E+02  0.51100000000E-03 0.  1.
    9900012    2    1    2    0    0 -0.25376604737E+02  0.29255360717E+02 -0.12381995625E+02  0.50528904901E+02  0.30000136936E+02 0.  0.
         12    1    1    2    0    0  0.25376604737E+02 -0.29255360717E+02  0.12381995625E+02  0.40659095099E+02  0.00000000000E+00 0. -1.
         11    1    3    3    0    0 -0.88097508673E+01  0.11974515596E+01  0.62739468326E+01  0.10881544454E+02  0.51100000000E-03 0. -1.
        -11    1    3    3    0    0  0.20433376942E+01  0.24613885386E+01 -0.27965197028E+01  0.42490216732E+01  0.51100000000E-03 0.  1.
        -12    1    3    3    0    0 -0.18610191564E+02  0.25596520619E+02 -0.15859422755E+02  0.35398338774E+02  0.00000000000E+00 0.  1.
</event>
<event>
 7    1  0.5005325E-012  0.5052886E+02  0.7816164E-02  0.1300439E+00
        -11   -1    0    0    0    0  0.00000000000E+00  0.00000000000E+00  0.45593999997E+02  0.45594000000E+02  0.51100000000E-03 0.  1.
         11   -1    0    0    0    0 -0.00000000000E+00 -0.00000000000E+00 -0.45593999997E+02  0.45594000000E+02  0.51100000000E-03 0. -1.
    9900012    2    1    2    0    0 -0.14937895084E+02 -0.36624448840E+02 -0.94167108666E+01  0.50528863193E+02  0.30000010162E+02 0.  0.
        -12    1    1    2    0    0  0.14937895084E+02  0.36624448840E+02  0.94167108666E+01  0.40659136807E+02  0.00000000000E+00 0.  1.
         11    1    3    3    0    0 -0.90590603647E+01 -0.21260863185E+02 -0.15965305364E+02  0.28088820796E+02  0.51100000000E-03 0. -1.
        -11    1    3    3    0    0 -0.79305005284E+01 -0.10304031067E+02 -0.10930414122E+01  0.13048395865E+02  0.51100000000E-03 0.  1.
        -12    1    3    3    0    0  0.20516658095E+01 -0.50595545869E+01  0.76416359093E+01  0.93916465320E+01  0.00000000000E+00 0.  1.
</event>
<event>
 7    1  0.5005325E-012  0.5052888E+02  0.7816164E-02  0.1300439E+00
        -11   -1    0    0    0    0  0.00000000000E+00  0.00000000000E+00  0.45593999997E+02  0.45594000000E+02  0.51100000000E-03 0. -1.
         11   -1    0    0    0    0 -0.00000000000E+00 -0.00000000000E+00 -0.45593999997E+02  0.45594000000E+02  0.51100000000E-03 0.  1.
    9900012    2    1    2    0    0 -0.15811611567E+02  0.22078319398E+02 -0.30260618119E+02  0.50528877325E+02  0.30000053116E+02 0.  0.
         12    1    1    2    0    0  0.15811611567E+02 -0.22078319398E+02  0.30260618119E+02  0.40659122675E+02  0.00000000000E+00 0. -1.
         11    1    3    3    0    0 -0.49592325704E+01 -0.39534070079E+01 -0.43057452923E+01  0.76656935395E+01  0.51100000000E-03 0. -1.
        -11    1    3    3    0    0  0.53518879440E+01  0.48843248017E+01 -0.76638047964E+01  0.10546716909E+02  0.51100000000E-03 0.  1.
         12    1    3    3    0    0 -0.16204266941E+02  0.21147401604E+02 -0.18291068030E+02  0.32316466876E+02  0.00000000000E+00 0. -1.
</event>
<event>
 7    1  0.5005325E-012  0.5052885E+02  0.7816164E-02  0.1300439E+00
        -11   -1    0    0    0    0  0.00000000000E+00  0.00000000000E+00  0.45593999997E+02  0.45594000000E+02  0.51100000000E-03 0. -1.
         11   -1    0    0    0    0 -0.00000000000E+00 -0.00000000000E+00 -0.45593999997E+02  0.45594000000E+02  0.51100000000E-03 0.  1.
    9900012    2    1    2    0    0  0.25023847958E+01 -0.30646019302E+01 -0.40466188900E+02  0.50528853935E+02  0.29999982021E+02 0.  0.
         12    1    1    2    0    0 -0.25023847958E+01  0.30646019302E+01  0.40466188900E+02  0.40659146065E+02  0.00000000000E+00 0. -1.
         11    1    3    3    0    0 -0.28480457659E+01 -0.40485969714E+01  0.18764123963E+00  0.49535554522E+01  0.51100000000E-03 0. -1.
        -11    1    3    3    0    0 -0.70362117383E+01  0.28706549549E+00 -0.22584426496E+02  0.23656859526E+02  0.51100000000E-03 0.  1.
         12    1    3    3    0    0  0.12386642300E+02  0.69692954578E+00 -0.18069403643E+02  0.21918438956E+02  0.00000000000E+00 0. -1.
</event>
<event>
 7    1  0.5005325E-012  0.5052887E+02  0.7816164E-02  0.1300439E+00
        -11   -1    0    0    0    0  0.00000000000E+00  0.00000000000E+00  0.45593999997E+02  0.45594000000E+02  0.51100000000E-03 0. -1.
         11   -1    0    0    0    0 -0.00000000000E+00 -0.00000000000E+00 -0.45593999997E+02  0.45594000000E+02  0.51100000000E-03 0.  1.
    9900012    2    1    2    0    0  0.36807647462E+01  0.41474096172E+00  0.40490056171E+02  0.50528872022E+02  0.30000036999E+02 0.  0.
        -12    1    1    2    0    0 -0.36807647462E+01 -0.41474096172E+00 -0.40490056171E+02  0.40659127978E+02  0.00000000000E+00 0.  1.
         11    1    3    3    0    0 -0.58790779093E+01 -0.40352059351E+01  0.26613580820E+02  0.27552298059E+02  0.51100000000E-03 0. -1.
        -11    1    3    3    0    0  0.69408829587E+01  0.48744761909E+01  0.16927401709E+02  0.18933391225E+02  0.51100000000E-03 0.  1.
        -12    1    3    3    0    0  0.26189596969E+01 -0.42452929407E+00 -0.30509263582E+01  0.40431827387E+01  0.00000000000E+00 0.  1.
</event>
<event>
 7    1  0.5005325E-012  0.5052886E+02  0.7816164E-02  0.1300439E+00
        -11   -1    0    0    0    0  0.00000000000E+00  0.00000000000E+00  0.45593999997E+02  0.45594000000E+02  0.51100000000E-03 0. -1.
         11   -1    0    0    0    0 -0.00000000000E+00 -0.00000000000E+00 -0.45593999997E+02  0.45594000000E+02  0.51100000000E-03 0.  1.
    9900012    2    1    2    0    0  0.24860644802E+02  0.28409509926E+02  0.15100114796E+02  0.50528863498E+02  0.30000011089E+02 0.  0.
        -12    1    1    2    0    0 -0.24860644802E+02 -0.28409509926E+02 -0.15100114796E+02  0.40659136502E+02  0.00000000000E+00 0.  1.
         11    1    3    3    0    0 -0.10639744606E+01  0.94973492509E-01 -0.43300707863E+00  0.11526304735E+01  0.51100000000E-03 0. -1.
        -11    1    3    3    0    0  0.34581010835E+01  0.52701606348E+01 -0.75018358287E+01  0.97984997465E+01  0.51100000000E-03 0.  1.
         12    1    3    3    0    0  0.22466518179E+02  0.23044375799E+02  0.23034957704E+02  0.39577733278E+02  0.00000000000E+00 0. -1.
</event>
<event>
 7    1  0.5005325E-012  0.5052886E+02  0.7816164E-02  0.1300439E+00
        -11   -1    0    0    0    0  0.00000000000E+00  0.00000000000E+00  0.45593999997E+02  0.45594000000E+02  0.51100000000E-03 0.  1.
         11   -1    0    0    0    0 -0.00000000000E+00 -0.00000000000E+00 -0.45593999997E+02  0.45594000000E+02  0.51100000000E-03 0. -1.
    9900012    2    1    2    0    0 -0.17260664882E+02 -0.36741375891E+02  0.23034976452E+01  0.50528863807E+02  0.30000012029E+02 0.  0.
         12    1    1    2    0    0  0.17260664882E+02  0.36741375891E+02 -0.23034976452E+01  0.40659136193E+02  0.00000000000E+00 0. -1.
         11    1    3    3    0    0 -0.12668788788E+02 -0.25490900987E+02 -0.69281337855E+01  0.29296472151E+02  0.51100000000E-03 0. -1.
        -11    1    3    3    0    0  0.24565991815E+01  0.65153839861E-01 -0.24770749858E+01  0.34892728910E+01  0.51100000000E-03 0.  1.
        -12    1    3    3    0    0 -0.70484752755E+01 -0.11315628743E+02  0.11708706417E+02  0.17743118765E+02  0.00000000000E+00 0.  1.
</event>
<event>
 7    1  0.5005325E-012  0.5052885E+02  0.7816164E-02  0.1300439E+00
        -11   -1    0    0    0    0  0.00000000000E+00  0.00000000000E+00  0.45593999997E+02  0.45594000000E+02  0.51100000000E-03 0. -1.
         11   -1    0    0    0    0 -0.00000000000E+00 -0.00000000000E+00 -0.45593999997E+02  0.45594000000E+02  0.51100000000E-03 0.  1.
    9900012    2    1    2    0    0 -0.27887892976E+02  0.75530107210E+01  0.28607410311E+02  0.50528850104E+02  0.29999970375E+02 0.  0.
        -12    1    1    2    0    0  0.27887892976E+02 -0.75530107210E+01 -0.28607410311E+02  0.40659149896E+02  0.00000000000E+00 0.  1.
         11    1    3    3    0    0 -0.80286288726E-01 -0.38971721987E+01  0.22394654122E+01  0.44955091623E+01  0.51100000000E-03 0. -1.
        -11    1    3    3    0    0 -0.27665617304E+02  0.72918019810E+01  0.11913134066E+02  0.30991604032E+02  0.51100000000E-03 0.  1.
         12    1    3    3    0    0 -0.14198938259E+00  0.41583809387E+01  0.14454810833E+02  0.15041736909E+02  0.00000000000E+00 0. -1.
</event>
<event>
 7    1  0.5005325E-012  0.5052887E+02  0.7816164E-02  0.1300439E+00
        -11   -1    0    0    0    0  0.00000000000E+00  0.00000000000E+00  0.45593999997E+02  0.45594000000E+02  0.51100000000E-03 0. -1.
         11   -1    0    0    0    0 -0.00000000000E+00 -0.00000000000E+00 -0.45593999997E+02  0.45594000000E+02  0.51100000000E-03 0.  1.
    9900012    2    1    2    0    0 -0.16653533519E+02 -0.80634647055E+01  0.36205044905E+02  0.50528869189E+02  0.30000028387E+02 0.  0.
        -12    1    1    2    0    0  0.16653533519E+02  0.80634647055E+01 -0.36205044905E+02  0.40659130811E+02  0.00000000000E+00 0.  1.
         11    1    3    3    0    0 -0.66638364027E+01 -0.44407150890E+01  0.22266655332E+02  0.23662852871E+02  0.51100000000E-03 0. -1.
        -11    1    3    3    0    0 -0.11860635572E+02 -0.10065784459E+02  0.65299897473E+01  0.16871142798E+02  0.51100000000E-03 0.  1.
         12    1    3    3    0    0  0.18709384559E+01  0.64430348424E+01  0.74083998261E+01  0.99948735194E+01  0.00000000000E+00 0. -1.
</event>
<event>
 7    1  0.5005325E-012  0.5052886E+02  0.7816164E-02  0.1300439E+00
        -11   -1    0    0    0    0  0.00000000000E+00  0.00000000000E+00  0.45593999997E+02  0.45594000000E+02  0.51100000000E-03 0. -1.
         11   -1    0    0    0    0 -0.00000000000E+00 -0.00000000000E+00 -0.45593999997E+02  0.45594000000E+02  0.51100000000E-03 0.  1.
    9900012    2    1    2    0    0  0.25924750922E+02 -0.16711102284E+02 -0.26491732287E+02  0.50528861673E+02  0.30000005541E+02 0.  0.
         12    1    1    2    0    0 -0.25924750922E+02  0.16711102284E+02  0.26491732287E+02  0.40659138327E+02  0.00000000000E+00 0. -1.
         11    1    3    3    0    0  0.78826473959E+01 -0.98736282802E+01 -0.14549867280E+02  0.19269750998E+02  0.51100000000E-03 0.  1.
        -11    1    3    3    0    0  0.12583851083E+01  0.44419880334E+01 -0.99135670706E+01  0.10935886022E+02  0.51100000000E-03 0. -1.
         12    1    3    3    0    0  0.16783718418E+02 -0.11279462037E+02 -0.20282979366E+01  0.20323224653E+02  0.00000000000E+00 0. -1.
</event>
<event>
 7    1  0.5005325E-012  0.5052886E+02  0.7816164E-02  0.1300439E+00
        -11   -1    0    0    0    0  0.00000000000E+00  0.00000000000E+00  0.45593999997E+02  0.45594000000E+02  0.51100000000E-03 0. -1.
         11   -1    0    0    0    0 -0.00000000000E+00 -0.00000000000E+00 -0.45593999997E+02  0.45594000000E+02  0.51100000000E-03 0.  1.
    9900012    2    1    2    0    0  0.25687955942E+02  0.11159765164E+02 -0.29474634658E+02  0.50528861701E+02  0.30000005626E+02 0.  0.
         12    1    1    2    0    0 -0.25687955942E+02 -0.11159765164E+02  0.29474634658E+02  0.40659138299E+02  0.00000000000E+00 0. -1.
         11    1    3    3    0    0  0.16203094542E+02 -0.22261243933E+01 -0.12275038830E+02  0.20449266028E+02  0.51100000000E-03 0. -1.
        -11    1    3    3    0    0  0.15052587936E+02  0.10612412132E+02 -0.13581078237E+02  0.22883386576E+02  0.51100000000E-03 0.  1.
         12    1    3    3    0    0 -0.55677265360E+01  0.27734774250E+01 -0.36185175909E+01  0.71962090966E+01  0.00000000000E+00 0. -1.
</event>
<event>
 7    1  0.5005325E-012  0.5052886E+02  0.7816164E-02  0.1300439E+00
        -11   -1    0    0    0    0  0.00000000000E+00  0.00000000000E+00  0.45593999997E+02  0.45594000000E+02  0.51100000000E-03 0. -1.
         11   -1    0    0    0    0 -0.00000000000E+00 -0.00000000000E+00 -0.45593999997E+02  0.45594000000E+02  0.51100000000E-03 0.  1.
    9900012    2    1    2    0    0  0.81868582680E+01 -0.48091908466E+01  0.39534957789E+02  0.50528857704E+02  0.29999993476E+02 0.  0.
        -12    1    1    2    0    0 -0.81868582680E+01  0.48091908466E+01 -0.39534957789E+02  0.40659142296E+02  0.00000000000E+00 0.  1.
         11    1    3    3    0    0 -0.34403260477E+01  0.19582180073E+01  0.25482314945E+02  0.25787959134E+02  0.51100000000E-03 0. -1.
        -11    1    3    3    0    0  0.69464208058E+01  0.40969109074E+01  0.83491646186E+01  0.11608014089E+02  0.51100000000E-03 0.  1.
         12    1    3    3    0    0  0.46807635099E+01 -0.10864319761E+02  0.57034782250E+01  0.13132884480E+02  0.00000000000E+00 0. -1.
</event>
<event>
 7    1  0.5005325E-012  0.5052893E+02  0.7816164E-02  0.1300439E+00
        -11   -1    0    0    0    0  0.00000000000E+00  0.00000000000E+00  0.45593999997E+02  0.45594000000E+02  0.51100000000E-03 0. -1.
         11   -1    0    0    0    0 -0.00000000000E+00 -0.00000000000E+00 -0.45593999997E+02  0.45594000000E+02  0.51100000000E-03 0.  1.
    9900012    2    1    2    0    0  0.25622437510E+02 -0.19595003663E+02 -0.24752511380E+02  0.50528926079E+02  0.30000201309E+02 0.  0.
         12    1    1    2    0    0 -0.25622437510E+02  0.19595003663E+02  0.24752511380E+02  0.40659073921E+02  0.00000000000E+00 0. -1.
         11    1    3    3    0    0  0.90898358694E+01 -0.10223995096E+02  0.65218441503E+00  0.13696004404E+02  0.51100000000E-03 0. -1.
        -11    1    3    3    0    0  0.22312375631E+01  0.39860859058E+01  0.24041068816E+00  0.45743960772E+01  0.51100000000E-03 0.  1.
         12    1    3    3    0    0  0.14301364077E+02 -0.13357094473E+02 -0.25645106483E+02  0.32258525598E+02  0.00000000000E+00 0. -1.
</event>
<event>
 7    1  0.5005325E-012  0.5052886E+02  0.7816164E-02  0.1300439E+00
        -11   -1    0    0    0    0  0.00000000000E+00  0.00000000000E+00  0.45593999997E+02  0.45594000000E+02  0.51100000000E-03 0. -1.
         11   -1    0    0    0    0 -0.00000000000E+00 -0.00000000000E+00 -0.45593999997E+02  0.45594000000E+02  0.51100000000E-03 0.  1.
    9900012    2    1    2    0    0  0.21805213687E+02  0.51855493342E+01 -0.33923562573E+02  0.50528863714E+02  0.30000011746E+02 0.  0.
         12    1    1    2    0    0 -0.21805213687E+02 -0.51855493342E+01  0.33923562573E+02  0.40659136286E+02  0.00000000000E+00 0. -1.
         11    1    3    3    0    0  0.40102838409E+01  0.19945316844E+01  0.72761140844E+00  0.45376152049E+01  0.51100000000E-03 0. -1.
        -11    1    3    3    0    0 -0.22322786004E+01 -0.66481993699E+01 -0.39848338798E+01  0.80660104093E+01  0.51100000000E-03 0.  1.
         12    1    3    3    0    0  0.20027208447E+02  0.98392170197E+01 -0.30666340102E+02  0.37925238100E+02  0.00000000000E+00 0. -1.
</event>
<event>
 7    1  0.5005325E-012  0.5052886E+02  0.7816164E-02  0.1300439E+00
        -11   -1    0    0    0    0  0.00000000000E+00  0.00000000000E+00  0.45593999997E+02  0.45594000000E+02  0.51100000000E-03 0. -1.
         11   -1    0    0    0    0 -0.00000000000E+00 -0.00000000000E+00 -0.45593999997E+02  0.45594000000E+02  0.51100000000E-03 0.  1.
    9900012    2    1    2    0    0  0.54257410861E+01 -0.75327616188E+01  0.39585157449E+02  0.50528857680E+02  0.29999993405E+02 0.  0.
        -12    1    1    2    0    0 -0.54257410861E+01  0.75327616188E+01 -0.39585157449E+02  0.40659142320E+02  0.00000000000E+00 0.  1.
         11    1    3    3    0    0  0.60210137290E+01 -0.10128655008E+02  0.25374570741E+01  0.12053254634E+02  0.51100000000E-03 0. -1.
        -11    1    3    3    0    0 -0.29154558733E+01 -0.30166768567E+01  0.18032771801E+02  0.18514347985E+02  0.51100000000E-03 0.  1.
        -12    1    3    3    0    0  0.23201832305E+01  0.56125702462E+01  0.19014928573E+02  0.19961255062E+02  0.00000000000E+00 0.  1.
</event>
<event>
 7    1  0.5005325E-012  0.5052888E+02  0.7816164E-02  0.1300439E+00
        -11   -1    0    0    0    0  0.00000000000E+00  0.00000000000E+00  0.45593999997E+02  0.45594000000E+02  0.51100000000E-03 0. -1.
         11   -1    0    0    0    0 -0.00000000000E+00 -0.00000000000E+00 -0.45593999997E+02  0.45594000000E+02  0.51100000000E-03 0.  1.
    9900012    2    1    2    0    0 -0.21353993510E+02  0.92438245769E+01  0.33342507207E+02  0.50528879025E+02  0.30000058284E+02 0.  0.
        -12    1    1    2    0    0  0.21353993510E+02 -0.92438245769E+01 -0.33342507207E+02  0.40659120975E+02  0.00000000000E+00 0.  1.
         11    1    3    3    0    0 -0.19130294872E+02 -0.36443812560E+01  0.18362116849E+02  0.26765967796E+02  0.51100000000E-03 0. -1.
        -11    1    3    3    0    0  0.50950914907E+00  0.48783693796E+01 -0.15901058355E+01  0.51562121956E+01  0.51100000000E-03 0.  1.
        -12    1    3    3    0    0 -0.27332077870E+01  0.80098364533E+01  0.16570496193E+02  0.18606699033E+02  0.00000000000E+00 0.  1.
</event>
<event>
 7    1  0.5005325E-012  0.5052882E+02  0.7816164E-02  0.1300439E+00
        -11   -1    0    0    0    0  0.00000000000E+00  0.00000000000E+00  0.45593999997E+02  0.45594000000E+02  0.51100000000E-03 0. -1.
         11   -1    0    0    0    0 -0.00000000000E+00 -0.00000000000E+00 -0.45593999997E+02  0.45594000000E+02  0.51100000000E-03 0.  1.
    9900012    2    1    2    0    0 -0.92911684963E+01 -0.29902507804E+02 -0.25936134467E+02  0.50528820764E+02  0.29999881194E+02 0.  0.
         12    1    1    2    0    0  0.92911684963E+01  0.29902507804E+02  0.25936134467E+02  0.40659179236E+02  0.00000000000E+00 0. -1.
         11    1    3    3    0    0 -0.15689888849E+01  0.24414190639E+01 -0.17866124123E+01  0.34079667457E+01  0.51100000000E-03 0. -1.
        -11    1    3    3    0    0 -0.11335303097E+02 -0.19381423077E+02 -0.38716188776E+01  0.22784163135E+02  0.51100000000E-03 0.  1.
         12    1    3    3    0    0  0.36131234854E+01 -0.12962503791E+02 -0.20277903178E+02  0.24336690883E+02  0.00000000000E+00 0. -1.
</event>
<event>
 7    1  0.5005325E-012  0.5052885E+02  0.7816164E-02  0.1300439E+00
        -11   -1    0    0    0    0  0.00000000000E+00  0.00000000000E+00  0.45593999997E+02  0.45594000000E+02  0.51100000000E-03 0.  1.
         11   -1    0    0    0    0 -0.00000000000E+00 -0.00000000000E+00 -0.45593999997E+02  0.45594000000E+02  0.51100000000E-03 0. -1.
    9900012    2    1    2    0    0 -0.41421790275E+01 -0.39821875119E+02  0.70870823777E+01  0.50528854390E+02  0.29999983403E+02 0.  0.
        -12    1    1    2    0    0  0.41421790275E+01  0.39821875119E+02 -0.70870823777E+01  0.40659145610E+02  0.00000000000E+00 0.  1.
         11    1    3    3    0    0  0.19397097541E+01 -0.78132444231E+01 -0.25776040072E+01  0.84530056799E+01  0.51100000000E-03 0. -1.
        -11    1    3    3    0    0 -0.10117638873E+02 -0.41726619900E+01 -0.28211844046E+01  0.11302070879E+02  0.51100000000E-03 0.  1.
         12    1    3    3    0    0  0.40357500914E+01 -0.27835968706E+02  0.12485870789E+02  0.30773777831E+02  0.00000000000E+00 0. -1.
</event>
<event>
 7    1  0.5005325E-012  0.5052888E+02  0.7816164E-02  0.1300439E+00
        -11   -1    0    0    0    0  0.00000000000E+00  0.00000000000E+00  0.45593999997E+02  0.45594000000E+02  0.51100000000E-03 0. -1.
         11   -1    0    0    0    0 -0.00000000000E+00 -0.00000000000E+00 -0.45593999997E+02  0.45594000000E+02  0.51100000000E-03 0.  1.
    9900012    2    1    2    0    0 -0.17001151911E+02 -0.33174035631E+02 -0.16236012721E+02  0.50528881522E+02  0.30000065874E+02 0.  0.
         12    1    1    2    0    0  0.17001151911E+02  0.33174035631E+02  0.16236012721E+02  0.40659118478E+02  0.00000000000E+00 0. -1.
         11    1    3    3    0    0 -0.18731061876E+02 -0.21329649832E+02 -0.95977598215E+01  0.29965373931E+02  0.51100000000E-03 0. -1.
        -11    1    3    3    0    0 -0.12027663109E+00 -0.97738533891E-01  0.43617644868E+01  0.43645170395E+01  0.51100000000E-03 0.  1.
        -12    1    3    3    0    0  0.18501865961E+01 -0.11746647265E+02 -0.11000017386E+02  0.16198990552E+02  0.00000000000E+00 0.  1.
</event>
<event>
 7    1  0.5005325E-012  0.5052885E+02  0.7816164E-02  0.1300439E+00
        -11   -1    0    0    0    0  0.00000000000E+00  0.00000000000E+00  0.45593999997E+02  0.45594000000E+02  0.51100000000E-03 0. -1.
         11   -1    0    0    0    0 -0.00000000000E+00 -0.00000000000E+00 -0.45593999997E+02  0.45594000000E+02  0.51100000000E-03 0.  1.
    9900012    2    1    2    0    0 -0.62595970790E+01  0.29551998173E+02 -0.27215126953E+02  0.50528852362E+02  0.29999977239E+02 0.  0.
         12    1    1    2    0    0  0.62595970790E+01 -0.29551998173E+02  0.27215126953E+02  0.40659147638E+02  0.00000000000E+00 0. -1.
         11    1    3    3    0    0 -0.13000093185E+01  0.48575052500E+01  0.16256829273E+01  0.52847163333E+01  0.51100000000E-03 0. -1.
        -11    1    3    3    0    0 -0.11568134994E+02  0.25446827055E+02 -0.21000344971E+02  0.34962511975E+02  0.51100000000E-03 0.  1.
         12    1    3    3    0    0  0.66085472338E+01 -0.75233413233E+00 -0.78404649090E+01  0.10281624053E+02  0.00000000000E+00 0. -1.
</event>
<event>
 7    1  0.5005325E-012  0.5052886E+02  0.7816164E-02  0.1300439E+00
        -11   -1    0    0    0    0  0.00000000000E+00  0.00000000000E+00  0.45593999997E+02  0.45594000000E+02  0.51100000000E-03 0. -1.
         11   -1    0    0    0    0 -0.00000000000E+00 -0.00000000000E+00 -0.45593999997E+02  0.45594000000E+02  0.51100000000E-03 0.  1.
    9900012    2    1    2    0    0  0.33256056782E+02  0.38910951822E+01  0.23066424470E+02  0.50528857458E+02  0.29999992729E+02 0.  0.
        -12    1    1    2    0    0 -0.33256056782E+02 -0.38910951822E+01 -0.23066424470E+02  0.40659142542E+02  0.00000000000E+00 0.  1.
         11    1    3    3    0    0  0.70084046401E+01  0.36394059096E+00  0.88239423838E+01  0.11274402326E+02  0.51100000000E-03 0. -1.
        -11    1    3    3    0    0  0.20442720897E+02 -0.90508586290E+01  0.60520771407E+01  0.23161401460E+02  0.51100000000E-03 0.  1.
        -12    1    3    3    0    0  0.58049312452E+01  0.12578013220E+02  0.81904049456E+01  0.16093053672E+02  0.00000000000E+00 0.  1.
</event>
<event>
 7    1  0.5005325E-012  0.5052884E+02  0.7816164E-02  0.1300439E+00
        -11   -1    0    0    0    0  0.00000000000E+00  0.00000000000E+00  0.45593999997E+02  0.45594000000E+02  0.51100000000E-03 0. -1.
         11   -1    0    0    0    0 -0.00000000000E+00 -0.00000000000E+00 -0.45593999997E+02  0.45594000000E+02  0.51100000000E-03 0.  1.
    9900012    2    1    2    0    0  0.42118039155E+01  0.22307450959E+02  0.33731380267E+02  0.50528835286E+02  0.29999925336E+02 0.  0.
        -12    1    1    2    0    0 -0.42118039155E+01 -0.22307450959E+02 -0.33731380267E+02  0.40659164714E+02  0.00000000000E+00 0.  1.
         11    1    3    3    0    0  0.11284307313E+01  0.74879093924E+01  0.21882488535E+02  0.23155678520E+02  0.51100000000E-03 0. -1.
        -11    1    3    3    0    0 -0.75235498386E+01  0.94781487634E+01  0.27433707321E+01  0.12408271007E+02  0.51100000000E-03 0.  1.
        -12    1    3    3    0    0  0.10606923023E+02  0.53413928030E+01  0.91055210000E+01  0.14964885759E+02  0.00000000000E+00 0.  1.
</event>
<event>
 7    1  0.5005325E-012  0.5052886E+02  0.7816164E-02  0.1300439E+00
        -11   -1    0    0    0    0  0.00000000000E+00  0.00000000000E+00  0.45593999997E+02  0.45594000000E+02  0.51100000000E-03 0.  1.
         11   -1    0    0    0    0 -0.00000000000E+00 -0.00000000000E+00 -0.45593999997E+02  0.45594000000E+02  0.51100000000E-03 0. -1.
    9900012    2    1    2    0    0 -0.55832577949E+01  0.30911579834E+02  0.25816028027E+02  0.50528857872E+02  0.29999993989E+02 0.  0.
        -12    1    1    2    0    0  0.55832577949E+01 -0.30911579834E+02 -0.25816028027E+02  0.40659142128E+02  0.00000000000E+00 0.  1.
         11    1    3    3    0    0  0.69007603906E+00  0.21036196251E+02  0.24708771164E+01  0.21192050199E+02  0.51100000000E-03 0. -1.
        -11    1    3    3    0    0 -0.95129079032E+01  0.98561734811E+01  0.21802669599E+02  0.25748708208E+02  0.51100000000E-03 0.  1.
         12    1    3    3    0    0  0.32395740692E+01  0.19210101996E-01  0.15424813120E+01  0.35880994657E+01  0.00000000000E+00 0. -1.
</event>
<event>
 7    1  0.5005325E-012  0.5052886E+02  0.7816164E-02  0.1300439E+00
        -11   -1    0    0    0    0  0.00000000000E+00  0.00000000000E+00  0.45593999997E+02  0.45594000000E+02  0.51100000000E-03 0. -1.
         11   -1    0    0    0    0 -0.00000000000E+00 -0.00000000000E+00 -0.45593999997E+02  0.45594000000E+02  0.51100000000E-03 0.  1.
    9900012    2    1    2    0    0  0.20172277456E+01 -0.29789513043E+02  0.27598582708E+02  0.50528855117E+02  0.29999985615E+02 0.  0.
        -12    1    1    2    0    0 -0.20172277456E+01  0.29789513043E+02 -0.27598582708E+02  0.40659144883E+02  0.00000000000E+00 0.  1.
         11    1    3    3    0    0  0.14568228551E+01 -0.10276487460E+02  0.25129000638E+02  0.27188144487E+02  0.51100000000E-03 0. -1.
        -11    1    3    3    0    0 -0.20689821873E+01  0.11387000729E+01 -0.10325011952E+00  0.23638921286E+01  0.51100000000E-03 0.  1.
         12    1    3    3    0    0  0.26293870778E+01 -0.20651725656E+02  0.25728321898E+01  0.20976818502E+02  0.00000000000E+00 0. -1.
</event>
<event>
 7    1  0.5005325E-012  0.5052885E+02  0.7816164E-02  0.1300439E+00
        -11   -1    0    0    0    0  0.00000000000E+00  0.00000000000E+00  0.45593999997E+02  0.45594000000E+02  0.51100000000E-03 0. -1.
         11   -1    0    0    0    0 -0.00000000000E+00 -0.00000000000E+00 -0.45593999997E+02  0.45594000000E+02  0.51100000000E-03 0.  1.
    9900012    2    1    2    0    0 -0.15884700999E+02 -0.26642231841E+02  0.26287524497E+02  0.50528853582E+02  0.29999980947E+02 0.  0.
        -12    1    1    2    0    0  0.15884700999E+02  0.26642231841E+02 -0.26287524497E+02  0.40659146418E+02  0.00000000000E+00 0.  1.
         11    1    3    3    0    0 -0.12317555009E+02 -0.21115990170E+02  0.13056966379E+02  0.27714465059E+02  0.51100000000E-03 0. -1.
        -11    1    3    3    0    0 -0.61711232679E+01 -0.79305681875E+01  0.10205694262E+01  0.10100407733E+02  0.51100000000E-03 0.  1.
         12    1    3    3    0    0  0.26039772779E+01  0.24043265160E+01  0.12209988692E+02  0.12713980789E+02  0.00000000000E+00 0. -1.
</event>
<event>
 7    1  0.5005325E-012  0.5052884E+02  0.7816164E-02  0.1300439E+00
        -11   -1    0    0    0    0  0.00000000000E+00  0.00000000000E+00  0.45593999997E+02  0.45594000000E+02  0.51100000000E-03 0. -1.
         11   -1    0    0    0    0 -0.00000000000E+00 -0.00000000000E+00 -0.45593999997E+02  0.45594000000E+02  0.51100000000E-03 0.  1.
    9900012    2    1    2    0    0 -0.16185557412E+02 -0.25356009474E+02 -0.27354484693E+02  0.50528839679E+02  0.29999938688E+02 0.  0.
         12    1    1    2    0    0  0.16185557412E+02  0.25356009474E+02  0.27354484693E+02  0.40659160321E+02  0.00000000000E+00 0. -1.
         11    1    3    3    0    0  0.55992848589E+00 -0.66629252133E+01 -0.25741551591E+01  0.71648005801E+01  0.51100000000E-03 0. -1.
        -11    1    3    3    0    0  0.92418882082E+00 -0.69246689010E+01  0.36496725490E+01  0.78819587883E+01  0.51100000000E-03 0.  1.
        -12    1    3    3    0    0 -0.17669674719E+02 -0.11768415360E+02 -0.28430002083E+02  0.35482080311E+02  0.00000000000E+00 0.  1.
</event>
<event>
 7    1  0.5005325E-012  0.5052886E+02  0.7816164E-02  0.1300439E+00
        -11   -1    0    0    0    0  0.00000000000E+00  0.00000000000E+00  0.45593999997E+02  0.45594000000E+02  0.51100000000E-03 0. -1.
         11   -1    0    0    0    0 -0.00000000000E+00 -0.00000000000E+00 -0.45593999997E+02  0.45594000000E+02  0.51100000000E-03 0.  1.
    9900012    2    1    2    0    0  0.31326922495E+02 -0.89576440928E+01 -0.24321805345E+02  0.50528859872E+02  0.30000000068E+02 0.  0.
         12    1    1    2    0    0 -0.31326922495E+02  0.89576440928E+01  0.24321805345E+02  0.40659140128E+02  0.00000000000E+00 0. -1.
         11    1    3    3    0    0  0.86293093408E+01 -0.39075195921E+01  0.20516076061E+01  0.96924085290E+01  0.51100000000E-03 0. -1.
        -11    1    3    3    0    0  0.19835817337E+02  0.44297334836E+01 -0.12743533172E+02  0.23989160597E+02  0.51100000000E-03 0.  1.
         12    1    3    3    0    0  0.28617958164E+01 -0.94798579843E+01 -0.13629879780E+02  0.16847290747E+02  0.00000000000E+00 0. -1.
</event>
<event>
 7    1  0.5005325E-012  0.5052887E+02  0.7816164E-02  0.1300439E+00
        -11   -1    0    0    0    0  0.00000000000E+00  0.00000000000E+00  0.45593999997E+02  0.45594000000E+02  0.51100000000E-03 0. -1.
         11   -1    0    0    0    0 -0.00000000000E+00 -0.00000000000E+00 -0.45593999997E+02  0.45594000000E+02  0.51100000000E-03 0.  1.
    9900012    2    1    2    0    0 -0.43113802123E+01  0.51879015763E+00  0.40426569813E+02  0.50528872004E+02  0.30000036943E+02 0.  0.
        -12    1    1    2    0    0  0.43113802123E+01 -0.51879015763E+00 -0.40426569813E+02  0.40659127996E+02  0.00000000000E+00 0.  1.
         11    1    3    3    0    0 -0.47387448522E+01  0.87321500380E-02  0.35392833874E+02  0.35708660979E+02  0.51100000000E-03 0. -1.
        -11    1    3    3    0    0  0.41869768138E+01  0.42864168278E+01  0.69325994225E+01  0.91632460992E+01  0.51100000000E-03 0.  1.
        -12    1    3    3    0    0 -0.37596121738E+01 -0.37763588202E+01 -0.18988634838E+01  0.56569649254E+01  0.00000000000E+00 0.  1.
</event>
<event>
 7    1  0.5005325E-012  0.5052886E+02  0.7816164E-02  0.1300439E+00
        -11   -1    0    0    0    0  0.00000000000E+00  0.00000000000E+00  0.45593999997E+02  0.45594000000E+02  0.51100000000E-03 0. -1.
         11   -1    0    0    0    0 -0.00000000000E+00 -0.00000000000E+00 -0.45593999997E+02  0.45594000000E+02  0.51100000000E-03 0.  1.
    9900012    2    1    2    0    0 -0.25254789825E+02  0.21849977463E+02  0.23193528387E+02  0.50528859782E+02  0.29999999792E+02 0.  0.
        -12    1    1    2    0    0  0.25254789825E+02 -0.21849977463E+02 -0.23193528387E+02  0.40659140218E+02  0.00000000000E+00 0.  1.
         11    1    3    3    0    0 -0.39893296142E+01  0.67902260688E+00 -0.11865099192E+01  0.42170639693E+01  0.51100000000E-03 0. -1.
        -11    1    3    3    0    0 -0.19114867465E+02  0.12523812810E+01  0.96785622151E+01  0.21462087128E+02  0.51100000000E-03 0.  1.
         12    1    3    3    0    0 -0.21505927458E+01  0.19918573575E+02  0.14701476091E+02  0.24849708684E+02  0.00000000000E+00 0. -1.
</event>
<event>
 7    1  0.5005325E-012  0.5052886E+02  0.7816164E-02  0.1300439E+00
        -11   -1    0    0    0    0  0.00000000000E+00  0.00000000000E+00  0.45593999997E+02  0.45594000000E+02  0.51100000000E-03 0. -1.
         11   -1    0    0    0    0 -0.00000000000E+00 -0.00000000000E+00 -0.45593999997E+02  0.45594000000E+02  0.51100000000E-03 0.  1.
    9900012    2    1    2    0    0  0.27992477860E+02  0.93208103912E+01  0.27976949558E+02  0.50528855522E+02  0.29999986845E+02 0.  0.
        -12    1    1    2    0    0 -0.27992477860E+02 -0.93208103912E+01 -0.27976949558E+02  0.40659144478E+02  0.00000000000E+00 0.  1.
         11    1    3    3    0    0  0.10290939102E+02 -0.37992377662E+01  0.12167517870E+02  0.16382494516E+02  0.51100000000E-03 0. -1.
        -11    1    3    3    0    0  0.10407259519E+02  0.13249457116E+02  0.19664496413E+02  0.25895010794E+02  0.51100000000E-03 0.  1.
        -12    1    3    3    0    0  0.72942792392E+01 -0.12940895898E+00 -0.38550647243E+01  0.82513502123E+01  0.00000000000E+00 0.  1.
</event>
<event>
 7    1  0.5005325E-012  0.5052887E+02  0.7816164E-02  0.1300439E+00
        -11   -1    0    0    0    0  0.00000000000E+00  0.00000000000E+00  0.45593999997E+02  0.45594000000E+02  0.51100000000E-03 0. -1.
         11   -1    0    0    0    0 -0.00000000000E+00 -0.00000000000E+00 -0.45593999997E+02  0.45594000000E+02  0.51100000000E-03 0.  1.
    9900012    2    1    2    0    0 -0.28637466362E+01  0.13570184822E+01 -0.40535442827E+02  0.50528872253E+02  0.30000037700E+02 0.  0.
         12    1    1    2    0    0  0.28637466362E+01 -0.13570184822E+01  0.40535442827E+02  0.40659127747E+02  0.00000000000E+00 0. -1.
         11    1    3    3    0    0  0.19896683635E+01  0.61260968680E+01 -0.63764297368E+01  0.90634816424E+01  0.51100000000E-03 0. -1.
        -11    1    3    3    0    0 -0.81264977392E+01 -0.43562121485E+01 -0.23894804092E+01  0.95250284343E+01  0.51100000000E-03 0.  1.
        -12    1    3    3    0    0  0.32730827395E+01 -0.41286623733E+00 -0.31769532681E+02  0.31940362176E+02  0.00000000000E+00 0.  1.
</event>
<event>
 7    1  0.5005325E-012  0.5052886E+02  0.7816164E-02  0.1300439E+00
        -11   -1    0    0    0    0  0.00000000000E+00  0.00000000000E+00  0.45593999997E+02  0.45594000000E+02  0.51100000000E-03 0. -1.
         11   -1    0    0    0    0 -0.00000000000E+00 -0.00000000000E+00 -0.45593999997E+02  0.45594000000E+02  0.51100000000E-03 0.  1.
    9900012    2    1    2    0    0 -0.24739644085E+00  0.38506554551E+02  0.13051796865E+02  0.50528863883E+02  0.30000012258E+02 0.  0.
        -12    1    1    2    0    0  0.24739644085E+00 -0.38506554551E+02 -0.13051796865E+02  0.40659136117E+02  0.00000000000E+00 0.  1.
         11    1    3    3    0    0  0.55533405599E+01  0.17275050722E+01 -0.45702928622E-01  0.58160084394E+01  0.51100000000E-03 0. -1.
        -11    1    3    3    0    0 -0.35258438440E+01 -0.18586070631E+01  0.19361673982E+01  0.44311104119E+01  0.51100000000E-03 0.  1.
         12    1    3    3    0    0 -0.22748931567E+01  0.38637656542E+02  0.11161332396E+02  0.40281745031E+02  0.00000000000E+00 0. -1.
</event>
<event>
 7    1  0.5005325E-012  0.5052886E+02  0.7816164E-02  0.1300439E+00
        -11   -1    0    0    0    0  0.00000000000E+00  0.00000000000E+00  0.45593999997E+02  0.45594000000E+02  0.51100000000E-03 0. -1.
         11   -1    0    0    0    0 -0.00000000000E+00 -0.00000000000E+00 -0.45593999997E+02  0.45594000000E+02  0.51100000000E-03 0.  1.
    9900012    2    1    2    0    0  0.99566522981E+01  0.34665845437E+02  0.18769913210E+02  0.50528863182E+02  0.30000010129E+02 0.  0.
        -12    1    1    2    0    0 -0.99566522981E+01 -0.34665845437E+02 -0.18769913210E+02  0.40659136818E+02  0.00000000000E+00 0.  1.
         11    1    3    3    0    0  0.60404962990E+01  0.60436296691E+01  0.17049936010E+02  0.19071270889E+02  0.51100000000E-03 0.  1.
        -11    1    3    3    0    0  0.70401380705E+01  0.85378142169E+01  0.11232764224E+01  0.11122929733E+02  0.51100000000E-03 0. -1.
        -12    1    3    3    0    0 -0.31239820713E+01  0.20084401551E+02  0.59670077756E+00  0.20334662561E+02  0.00000000000E+00 0.  1.
</event>
<event>
 7    1  0.5005325E-012  0.5052886E+02  0.7816164E-02  0.1300439E+00
        -11   -1    0    0    0    0  0.00000000000E+00  0.00000000000E+00  0.45593999997E+02  0.45594000000E+02  0.51100000000E-03 0. -1.
         11   -1    0    0    0    0 -0.00000000000E+00 -0.00000000000E+00 -0.45593999997E+02  0.45594000000E+02  0.51100000000E-03 0.  1.
    9900012    2    1    2    0    0 -0.19301504009E+02 -0.10975462121E+02 -0.34061077227E+02  0.50528858253E+02  0.29999995145E+02 0.  0.
         12    1    1    2    0    0  0.19301504009E+02  0.10975462121E+02  0.34061077227E+02  0.40659141747E+02  0.00000000000E+00 0. -1.
         11    1    3    3    0    0  0.12804454771E+01  0.54024814557E+01 -0.78164006260E+01  0.95876204298E+01  0.51100000000E-03 0. -1.
        -11    1    3    3    0    0 -0.28284877677E+01 -0.31814908922E+01  0.22919964573E+01  0.48348190629E+01  0.51100000000E-03 0.  1.
        -12    1    3    3    0    0 -0.17753461718E+02 -0.13196452684E+02 -0.28536673058E+02  0.36106418760E+02  0.00000000000E+00 0.  1.
</event>
<event>
 7    1  0.5005325E-012  0.5052886E+02  0.7816164E-02  0.1300439E+00
        -11   -1    0    0    0    0  0.00000000000E+00  0.00000000000E+00  0.45593999997E+02  0.45594000000E+02  0.51100000000E-03 0. -1.
         11   -1    0    0    0    0 -0.00000000000E+00 -0.00000000000E+00 -0.45593999997E+02  0.45594000000E+02  0.51100000000E-03 0.  1.
    9900012    2    1    2    0    0  0.20870818617E+02  0.89851060171E+01  0.33717093840E+02  0.50528860598E+02  0.30000002274E+02 0.  0.
        -12    1    1    2    0    0 -0.20870818617E+02 -0.89851060171E+01 -0.33717093840E+02  0.40659139402E+02  0.00000000000E+00 0.  1.
         11    1    3    3    0    0  0.20823323400E+02  0.15736099333E+02  0.16336696572E+02  0.30791610462E+02  0.51100000000E-03 0. -1.
        -11    1    3    3    0    0 -0.30576470854E+01 -0.20207449096E+01  0.60763338145E+01  0.70960868494E+01  0.51100000000E-03 0.  1.
        -12    1    3    3    0    0  0.31051423022E+01 -0.47302484066E+01  0.11304063453E+02  0.12641163287E+02  0.00000000000E+00 0.  1.
</event>
<event>
 7    1  0.5005325E-012  0.5052887E+02  0.7816164E-02  0.1300439E+00
        -11   -1    0    0    0    0  0.00000000000E+00  0.00000000000E+00  0.45593999997E+02  0.45594000000E+02  0.51100000000E-03 0. -1.
         11   -1    0    0    0    0 -0.00000000000E+00 -0.00000000000E+00 -0.45593999997E+02  0.45594000000E+02  0.51100000000E-03 0.  1.
    9900012    2    1    2    0    0 -0.11101620796E+01 -0.10975057924E+02 -0.39134138892E+02  0.50528865932E+02  0.30000018488E+02 0.  0.
         12    1    1    2    0    0  0.11101620796E+01  0.10975057924E+02  0.39134138892E+02  0.40659134068E+02  0.00000000000E+00 0. -1.
         11    1    3    3    0    0  0.12077534560E+02 -0.43265631194E+01 -0.15462361915E+02  0.20091556080E+02  0.51100000000E-03 0.  1.
        -11    1    3    3    0    0 -0.72320500812E+01  0.18912145803E+01 -0.47986222984E+01  0.88829058978E+01  0.51100000000E-03 0. -1.
        -12    1    3    3    0    0 -0.59556465580E+01 -0.85397093847E+01 -0.18873154679E+02  0.21554403955E+02  0.00000000000E+00 0.  1.
</event>
<event>
 7    1  0.5005325E-012  0.5052887E+02  0.7816164E-02  0.1300439E+00
        -11   -1    0    0    0    0  0.00000000000E+00  0.00000000000E+00  0.45593999997E+02  0.45594000000E+02  0.51100000000E-03 0. -1.
         11   -1    0    0    0    0 -0.00000000000E+00 -0.00000000000E+00 -0.45593999997E+02  0.45594000000E+02  0.51100000000E-03 0.  1.
    9900012    2    1    2    0    0  0.26816710244E+02  0.30246502346E+02  0.43792317341E+01  0.50528874049E+02  0.30000043160E+02 0.  0.
         12    1    1    2    0    0 -0.26816710244E+02 -0.30246502346E+02 -0.43792317341E+01  0.40659125951E+02  0.00000000000E+00 0. -1.
         11    1    3    3    0    0 -0.36092504412E+01  0.80608020565E+01 -0.29156879506E+01  0.93007771196E+01  0.51100000000E-03 0. -1.
        -11    1    3    3    0    0  0.18914999254E+01  0.44725119949E+01  0.58621840086E+01  0.76122491502E+01  0.51100000000E-03 0.  1.
        -12    1    3    3    0    0  0.28534460760E+02  0.17713188294E+02  0.14327356761E+01  0.33615847780E+02  0.00000000000E+00 0.  1.
</event>
<event>
 7    1  0.5005325E-012  0.5052886E+02  0.7816164E-02  0.1300439E+00
        -11   -1    0    0    0    0  0.00000000000E+00  0.00000000000E+00  0.45593999997E+02  0.45594000000E+02  0.51100000000E-03 0. -1.
         11   -1    0    0    0    0 -0.00000000000E+00 -0.00000000000E+00 -0.45593999997E+02  0.45594000000E+02  0.51100000000E-03 0.  1.
    9900012    2    1    2    0    0 -0.81269118873E+01 -0.47602268919E+01  0.39553243323E+02  0.50528861861E+02  0.30000006112E+02 0.  0.
        -12    1    1    2    0    0  0.81269118873E+01  0.47602268919E+01 -0.39553243323E+02  0.40659138139E+02  0.00000000000E+00 0.  1.
         11    1    3    3    0    0  0.63164133525E+01  0.22316546204E+01  0.90291247364E+01  0.11242884583E+02  0.51100000000E-03 0. -1.
        -11    1    3    3    0    0  0.17434097939E+01  0.41487555964E+01  0.27854656826E+01  0.52924918553E+01  0.51100000000E-03 0.  1.
        -12    1    3    3    0    0 -0.16186735034E+02 -0.11140637109E+02  0.27738652904E+02  0.33993485422E+02  0.00000000000E+00 0.  1.
</event>
<event>
 7    1  0.7080545E-012  0.5052886E+02  0.7816164E-02  0.1300439E+00
        -11   -1    0    0    0    0  0.00000000000E+00  0.00000000000E+00  0.45593999997E+02  0.45594000000E+02  0.51100000000E-03 0. -1.
         11   -1    0    0    0    0 -0.00000000000E+00 -0.00000000000E+00 -0.45593999997E+02  0.45594000000E+02  0.51100000000E-03 0.  1.
    9900012    2    1    2    0    0  0.16391513922E+02  0.26488333478E+02  0.26131442771E+02  0.50528857850E+02  0.29999993921E+02 0.  0.
        -12    1    1    2    0    0 -0.16391513922E+02 -0.26488333478E+02 -0.26131442771E+02  0.40659142150E+02  0.00000000000E+00 0.  1.
         11    1    3    3    0    0  0.16025442374E+02  0.14945759385E+02  0.16235656015E+02  0.27272459614E+02  0.51100000000E-03 0. -1.
        -11    1    3    3    0    0  0.24606738256E+01  0.13604821182E+02  0.97054621890E+00  0.13859582797E+02  0.51100000000E-03 0.  1.
        -12    1    3    3    0    0 -0.20946022777E+01 -0.20622470895E+01  0.89252405370E+01  0.93968154394E+01  0.00000000000E+00 0.  1.
</event>
<event>
 7    1  0.5005325E-012  0.5052888E+02  0.7816164E-02  0.1300439E+00
        -11   -1    0    0    0    0  0.00000000000E+00  0.00000000000E+00  0.45593999997E+02  0.45594000000E+02  0.51100000000E-03 0. -1.
         11   -1    0    0    0    0 -0.00000000000E+00 -0.00000000000E+00 -0.45593999997E+02  0.45594000000E+02  0.51100000000E-03 0.  1.
    9900012    2    1    2    0    0  0.22784789816E+02 -0.71481743922E+01  0.32907769385E+02  0.50528876424E+02  0.30000050378E+02 0.  0.
        -12    1    1    2    0    0 -0.22784789816E+02  0.71481743922E+01 -0.32907769385E+02  0.40659123576E+02  0.00000000000E+00 0.  1.
         11    1    3    3    0    0  0.85436649782E+01 -0.20764039371E+01 -0.20350271419E+01  0.90247991833E+01  0.51100000000E-03 0. -1.
        -11    1    3    3    0    0 -0.15742262317E+01  0.14888149939E+01  0.15273187475E+02  0.15426114684E+02  0.51100000000E-03 0.  1.
         12    1    3    3    0    0  0.15815351069E+02 -0.65605854489E+01  0.19669609051E+02  0.26077962557E+02  0.00000000000E+00 0. -1.
</event>
<event>
 7    1  0.5005325E-012  0.5052886E+02  0.7816164E-02  0.1300439E+00
        -11   -1    0    0    0    0  0.00000000000E+00  0.00000000000E+00  0.45593999997E+02  0.45594000000E+02  0.51100000000E-03 0. -1.
         11   -1    0    0    0    0 -0.00000000000E+00 -0.00000000000E+00 -0.45593999997E+02  0.45594000000E+02  0.51100000000E-03 0.  1.
    9900012    2    1    2    0    0  0.65546703919E+00 -0.10607574578E+02  0.39245581488E+02  0.50528856603E+02  0.29999990130E+02 0.  0.
        -12    1    1    2    0    0 -0.65546703919E+00  0.10607574578E+02 -0.39245581488E+02  0.40659143397E+02  0.00000000000E+00 0.  1.
         11    1    3    3    0    0  0.91425035186E+01 -0.92393632856E+01  0.29239977982E+02  0.31998867435E+02  0.51100000000E-03 0. -1.
        -11    1    3    3    0    0  0.13773855916E+01 -0.43732563685E+01  0.69643574209E+00  0.46376271235E+01  0.51100000000E-03 0.  1.
         12    1    3    3    0    0 -0.98644220710E+01  0.30050450764E+01  0.93091677642E+01  0.13892362044E+02  0.00000000000E+00 0. -1.
</event>
<event>
 7    1  0.5005325E-012  0.5052886E+02  0.7816164E-02  0.1300439E+00
        -11   -1    0    0    0    0  0.00000000000E+00  0.00000000000E+00  0.45593999997E+02  0.45594000000E+02  0.51100000000E-03 0. -1.
         11   -1    0    0    0    0 -0.00000000000E+00 -0.00000000000E+00 -0.45593999997E+02  0.45594000000E+02  0.51100000000E-03 0.  1.
    9900012    2    1    2    0    0  0.24837849012E+01  0.18483122422E+02 -0.36129918961E+02  0.50528855321E+02  0.29999986234E+02 0.  0.
         12    1    1    2    0    0 -0.24837849012E+01 -0.18483122422E+02  0.36129918961E+02  0.40659144679E+02  0.00000000000E+00 0. -1.
         11    1    3    3    0    0  0.15295872609E+01  0.11690334881E+02 -0.35281988693E+02  0.37199762004E+02  0.51100000000E-03 0. -1.
        -11    1    3    3    0    0 -0.26290597234E+01 -0.11798659416E+01 -0.31710077385E+01  0.42847787583E+01  0.51100000000E-03 0.  1.
         12    1    3    3    0    0  0.35832573637E+01  0.79726534834E+01  0.23230774703E+01  0.90443145585E+01  0.00000000000E+00 0. -1.
</event>
<event>
 7    1  0.5005325E-012  0.5052879E+02  0.7816164E-02  0.1300439E+00
        -11   -1    0    0    0    0  0.00000000000E+00  0.00000000000E+00  0.45593999997E+02  0.45594000000E+02  0.51100000000E-03 0. -1.
         11   -1    0    0    0    0 -0.00000000000E+00 -0.00000000000E+00 -0.45593999997E+02  0.45594000000E+02  0.51100000000E-03 0.  1.
    9900012    2    1    2    0    0  0.13770315885E+02 -0.40999080495E+01  0.38036047031E+02  0.50528785554E+02  0.29999774170E+02 0.  0.
        -12    1    1    2    0    0 -0.13770315885E+02  0.40999080495E+01 -0.38036047031E+02  0.40659214446E+02  0.00000000000E+00 0.  1.
         11    1    3    3    0    0  0.62029779204E+00  0.36324566225E+00  0.95034507268E+01  0.95305977115E+01  0.51100000000E-03 0. -1.
        -11    1    3    3    0    0 -0.15648426605E+01  0.55648897660E+01 -0.15993255631E+01  0.59978807239E+01  0.51100000000E-03 0.  1.
         12    1    3    3    0    0  0.14714860753E+02 -0.10028043478E+02  0.30131921868E+02  0.35000307119E+02  0.00000000000E+00 0. -1.
</event>
<event>
 7    1  0.5005325E-012  0.5052885E+02  0.7816164E-02  0.1300439E+00
        -11   -1    0    0    0    0  0.00000000000E+00  0.00000000000E+00  0.45593999997E+02  0.45594000000E+02  0.51100000000E-03 0. -1.
         11   -1    0    0    0    0 -0.00000000000E+00 -0.00000000000E+00 -0.45593999997E+02  0.45594000000E+02  0.51100000000E-03 0.  1.
    9900012    2    1    2    0    0  0.31311402915E+02  0.25675199652E+01 -0.25810270854E+02  0.50528853516E+02  0.29999980746E+02 0.  0.
         12    1    1    2    0    0 -0.31311402915E+02 -0.25675199652E+01  0.25810270854E+02  0.40659146484E+02  0.00000000000E+00 0. -1.
         11    1    3    3    0    0  0.16782262823E+02 -0.68208963715E+01 -0.18996797606E+02  0.26249710329E+02  0.51100000000E-03 0. -1.
        -11    1    3    3    0    0  0.65461092864E+01 -0.20167399136E+01 -0.77292279490E+01  0.10327620811E+02  0.51100000000E-03 0.  1.
         12    1    3    3    0    0  0.79830308053E+01  0.11405156250E+02  0.91575470123E+00  0.13951522376E+02  0.00000000000E+00 0. -1.
</event>
<event>
 7    1  0.5005325E-012  0.5052880E+02  0.7816164E-02  0.1300439E+00
        -11   -1    0    0    0    0  0.00000000000E+00  0.00000000000E+00  0.45593999997E+02  0.45594000000E+02  0.51100000000E-03 0. -1.
         11   -1    0    0    0    0 -0.00000000000E+00 -0.00000000000E+00 -0.45593999997E+02  0.45594000000E+02  0.51100000000E-03 0.  1.
    9900012    2    1    2    0    0 -0.91612986216E+00  0.18124079857E+02  0.36384739444E+02  0.50528796504E+02  0.29999807452E+02 0.  0.
        -12    1    1    2    0    0  0.91612986216E+00 -0.18124079857E+02 -0.36384739444E+02  0.40659203496E+02  0.00000000000E+00 0.  1.
         11    1    3    3    0    0  0.51584867690E+01 -0.10463759427E+00  0.27766634592E+01  0.58592486719E+01  0.51100000000E-03 0.  1.
        -11    1    3    3    0    0 -0.43296925638E+01  0.21950629611E+02  0.33822966387E+02  0.40553291278E+02  0.51100000000E-03 0. -1.
         12    1    3    3    0    0 -0.17449240673E+01 -0.37219121600E+01 -0.21489040289E+00  0.41162565533E+01  0.00000000000E+00 0. -1.
</event>
<event>
 7    1  0.5005325E-012  0.5052886E+02  0.7816164E-02  0.1300439E+00
        -11   -1    0    0    0    0  0.00000000000E+00  0.00000000000E+00  0.45593999997E+02  0.45594000000E+02  0.51100000000E-03 0. -1.
         11   -1    0    0    0    0 -0.00000000000E+00 -0.00000000000E+00 -0.45593999997E+02  0.45594000000E+02  0.51100000000E-03 0.  1.
    9900012    2    1    2    0    0  0.35369531778E+01 -0.28165911603E+02 -0.29109054387E+02  0.50528860049E+02  0.30000000606E+02 0.  0.
         12    1    1    2    0    0 -0.35369531778E+01  0.28165911603E+02  0.29109054387E+02  0.40659139951E+02  0.00000000000E+00 0. -1.
         11    1    3    3    0    0  0.27608496240E+01  0.36541053134E+01 -0.40765102338E+00  0.45979295238E+01  0.51100000000E-03 0. -1.
        -11    1    3    3    0    0 -0.72742960287E+01 -0.86403570181E+01 -0.82331117156E+01  0.13976955351E+02  0.51100000000E-03 0.  1.
        -12    1    3    3    0    0  0.80503995825E+01 -0.23179659898E+02 -0.20468291648E+02  0.31953975174E+02  0.00000000000E+00 0.  1.
</event>
<event>
 7    1  0.5005325E-012  0.5052885E+02  0.7816164E-02  0.1300439E+00
        -11   -1    0    0    0    0  0.00000000000E+00  0.00000000000E+00  0.45593999997E+02  0.45594000000E+02  0.51100000000E-03 0. -1.
         11   -1    0    0    0    0 -0.00000000000E+00 -0.00000000000E+00 -0.45593999997E+02  0.45594000000E+02  0.51100000000E-03 0.  1.
    9900012    2    1    2    0    0  0.35167856225E+00  0.38564170495E+01 -0.40474320809E+02  0.50528852502E+02  0.29999977666E+02 0.  0.
         12    1    1    2    0    0 -0.35167856225E+00 -0.38564170495E+01  0.40474320809E+02  0.40659147498E+02  0.00000000000E+00 0. -1.
         11    1    3    3    0    0  0.74906380599E+01  0.48791982797E+01 -0.61519941703E+01  0.10851878498E+02  0.51100000000E-03 0. -1.
        -11    1    3    3    0    0 -0.77951860569E+01  0.77902432073E+01 -0.17673110286E+02  0.20827665312E+02  0.51100000000E-03 0.  1.
        -12    1    3    3    0    0  0.65622655922E+00 -0.88130244375E+01 -0.16649216353E+02  0.18849308693E+02  0.00000000000E+00 0.  1.
</event>
<event>
 7    1  0.5005325E-012  0.5052886E+02  0.7816164E-02  0.1300439E+00
        -11   -1    0    0    0    0  0.00000000000E+00  0.00000000000E+00  0.45593999997E+02  0.45594000000E+02  0.51100000000E-03 0. -1.
         11   -1    0    0    0    0 -0.00000000000E+00 -0.00000000000E+00 -0.45593999997E+02  0.45594000000E+02  0.51100000000E-03 0.  1.
    9900012    2    1    2    0    0 -0.33126957779E+02 -0.91352598542E+01  0.21732866930E+02  0.50528858232E+02  0.29999995083E+02 0.  0.
        -12    1    1    2    0    0  0.33126957779E+02  0.91352598542E+01 -0.21732866930E+02  0.40659141768E+02  0.00000000000E+00 0.  1.
         11    1    3    3    0    0 -0.34475256385E+02 -0.75766911342E+01  0.25523874006E+02  0.43559358304E+02  0.51100000000E-03 0. -1.
        -11    1    3    3    0    0 -0.75250377035E+00 -0.30750976950E+01 -0.14680537847E+01  0.34896518356E+01  0.51100000000E-03 0.  1.
        -12    1    3    3    0    0  0.21008023764E+01  0.15165289749E+01 -0.23229532906E+01  0.34798480925E+01  0.00000000000E+00 0.  1.
</event>
<event>
 7    1  0.5005325E-012  0.5052884E+02  0.7816164E-02  0.1300439E+00
        -11   -1    0    0    0    0  0.00000000000E+00  0.00000000000E+00  0.45593999997E+02  0.45594000000E+02  0.51100000000E-03 0. -1.
         11   -1    0    0    0    0 -0.00000000000E+00 -0.00000000000E+00 -0.45593999997E+02  0.45594000000E+02  0.51100000000E-03 0.  1.
    9900012    2    1    2    0    0  0.14482020296E+02  0.13210789272E+02  0.35621806070E+02  0.50528844417E+02  0.29999953090E+02 0.  0.
        -12    1    1    2    0    0 -0.14482020296E+02 -0.13210789272E+02 -0.35621806070E+02  0.40659155583E+02  0.00000000000E+00 0.  1.
         11    1    3    3    0    0 -0.10805364895E+01  0.23683956902E+01 -0.14995065790E+01  0.30042266047E+01  0.51100000000E-03 0. -1.
        -11    1    3    3    0    0  0.87731772797E+01 -0.65814467857E+01  0.13207586607E+02  0.17167539883E+02  0.51100000000E-03 0.  1.
         12    1    3    3    0    0  0.67893795062E+01  0.17423840368E+02  0.23913726041E+02  0.30357077929E+02  0.00000000000E+00 0. -1.
</event>
<event>
 7    1  0.5005325E-012  0.5052886E+02  0.7816164E-02  0.1300439E+00
        -11   -1    0    0    0    0  0.00000000000E+00  0.00000000000E+00  0.45593999997E+02  0.45594000000E+02  0.51100000000E-03 0. -1.
         11   -1    0    0    0    0 -0.00000000000E+00 -0.00000000000E+00 -0.45593999997E+02  0.45594000000E+02  0.51100000000E-03 0.  1.
    9900012    2    1    2    0    0  0.13727107145E+02  0.17526868211E+01 -0.38231662856E+02  0.50528862941E+02  0.30000009396E+02 0.  0.
         12    1    1    2    0    0 -0.13727107145E+02 -0.17526868211E+01  0.38231662856E+02  0.40659137059E+02  0.00000000000E+00 0. -1.
         11    1    3    3    0    0 -0.14436854172E+01  0.79437705127E+00  0.15754022033E+01  0.22797269238E+01  0.51100000000E-03 0. -1.
        -11    1    3    3    0    0 -0.10193882942E+01  0.67607653630E+01 -0.23769538565E+02  0.24733339132E+02  0.51100000000E-03 0.  1.
        -12    1    3    3    0    0  0.16190180857E+02 -0.58024555932E+01 -0.16037526494E+02  0.23515796885E+02  0.00000000000E+00 0.  1.
</event>
<event>
 7    1  0.5005325E-012  0.5052886E+02  0.7816164E-02  0.1300439E+00
        -11   -1    0    0    0    0  0.00000000000E+00  0.00000000000E+00  0.45593999997E+02  0.45594000000E+02  0.51100000000E-03 0. -1.
         11   -1    0    0    0    0 -0.00000000000E+00 -0.00000000000E+00 -0.45593999997E+02  0.45594000000E+02  0.51100000000E-03 0.  1.
    9900012    2    1    2    0    0  0.57960077136E+01 -0.35487605135E+01  0.40087135139E+02  0.50528858221E+02  0.29999995048E+02 0.  0.
        -12    1    1    2    0    0 -0.57960077136E+01  0.35487605135E+01 -0.40087135139E+02  0.40659141779E+02  0.00000000000E+00 0.  1.
         11    1    3    3    0    0  0.29961209114E+01 -0.10633128380E+01  0.11560092443E+02  0.11989291566E+02  0.51100000000E-03 0. -1.
        -11    1    3    3    0    0 -0.27784427149E+01 -0.66772607490E+01 -0.17730329649E+01  0.74464220392E+01  0.51100000000E-03 0.  1.
         12    1    3    3    0    0  0.55783295171E+01  0.41918130736E+01  0.30300075660E+02  0.31093144615E+02  0.00000000000E+00 0. -1.
</event>
<event>
 7    1  0.5005325E-012  0.5052883E+02  0.7816164E-02  0.1300439E+00
        -11   -1    0    0    0    0  0.00000000000E+00  0.00000000000E+00  0.45593999997E+02  0.45594000000E+02  0.51100000000E-03 0. -1.
         11   -1    0    0    0    0 -0.00000000000E+00 -0.00000000000E+00 -0.45593999997E+02  0.45594000000E+02  0.51100000000E-03 0.  1.
    9900012    2    1    2    0    0 -0.12055544214E+02  0.21329347738E+01  0.38772189827E+02  0.50528828082E+02  0.29999903438E+02 0.  0.
        -12    1    1    2    0    0  0.12055544214E+02 -0.21329347738E+01 -0.38772189827E+02  0.40659171918E+02  0.00000000000E+00 0.  1.
         11    1    3    3    0    0  0.36653361724E+01 -0.14099907041E+01  0.51158807670E+01  0.64494185261E+01  0.51100000000E-03 0.  1.
        -11    1    3    3    0    0 -0.71612988868E+01 -0.97097922983E+01  0.10134346071E+02  0.15756561769E+02  0.51100000000E-03 0. -1.
         12    1    3    3    0    0 -0.85595814995E+01  0.13252717776E+02  0.23521962989E+02  0.28322847787E+02  0.00000000000E+00 0. -1.
</event>
<event>
 7    1  0.5005325E-012  0.5052886E+02  0.7816164E-02  0.1300439E+00
        -11   -1    0    0    0    0  0.00000000000E+00  0.00000000000E+00  0.45593999997E+02  0.45594000000E+02  0.51100000000E-03 0. -1.
         11   -1    0    0    0    0 -0.00000000000E+00 -0.00000000000E+00 -0.45593999997E+02  0.45594000000E+02  0.51100000000E-03 0.  1.
    9900012    2    1    2    0    0 -0.14330109546E+02  0.21669203211E+02 -0.31277138666E+02  0.50528858217E+02  0.29999995035E+02 0.  0.
         12    1    1    2    0    0  0.14330109546E+02 -0.21669203211E+02  0.31277138666E+02  0.40659141783E+02  0.00000000000E+00 0. -1.
         11    1    3    3    0    0 -0.93625979804E+01  0.11624327109E+02 -0.12149648713E+02  0.19245705646E+02  0.51100000000E-03 0. -1.
        -11    1    3    3    0    0 -0.11122800951E+02  0.11461616467E+01 -0.25204539899E+01  0.11462245683E+02  0.51100000000E-03 0.  1.
         12    1    3    3    0    0  0.61552893854E+01  0.88987144550E+01 -0.16607035963E+02  0.19820906888E+02  0.00000000000E+00 0. -1.
</event>
<event>
 7    1  0.5005325E-012  0.5052886E+02  0.7816164E-02  0.1300439E+00
        -11   -1    0    0    0    0  0.00000000000E+00  0.00000000000E+00  0.45593999997E+02  0.45594000000E+02  0.51100000000E-03 0. -1.
         11   -1    0    0    0    0 -0.00000000000E+00 -0.00000000000E+00 -0.45593999997E+02  0.45594000000E+02  0.51100000000E-03 0.  1.
    9900012    2    1    2    0    0  0.14939490641E+01  0.36625209233E+02 -0.17593397743E+02  0.50528862290E+02  0.30000007417E+02 0.  0.
         12    1    1    2    0    0 -0.14939490641E+01 -0.36625209233E+02  0.17593397743E+02  0.40659137710E+02  0.00000000000E+00 0. -1.
         11    1    3    3    0    0  0.34544077943E+01  0.78662962789E+00  0.49487064579E+01  0.60861658906E+01  0.51100000000E-03 0. -1.
        -11    1    3    3    0    0  0.17888884270E+01  0.26955488982E+00 -0.34603921386E+01  0.39047529572E+01  0.51100000000E-03 0.  1.
        -12    1    3    3    0    0 -0.37493471572E+01  0.35569024715E+02 -0.19081712062E+02  0.40537943442E+02  0.00000000000E+00 0.  1.
</event>
<event>
 7    1  0.5005325E-012  0.5052890E+02  0.7816164E-02  0.1300439E+00
        -11   -1    0    0    0    0  0.00000000000E+00  0.00000000000E+00  0.45593999997E+02  0.45594000000E+02  0.51100000000E-03 0. -1.
         11   -1    0    0    0    0 -0.00000000000E+00 -0.00000000000E+00 -0.45593999997E+02  0.45594000000E+02  0.51100000000E-03 0.  1.
    9900012    2    1    2    0    0  0.15468033746E+02 -0.25098288146E+02  0.27999617329E+02  0.50528896390E+02  0.30000111067E+02 0.  0.
        -12    1    1    2    0    0 -0.15468033746E+02  0.25098288146E+02 -0.27999617329E+02  0.40659103610E+02  0.00000000000E+00 0.  1.
         11    1    3    3    0    0 -0.54979440154E+01 -0.74891466030E+01  0.92852370249E+00  0.93368550253E+01  0.51100000000E-03 0.  1.
        -11    1    3    3    0    0  0.10391786470E+02 -0.11445005438E+02  0.55333001981E+01  0.16419341852E+02  0.51100000000E-03 0. -1.
        -12    1    3    3    0    0  0.10574191291E+02 -0.61641361045E+01  0.21537793428E+02  0.24772699513E+02  0.00000000000E+00 0.  1.
</event>
<event>
 7    1  0.5005325E-012  0.5052886E+02  0.7816164E-02  0.1300439E+00
        -11   -1    0    0    0    0  0.00000000000E+00  0.00000000000E+00  0.45593999997E+02  0.45594000000E+02  0.51100000000E-03 0. -1.
         11   -1    0    0    0    0 -0.00000000000E+00 -0.00000000000E+00 -0.45593999997E+02  0.45594000000E+02  0.51100000000E-03 0.  1.
    9900012    2    1    2    0    0  0.13537313782E+02 -0.21692349122E+02  0.31612473218E+02  0.50528864030E+02  0.30000012706E+02 0.  0.
        -12    1    1    2    0    0 -0.13537313782E+02  0.21692349122E+02 -0.31612473218E+02  0.40659135970E+02  0.00000000000E+00 0.  1.
         11    1    3    3    0    0  0.15876773318E+01 -0.49651885826E+01  0.32374041043E+01  0.61363346198E+01  0.51100000000E-03 0.  1.
        -11    1    3    3    0    0  0.15156102427E+01 -0.49810445520E+01  0.28203906306E+02  0.28680449969E+02  0.51100000000E-03 0. -1.
         12    1    3    3    0    0  0.10434026207E+02 -0.11746115988E+02  0.17116280788E+00  0.15712079442E+02  0.00000000000E+00 0. -1.
</event>
<event>
 7    1  0.5005325E-012  0.5052886E+02  0.7816164E-02  0.1300439E+00
        -11   -1    0    0    0    0  0.00000000000E+00  0.00000000000E+00  0.45593999997E+02  0.45594000000E+02  0.51100000000E-03 0. -1.
         11   -1    0    0    0    0 -0.00000000000E+00 -0.00000000000E+00 -0.45593999997E+02  0.45594000000E+02  0.51100000000E-03 0.  1.
    9900012    2    1    2    0    0  0.23078412139E+02  0.11000676639E+02  0.31615468244E+02  0.50528858031E+02  0.29999994471E+02 0.  0.
        -12    1    1    2    0    0 -0.23078412139E+02 -0.11000676639E+02 -0.31615468244E+02  0.40659141969E+02  0.00000000000E+00 0.  1.
         11    1    3    3    0    0  0.20346153641E+02  0.16384644614E+02  0.15354171154E+02  0.30301371573E+02  0.51100000000E-03 0. -1.
        -11    1    3    3    0    0  0.23958131549E+01 -0.29690808309E+01  0.31209124413E-01  0.38152766510E+01  0.51100000000E-03 0.  1.
        -12    1    3    3    0    0  0.33644534286E+00 -0.24148871440E+01  0.16230087965E+02  0.16412209807E+02  0.00000000000E+00 0.  1.
</event>
<event>
 7    1  0.5005325E-012  0.5052886E+02  0.7816164E-02  0.1300439E+00
        -11   -1    0    0    0    0  0.00000000000E+00  0.00000000000E+00  0.45593999997E+02  0.45594000000E+02  0.51100000000E-03 0. -1.
         11   -1    0    0    0    0 -0.00000000000E+00 -0.00000000000E+00 -0.45593999997E+02  0.45594000000E+02  0.51100000000E-03 0.  1.
    9900012    2    1    2    0    0 -0.14514287195E+02  0.16773672611E+02  0.34075575542E+02  0.50528862353E+02  0.30000007608E+02 0.  0.
        -12    1    1    2    0    0  0.14514287195E+02 -0.16773672611E+02 -0.34075575542E+02  0.40659137647E+02  0.00000000000E+00 0.  1.
         11    1    3    3    0    0 -0.71589380793E+01  0.65394497485E+01  0.12879249284E+02  0.16121099833E+02  0.51100000000E-03 0. -1.
        -11    1    3    3    0    0  0.29316343603E+01  0.15225228493E+02  0.14054095586E+02  0.20926530187E+02  0.51100000000E-03 0.  1.
        -12    1    3    3    0    0 -0.10286983476E+02 -0.49910056299E+01  0.71422306723E+01  0.13481232333E+02  0.00000000000E+00 0.  1.
</event>
<event>
 7    1  0.5005325E-012  0.5052887E+02  0.7816164E-02  0.1300439E+00
        -11   -1    0    0    0    0  0.00000000000E+00  0.00000000000E+00  0.45593999997E+02  0.45594000000E+02  0.51100000000E-03 0. -1.
         11   -1    0    0    0    0 -0.00000000000E+00 -0.00000000000E+00 -0.45593999997E+02  0.45594000000E+02  0.51100000000E-03 0.  1.
    9900012    2    1    2    0    0  0.22738594904E+01  0.56305881109E+01  0.40203121154E+02  0.50528869291E+02  0.30000028697E+02 0.  0.
        -12    1    1    2    0    0 -0.22738594904E+01 -0.56305881109E+01 -0.40203121154E+02  0.40659130709E+02  0.00000000000E+00 0.  1.
         11    1    3    3    0    0  0.49560180509E+01 -0.39286495483E+01  0.19014320458E+02  0.20038482601E+02  0.51100000000E-03 0. -1.
        -11    1    3    3    0    0  0.76430116258E+01  0.29290622458E+01  0.33618503133E+01  0.88485631682E+01  0.51100000000E-03 0.  1.
         12    1    3    3    0    0 -0.10325170186E+02  0.66301754135E+01  0.17826950383E+02  0.21641823522E+02  0.00000000000E+00 0. -1.
</event>
<event>
 7    1  0.5005325E-012  0.5052887E+02  0.7816164E-02  0.1300439E+00
        -11   -1    0    0    0    0  0.00000000000E+00  0.00000000000E+00  0.45593999997E+02  0.45594000000E+02  0.51100000000E-03 0. -1.
         11   -1    0    0    0    0 -0.00000000000E+00 -0.00000000000E+00 -0.45593999997E+02  0.45594000000E+02  0.51100000000E-03 0.  1.
    9900012    2    1    2    0    0 -0.19038766266E+02  0.33889938337E+02 -0.11923199705E+02  0.50528865323E+02  0.30000016637E+02 0.  0.
         12    1    1    2    0    0  0.19038766266E+02 -0.33889938337E+02  0.11923199705E+02  0.40659134677E+02  0.00000000000E+00 0. -1.
         11    1    3    3    0    0  0.16987247336E+01  0.18961597747E+02 -0.12786084079E+02  0.22932766976E+02  0.51100000000E-03 0.  1.
        -11    1    3    3    0    0 -0.33152743162E+01  0.26950959811E+01  0.42659770721E+01  0.60376441416E+01  0.51100000000E-03 0. -1.
        -12    1    3    3    0    0 -0.17422216683E+02  0.12233244610E+02 -0.34030926981E+01  0.21558454206E+02  0.00000000000E+00 0.  1.
</event>
<event>
 7    1  0.5005325E-012  0.5052886E+02  0.7816164E-02  0.1300439E+00
        -11   -1    0    0    0    0  0.00000000000E+00  0.00000000000E+00  0.45593999997E+02  0.45594000000E+02  0.51100000000E-03 0.  1.
         11   -1    0    0    0    0 -0.00000000000E+00 -0.00000000000E+00 -0.45593999997E+02  0.45594000000E+02  0.51100000000E-03 0. -1.
    9900012    2    1    2    0    0 -0.29259103366E+02  0.19211050085E+02 -0.20688314229E+02  0.50528856861E+02  0.29999990914E+02 0.  0.
         12    1    1    2    0    0  0.29259103366E+02 -0.19211050085E+02  0.20688314229E+02  0.40659143139E+02  0.00000000000E+00 0. -1.
         11    1    3    3    0    0 -0.14822972852E+02  0.30171959799E+01 -0.21632995830E+02  0.26397168496E+02  0.51100000000E-03 0. -1.
        -11    1    3    3    0    0 -0.23874985517E-01  0.45917892031E+01  0.30468145306E+01  0.55107329046E+01  0.51100000000E-03 0.  1.
        -12    1    3    3    0    0 -0.14412255529E+02  0.11602064902E+02 -0.21021329300E+01  0.18620955461E+02  0.00000000000E+00 0.  1.
</event>
<event>
 7    1  0.5005325E-012  0.5052887E+02  0.7816164E-02  0.1300439E+00
        -11   -1    0    0    0    0  0.00000000000E+00  0.00000000000E+00  0.45593999997E+02  0.45594000000E+02  0.51100000000E-03 0. -1.
         11   -1    0    0    0    0 -0.00000000000E+00 -0.00000000000E+00 -0.45593999997E+02  0.45594000000E+02  0.51100000000E-03 0.  1.
    9900012    2    1    2    0    0 -0.85025929174E+01  0.34563221767E+02 -0.19653359783E+02  0.50528868971E+02  0.30000027725E+02 0.  0.
         12    1    1    2    0    0  0.85025929174E+01 -0.34563221767E+02  0.19653359783E+02  0.40659131029E+02  0.00000000000E+00 0. -1.
         11    1    3    3    0    0 -0.61495347021E+01  0.57859997031E+01 -0.11388481395E+02  0.14177167502E+02  0.51100000000E-03 0. -1.
        -11    1    3    3    0    0 -0.74459412870E+01  0.55993115357E+01 -0.85122933774E+01  0.12619566955E+02  0.51100000000E-03 0.  1.
         12    1    3    3    0    0  0.50928830717E+01  0.23177910529E+02  0.24741498996E+00  0.23732134515E+02  0.00000000000E+00 0. -1.
</event>
<event>
 7    1  0.5005325E-012  0.5052886E+02  0.7816164E-02  0.1300439E+00
        -11   -1    0    0    0    0  0.00000000000E+00  0.00000000000E+00  0.45593999997E+02  0.45594000000E+02  0.51100000000E-03 0. -1.
         11   -1    0    0    0    0 -0.00000000000E+00 -0.00000000000E+00 -0.45593999997E+02  0.45594000000E+02  0.51100000000E-03 0.  1.
    9900012    2    1    2    0    0  0.10750613982E+02  0.37089669039E+02 -0.12725802378E+02  0.50528864537E+02  0.30000014247E+02 0.  0.
         12    1    1    2    0    0 -0.10750613982E+02 -0.37089669039E+02  0.12725802378E+02  0.40659135463E+02  0.00000000000E+00 0. -1.
         11    1    3    3    0    0 -0.53581669653E+01  0.25944818138E+01 -0.13787443962E+01  0.61108285429E+01  0.51100000000E-03 0. -1.
        -11    1    3    3    0    0  0.50399471525E+00  0.12964200654E+02 -0.12205620443E+02  0.17812963817E+02  0.51100000000E-03 0.  1.
         12    1    3    3    0    0  0.15604786232E+02  0.21530986571E+02  0.85856246069E+00  0.26605072177E+02  0.00000000000E+00 0. -1.
</event>
<event>
 7    1  0.5005325E-012  0.5052885E+02  0.7816164E-02  0.1300439E+00
        -11   -1    0    0    0    0  0.00000000000E+00  0.00000000000E+00  0.45593999997E+02  0.45594000000E+02  0.51100000000E-03 0. -1.
         11   -1    0    0    0    0 -0.00000000000E+00 -0.00000000000E+00 -0.45593999997E+02  0.45594000000E+02  0.51100000000E-03 0.  1.
    9900012    2    1    2    0    0  0.38966920638E+02 -0.65145641293E+01  0.96075863525E+01  0.50528853854E+02  0.29999981773E+02 0.  0.
        -12    1    1    2    0    0 -0.38966920638E+02  0.65145641293E+01 -0.96075863525E+01  0.40659146146E+02  0.00000000000E+00 0.  1.
         11    1    3    3    0    0  0.15128553552E+02 -0.98569910124E+01  0.12703876164E+02  0.22077632896E+02  0.51100000000E-03 0. -1.
        -11    1    3    3    0    0  0.19336372914E+02  0.99097918599E-01  0.36897605732E+01  0.19685514248E+02  0.51100000000E-03 0.  1.
         12    1    3    3    0    0  0.45019941723E+01  0.32433289645E+01 -0.67860503851E+01  0.87657067102E+01  0.00000000000E+00 0. -1.
</event>
<event>
 7    1  0.5005325E-012  0.5052882E+02  0.7816164E-02  0.1300439E+00
        -11   -1    0    0    0    0  0.00000000000E+00  0.00000000000E+00  0.45593999997E+02  0.45594000000E+02  0.51100000000E-03 0. -1.
         11   -1    0    0    0    0 -0.00000000000E+00 -0.00000000000E+00 -0.45593999997E+02  0.45594000000E+02  0.51100000000E-03 0.  1.
    9900012    2    1    2    0    0 -0.10713057454E+02 -0.20670167341E+02 -0.33333821140E+02  0.50528818383E+02  0.29999873958E+02 0.  0.
         12    1    1    2    0    0  0.10713057454E+02  0.20670167341E+02  0.33333821140E+02  0.40659181617E+02  0.00000000000E+00 0. -1.
         11    1    3    3    0    0 -0.63930325973E+01 -0.39003609825E+01 -0.73272174792E+01  0.10477203722E+02  0.51100000000E-03 0. -1.
        -11    1    3    3    0    0 -0.73886474996E+01  0.47066099783E+01 -0.71639942259E+01  0.11316673667E+02  0.51100000000E-03 0.  1.
         12    1    3    3    0    0  0.30686226431E+01 -0.21476416337E+02 -0.18842609435E+02  0.28734940994E+02  0.00000000000E+00 0. -1.
</event>
<event>
 7    1  0.5005325E-012  0.5052886E+02  0.7816164E-02  0.1300439E+00
        -11   -1    0    0    0    0  0.00000000000E+00  0.00000000000E+00  0.45593999997E+02  0.45594000000E+02  0.51100000000E-03 0. -1.
         11   -1    0    0    0    0 -0.00000000000E+00 -0.00000000000E+00 -0.45593999997E+02  0.45594000000E+02  0.51100000000E-03 0.  1.
    9900012    2    1    2    0    0 -0.50554866348E+01  0.75758838025E+01  0.39625923733E+02  0.50528858443E+02  0.29999995723E+02 0.  0.
        -12    1    1    2    0    0  0.50554866348E+01 -0.75758838025E+01 -0.39625923733E+02  0.40659141557E+02  0.00000000000E+00 0.  1.
         11    1    3    3    0    0 -0.11827191186E+01 -0.17461325050E+01  0.97021958198E+01  0.99287666518E+01  0.51100000000E-03 0. -1.
        -11    1    3    3    0    0 -0.12681468061E+02 -0.49647047432E+00  0.79635245067E+01  0.14982784719E+02  0.51100000000E-03 0.  1.
        -12    1    3    3    0    0  0.88087005448E+01  0.98184867818E+01  0.21960203406E+02  0.25617307072E+02  0.00000000000E+00 0.  1.
</event>
<event>
 7    1  0.5005325E-012  0.5052886E+02  0.7816164E-02  0.1300439E+00
        -11   -1    0    0    0    0  0.00000000000E+00  0.00000000000E+00  0.45593999997E+02  0.45594000000E+02  0.51100000000E-03 0. -1.
         11   -1    0    0    0    0 -0.00000000000E+00 -0.00000000000E+00 -0.45593999997E+02  0.45594000000E+02  0.51100000000E-03 0.  1.
    9900012    2    1    2    0    0 -0.22748670194E+02 -0.50578120150E+01 -0.33317893604E+02  0.50528862132E+02  0.30000006937E+02 0.  0.
         12    1    1    2    0    0  0.22748670194E+02  0.50578120150E+01  0.33317893604E+02  0.40659137868E+02  0.00000000000E+00 0. -1.
         11    1    3    3    0    0 -0.14252471044E+01  0.25401476777E+01 -0.12126248497E+02  0.12471150003E+02  0.51100000000E-03 0. -1.
        -11    1    3    3    0    0 -0.19059766823E+02 -0.68212585248E+01 -0.25842395461E+02  0.32827331335E+02  0.51100000000E-03 0.  1.
         12    1    3    3    0    0 -0.22636562668E+01 -0.77670116798E+00  0.46507503535E+01  0.52303807939E+01  0.00000000000E+00 0. -1.
</event>
<event>
 7    1  0.5005325E-012  0.5052886E+02  0.7816164E-02  0.1300439E+00
        -11   -1    0    0    0    0  0.00000000000E+00  0.00000000000E+00  0.45593999997E+02  0.45594000000E+02  0.51100000000E-03 0. -1.
         11   -1    0    0    0    0 -0.00000000000E+00 -0.00000000000E+00 -0.45593999997E+02  0.45594000000E+02  0.51100000000E-03 0.  1.
    9900012    2    1    2    0    0  0.14208503124E+02  0.12719860565E+02 -0.35909461064E+02  0.50528858252E+02  0.29999995143E+02 0.  0.
         12    1    1    2    0    0 -0.14208503124E+02 -0.12719860565E+02  0.35909461064E+02  0.40659141748E+02  0.00000000000E+00 0. -1.
         11    1    3    3    0    0 -0.24775114465E+00 -0.41803413948E+01 -0.11536693477E+02  0.12273220093E+02  0.51100000000E-03 0. -1.
        -11    1    3    3    0    0  0.35539679673E+01 -0.17607379121E+01 -0.13484185383E+02  0.14055395477E+02  0.51100000000E-03 0.  1.
         12    1    3    3    0    0  0.10902286301E+02  0.18660939871E+02 -0.10888582203E+02  0.24200242682E+02  0.00000000000E+00 0. -1.
</event>
<event>
 7    1  0.5005325E-012  0.5052886E+02  0.7816164E-02  0.1300439E+00
        -11   -1    0    0    0    0  0.00000000000E+00  0.00000000000E+00  0.45593999997E+02  0.45594000000E+02  0.51100000000E-03 0. -1.
         11   -1    0    0    0    0 -0.00000000000E+00 -0.00000000000E+00 -0.45593999997E+02  0.45594000000E+02  0.51100000000E-03 0.  1.
    9900012    2    1    2    0    0 -0.81710153205E+01 -0.31410615461E+02  0.24490276845E+02  0.50528856933E+02  0.29999991133E+02 0.  0.
        -12    1    1    2    0    0  0.81710153205E+01  0.31410615461E+02 -0.24490276845E+02  0.40659143067E+02  0.00000000000E+00 0.  1.
         11    1    3    3    0    0  0.33027380978E+01 -0.51838653739E+01  0.70521441256E+01  0.93548530820E+01  0.51100000000E-03 0. -1.
        -11    1    3    3    0    0  0.24608954159E+01 -0.16740556804E+02  0.48139725669E-03  0.16920468340E+02  0.51100000000E-03 0.  1.
         12    1    3    3    0    0 -0.13934648834E+02 -0.94861932838E+01  0.17437651322E+02  0.24253535511E+02  0.00000000000E+00 0. -1.
</event>
<event>
 7    1  0.5005325E-012  0.5052886E+02  0.7816164E-02  0.1300439E+00
        -11   -1    0    0    0    0  0.00000000000E+00  0.00000000000E+00  0.45593999997E+02  0.45594000000E+02  0.51100000000E-03 0.  1.
         11   -1    0    0    0    0 -0.00000000000E+00 -0.00000000000E+00 -0.45593999997E+02  0.45594000000E+02  0.51100000000E-03 0. -1.
    9900012    2    1    2    0    0  0.38409212711E+02 -0.12386944787E+02  0.49458542625E+01  0.50528862077E+02  0.30000006769E+02 0.  0.
        -12    1    1    2    0    0 -0.38409212711E+02  0.12386944787E+02 -0.49458542625E+01  0.40659137923E+02  0.00000000000E+00 0.  1.
         11    1    3    3    0    0  0.86178087266E+01 -0.10693940775E+02  0.13876417877E+01  0.13804077171E+02  0.51100000000E-03 0. -1.
        -11    1    3    3    0    0  0.11758233494E+02 -0.98526223125E+00 -0.89133862407E+01  0.14787672268E+02  0.51100000000E-03 0.  1.
        -12    1    3    3    0    0  0.18033170490E+02 -0.70774178054E+00  0.12471598715E+02  0.21937112638E+02  0.00000000000E+00 0.  1.
</event>
<event>
 7    1  0.5005325E-012  0.5052887E+02  0.7816164E-02  0.1300439E+00
        -11   -1    0    0    0    0  0.00000000000E+00  0.00000000000E+00  0.45593999997E+02  0.45594000000E+02  0.51100000000E-03 0. -1.
         11   -1    0    0    0    0 -0.00000000000E+00 -0.00000000000E+00 -0.45593999997E+02  0.45594000000E+02  0.51100000000E-03 0.  1.
    9900012    2    1    2    0    0  0.12884566605E+02  0.66411340006E+01 -0.37987474021E+02  0.50528869416E+02  0.30000029076E+02 0.  0.
         12    1    1    2    0    0 -0.12884566605E+02 -0.66411340006E+01  0.37987474021E+02  0.40659130584E+02  0.00000000000E+00 0. -1.
         11    1    3    3    0    0  0.53265161067E+01 -0.28238883024E+01 -0.22685545291E+01  0.64414640333E+01  0.51100000000E-03 0. -1.
        -11    1    3    3    0    0  0.10689471507E+02 -0.19395464241E+01 -0.27818591975E+02  0.29864706614E+02  0.51100000000E-03 0.  1.
         12    1    3    3    0    0 -0.31314210088E+01  0.11404568727E+02 -0.79003275169E+01  0.14222698769E+02  0.00000000000E+00 0. -1.
</event>
<event>
 7    1  0.5005325E-012  0.5052886E+02  0.7816164E-02  0.1300439E+00
        -11   -1    0    0    0    0  0.00000000000E+00  0.00000000000E+00  0.45593999997E+02  0.45594000000E+02  0.51100000000E-03 0. -1.
         11   -1    0    0    0    0 -0.00000000000E+00 -0.00000000000E+00 -0.45593999997E+02  0.45594000000E+02  0.51100000000E-03 0.  1.
    9900012    2    1    2    0    0  0.59803496995E+01  0.82465263159E+01  0.39362368693E+02  0.50528857757E+02  0.29999993638E+02 0.  0.
        -12    1    1    2    0    0 -0.59803496995E+01 -0.82465263159E+01 -0.39362368693E+02  0.40659142243E+02  0.00000000000E+00 0.  1.
         11    1    3    3    0    0  0.13390273240E+01 -0.19113338001E+01  0.21053452544E+02  0.21182399660E+02  0.51100000000E-03 0. -1.
        -11    1    3    3    0    0 -0.69698735070E+01  0.72099870617E+01  0.12521526243E+02  0.16042184073E+02  0.51100000000E-03 0.  1.
         12    1    3    3    0    0  0.11611195882E+02  0.29478730543E+01  0.57873899060E+01  0.13304274023E+02  0.00000000000E+00 0. -1.
</event>
<event>
 7    1  0.5005325E-012  0.5052887E+02  0.7816164E-02  0.1300439E+00
        -11   -1    0    0    0    0  0.00000000000E+00  0.00000000000E+00  0.45593999997E+02  0.45594000000E+02  0.51100000000E-03 0.  1.
         11   -1    0    0    0    0 -0.00000000000E+00 -0.00000000000E+00 -0.45593999997E+02  0.45594000000E+02  0.51100000000E-03 0. -1.
    9900012    2    1    2    0    0 -0.19490670069E+02  0.17806483775E+02  0.30922614941E+02  0.50528865738E+02  0.30000017897E+02 0.  0.
        -12    1    1    2    0    0  0.19490670069E+02 -0.17806483775E+02 -0.30922614941E+02  0.40659134262E+02  0.00000000000E+00 0.  1.
         11    1    3    3    0    0 -0.18068700741E+02  0.16590212512E+02  0.11906613862E+02  0.27266839780E+02  0.51100000000E-03 0.  1.
        -11    1    3    3    0    0  0.18079231755E+01  0.45677077112E+01  0.14973863844E+01  0.51356310410E+01  0.51100000000E-03 0. -1.
        -12    1    3    3    0    0 -0.32298925038E+01 -0.33514364489E+01  0.17518614695E+02  0.18126394917E+02  0.00000000000E+00 0.  1.
</event>
<event>
 7    1  0.5005325E-012  0.5052886E+02  0.7816164E-02  0.1300439E+00
        -11   -1    0    0    0    0  0.00000000000E+00  0.00000000000E+00  0.45593999997E+02  0.45594000000E+02  0.51100000000E-03 0. -1.
         11   -1    0    0    0    0 -0.00000000000E+00 -0.00000000000E+00 -0.45593999997E+02  0.45594000000E+02  0.51100000000E-03 0.  1.
    9900012    2    1    2    0    0  0.28221155104E+02  0.57649149958E+01 -0.28696652611E+02  0.50528859436E+02  0.29999998742E+02 0.  0.
         12    1    1    2    0    0 -0.28221155104E+02 -0.57649149958E+01  0.28696652611E+02  0.40659140564E+02  0.00000000000E+00 0. -1.
         11    1    3    3    0    0  0.21213447855E+02 -0.56719808226E+00 -0.15090407722E+02  0.26039441028E+02  0.51100000000E-03 0. -1.
        -11    1    3    3    0    0  0.80492652225E+01  0.47363579300E+01 -0.17678239201E+02  0.19993596439E+02  0.51100000000E-03 0.  1.
        -12    1    3    3    0    0 -0.10415579744E+01  0.15957551481E+01  0.40719943114E+01  0.44958219692E+01  0.00000000000E+00 0.  1.
</event>
<event>
 7    1  0.5005325E-012  0.5052875E+02  0.7816164E-02  0.1300439E+00
        -11   -1    0    0    0    0  0.00000000000E+00  0.00000000000E+00  0.45593999997E+02  0.45594000000E+02  0.51100000000E-03 0. -1.
         11   -1    0    0    0    0 -0.00000000000E+00 -0.00000000000E+00 -0.45593999997E+02  0.45594000000E+02  0.51100000000E-03 0.  1.
    9900012    2    1    2    0    0  0.53583387587E+00  0.83669060228E+01 -0.39785452230E+02  0.50528752055E+02  0.29999672343E+02 0.  0.
         12    1    1    2    0    0 -0.53583387587E+00 -0.83669060228E+01  0.39785452230E+02  0.40659247945E+02  0.00000000000E+00 0. -1.
         11    1    3    3    0    0  0.11711364915E+01  0.66552633060E+01  0.66437893562E+00  0.67901023546E+01  0.51100000000E-03 0. -1.
        -11    1    3    3    0    0  0.12646970524E+01 -0.58665372920E+01 -0.62776378366E+01  0.86847254131E+01  0.51100000000E-03 0.  1.
        -12    1    3    3    0    0 -0.18999996680E+01  0.75781800087E+01 -0.34172193329E+02  0.35053924287E+02  0.00000000000E+00 0.  1.
</event>
<event>
 7    1  0.5005325E-012  0.5052894E+02  0.7816164E-02  0.1300439E+00
        -11   -1    0    0    0    0  0.00000000000E+00  0.00000000000E+00  0.45593999997E+02  0.45594000000E+02  0.51100000000E-03 0. -1.
         11   -1    0    0    0    0 -0.00000000000E+00 -0.00000000000E+00 -0.45593999997E+02  0.45594000000E+02  0.51100000000E-03 0.  1.
    9900012    2    1    2    0    0  0.37568869918E+01  0.20379663313E+02  0.34981628481E+02  0.50528939413E+02  0.30000241840E+02 0.  0.
        -12    1    1    2    0    0 -0.37568869918E+01 -0.20379663313E+02 -0.34981628481E+02  0.40659060587E+02  0.00000000000E+00 0.  1.
         11    1    3    3    0    0 -0.18859595181E+01  0.10635175387E+02  0.89884112173E+01  0.14051880134E+02  0.51100000000E-03 0. -1.
        -11    1    3    3    0    0  0.31288502420E+01  0.70506954312E+01 -0.22179456427E+01  0.80262876248E+01  0.51100000000E-03 0.  1.
        -12    1    3    3    0    0  0.25139962679E+01  0.26937924949E+01  0.28211162906E+02  0.28450771655E+02  0.00000000000E+00 0.  1.
</event>
<event>
 7    1  0.5005325E-012  0.5052886E+02  0.7816164E-02  0.1300439E+00
        -11   -1    0    0    0    0  0.00000000000E+00  0.00000000000E+00  0.45593999997E+02  0.45594000000E+02  0.51100000000E-03 0. -1.
         11   -1    0    0    0    0 -0.00000000000E+00 -0.00000000000E+00 -0.45593999997E+02  0.45594000000E+02  0.51100000000E-03 0.  1.
    9900012    2    1    2    0    0  0.35554632328E+01  0.37887044041E+02  0.14321176866E+02  0.50528861644E+02  0.30000005454E+02 0.  0.
        -12    1    1    2    0    0 -0.35554632328E+01 -0.37887044041E+02 -0.14321176866E+02  0.40659138356E+02  0.00000000000E+00 0.  1.
         11    1    3    3    0    0  0.51695605080E+01  0.16575192266E+02 -0.29279533833E+01  0.17607789917E+02  0.51100000000E-03 0. -1.
        -11    1    3    3    0    0 -0.51705774712E+00 -0.10000483967E+01 -0.27288874911E+01  0.29519947001E+01  0.51100000000E-03 0.  1.
         12    1    3    3    0    0 -0.10970395281E+01  0.22311900172E+02  0.19978017740E+02  0.29969077027E+02  0.00000000000E+00 0. -1.
</event>
<event>
 7    1  0.5005325E-012  0.5052885E+02  0.7816164E-02  0.1300439E+00
        -11   -1    0    0    0    0  0.00000000000E+00  0.00000000000E+00  0.45593999997E+02  0.45594000000E+02  0.51100000000E-03 0. -1.
         11   -1    0    0    0    0 -0.00000000000E+00 -0.00000000000E+00 -0.45593999997E+02  0.45594000000E+02  0.51100000000E-03 0.  1.
    9900012    2    1    2    0    0  0.87630921995E+01 -0.33819867209E+01 -0.39559286094E+02  0.50528846844E+02  0.29999960468E+02 0.  0.
         12    1    1    2    0    0 -0.87630921995E+01  0.33819867209E+01  0.39559286094E+02  0.40659153156E+02  0.00000000000E+00 0. -1.
         11    1    3    3    0    0  0.17277150330E+01 -0.85217597258E+01 -0.11223752916E+01  0.87672752105E+01  0.51100000000E-03 0. -1.
        -11    1    3    3    0    0  0.33676818951E+01 -0.34124090031E+01 -0.24755545371E+02  0.25215527824E+02  0.51100000000E-03 0.  1.
        -12    1    3    3    0    0  0.36676952715E+01  0.85521820080E+01 -0.13681365431E+02  0.16546043810E+02  0.00000000000E+00 0.  1.
</event>
<event>
 7    1  0.5005325E-012  0.5052890E+02  0.7816164E-02  0.1300439E+00
        -11   -1    0    0    0    0  0.00000000000E+00  0.00000000000E+00  0.45593999997E+02  0.45594000000E+02  0.51100000000E-03 0.  1.
         11   -1    0    0    0    0 -0.00000000000E+00 -0.00000000000E+00 -0.45593999997E+02  0.45594000000E+02  0.51100000000E-03 0. -1.
    9900012    2    1    2    0    0 -0.37604887196E+02  0.15410358406E+02 -0.12471344824E+01  0.50528904687E+02  0.30000136286E+02 0.  0.
        -12    1    1    2    0    0  0.37604887196E+02 -0.15410358406E+02  0.12471344824E+01  0.40659095313E+02  0.00000000000E+00 0.  1.
         11    1    3    3    0    0 -0.91096045284E+01 -0.29730913366E+01 -0.26759163087E+01  0.99491052418E+01  0.51100000000E-03 0. -1.
        -11    1    3    3    0    0 -0.28559503770E+02  0.93701762314E+01  0.57202113220E+01  0.30596834412E+02  0.51100000000E-03 0.  1.
         12    1    3    3    0    0  0.64221101974E-01  0.90132735115E+01 -0.42914294958E+01  0.99829650335E+01  0.00000000000E+00 0. -1.
</event>
<event>
 7    1  0.5005325E-012  0.5052887E+02  0.7816164E-02  0.1300439E+00
        -11   -1    0    0    0    0  0.00000000000E+00  0.00000000000E+00  0.45593999997E+02  0.45594000000E+02  0.51100000000E-03 0. -1.
         11   -1    0    0    0    0 -0.00000000000E+00 -0.00000000000E+00 -0.45593999997E+02  0.45594000000E+02  0.51100000000E-03 0.  1.
    9900012    2    1    2    0    0  0.46400530898E+01 -0.34051218242E+02 -0.21729003218E+02  0.50528866496E+02  0.30000020201E+02 0.  0.
         12    1    1    2    0    0 -0.46400530898E+01  0.34051218242E+02  0.21729003218E+02  0.40659133504E+02  0.00000000000E+00 0. -1.
         11    1    3    3    0    0 -0.12501107919E+01 -0.11324219661E+01  0.16623273276E+01  0.23682248429E+01  0.51100000000E-03 0. -1.
        -11    1    3    3    0    0  0.21683311612E+01 -0.31153981683E+02 -0.80140437468E+01  0.32241233416E+02  0.51100000000E-03 0.  1.
         12    1    3    3    0    0  0.37218327205E+01 -0.17648145932E+01 -0.15377286798E+02  0.15919408237E+02  0.00000000000E+00 0. -1.
</event>
<event>
 7    1  0.5005325E-012  0.5052885E+02  0.7816164E-02  0.1300439E+00
        -11   -1    0    0    0    0  0.00000000000E+00  0.00000000000E+00  0.45593999997E+02  0.45594000000E+02  0.51100000000E-03 0. -1.
         11   -1    0    0    0    0 -0.00000000000E+00 -0.00000000000E+00 -0.45593999997E+02  0.45594000000E+02  0.51100000000E-03 0.  1.
    9900012    2    1    2    0    0  0.10397126288E+02 -0.10872145621E+02 -0.37773834273E+02  0.50528851692E+02  0.29999975203E+02 0.  0.
         12    1    1    2    0    0 -0.10397126288E+02  0.10872145621E+02  0.37773834273E+02  0.40659148308E+02  0.00000000000E+00 0. -1.
         11    1    3    3    0    0  0.62700872030E+01  0.65031558583E+01 -0.42017929050E+01  0.99629359893E+01  0.51100000000E-03 0. -1.
        -11    1    3    3    0    0 -0.77586178440E-01 -0.10018709582E+01 -0.16534334087E+02  0.16564841351E+02  0.51100000000E-03 0.  1.
         12    1    3    3    0    0  0.42046252630E+01 -0.16373430521E+02 -0.17037707281E+02  0.24001074351E+02  0.00000000000E+00 0. -1.
</event>
<event>
 7    1  0.5005325E-012  0.5052886E+02  0.7816164E-02  0.1300439E+00
        -11   -1    0    0    0    0  0.00000000000E+00  0.00000000000E+00  0.45593999997E+02  0.45594000000E+02  0.51100000000E-03 0. -1.
         11   -1    0    0    0    0 -0.00000000000E+00 -0.00000000000E+00 -0.45593999997E+02  0.45594000000E+02  0.51100000000E-03 0.  1.
    9900012    2    1    2    0    0 -0.34204149509E+02  0.20660536335E+02  0.75089408897E+01  0.50528858364E+02  0.29999995484E+02 0.  0.
        -12    1    1    2    0    0  0.34204149509E+02 -0.20660536335E+02 -0.75089408897E+01  0.40659141636E+02  0.00000000000E+00 0.  1.
         11    1    3    3    0    0 -0.19556822805E+02  0.60781754327E+01  0.79955554456E+01  0.21985050419E+02  0.51100000000E-03 0. -1.
        -11    1    3    3    0    0 -0.11804835128E+02  0.15556917584E+02 -0.74956031618E+01  0.20917836507E+02  0.51100000000E-03 0.  1.
         12    1    3    3    0    0 -0.28424915770E+01 -0.97455668218E+00  0.70089886059E+01  0.76259714378E+01  0.00000000000E+00 0. -1.
</event>
<event>
 7    1  0.5005325E-012  0.5052886E+02  0.7816164E-02  0.1300439E+00
        -11   -1    0    0    0    0  0.00000000000E+00  0.00000000000E+00  0.45593999997E+02  0.45594000000E+02  0.51100000000E-03 0. -1.
         11   -1    0    0    0    0 -0.00000000000E+00 -0.00000000000E+00 -0.45593999997E+02  0.45594000000E+02  0.51100000000E-03 0.  1.
    9900012    2    1    2    0    0 -0.11358200657E+02 -0.25604801698E+00  0.39039608488E+02  0.50528864328E+02  0.30000013611E+02 0.  0.
        -12    1    1    2    0    0  0.11358200657E+02  0.25604801698E+00 -0.39039608488E+02  0.40659135672E+02  0.00000000000E+00 0.  1.
         11    1    3    3    0    0 -0.13250166661E+02  0.57860752797E+01  0.17979826642E+02  0.23072055609E+02  0.51100000000E-03 0. -1.
        -11    1    3    3    0    0 -0.51199384674E+01  0.25943723989E+01  0.11229097285E+02  0.12610993782E+02  0.51100000000E-03 0.  1.
        -12    1    3    3    0    0  0.70119044719E+01 -0.86364956956E+01  0.98306845599E+01  0.14845814937E+02  0.00000000000E+00 0.  1.
</event>
<event>
 7    1  0.5005325E-012  0.5052893E+02  0.7816164E-02  0.1300439E+00
        -11   -1    0    0    0    0  0.00000000000E+00  0.00000000000E+00  0.45593999997E+02  0.45594000000E+02  0.51100000000E-03 0. -1.
         11   -1    0    0    0    0 -0.00000000000E+00 -0.00000000000E+00 -0.45593999997E+02  0.45594000000E+02  0.51100000000E-03 0.  1.
    9900012    2    1    2    0    0  0.21233873152E+02 -0.30433160232E+02  0.16616420932E+02  0.50528928991E+02  0.30000210160E+02 0.  0.
        -12    1    1    2    0    0 -0.21233873152E+02  0.30433160232E+02 -0.16616420932E+02  0.40659071009E+02  0.00000000000E+00 0.  1.
         11    1    3    3    0    0  0.87189330943E+01 -0.63709179945E+01  0.89638314364E+01  0.14034196260E+02  0.51100000000E-03 0.  1.
        -11    1    3    3    0    0  0.35130473829E+01 -0.18752200812E+02 -0.53481931185E+01  0.19813876630E+02  0.51100000000E-03 0. -1.
         12    1    3    3    0    0  0.90018926751E+01 -0.53100414253E+01  0.13000782614E+02  0.16680856101E+02  0.00000000000E+00 0. -1.
</event>
<event>
 7    1  0.5005325E-012  0.5052886E+02  0.7816164E-02  0.1300439E+00
        -11   -1    0    0    0    0  0.00000000000E+00  0.00000000000E+00  0.45593999997E+02  0.45594000000E+02  0.51100000000E-03 0.  1.
         11   -1    0    0    0    0 -0.00000000000E+00 -0.00000000000E+00 -0.45593999997E+02  0.45594000000E+02  0.51100000000E-03 0. -1.
    9900012    2    1    2    0    0  0.24564215007E+02  0.32110636007E+02 -0.43211005609E+01  0.50528861867E+02  0.30000006131E+02 0.  0.
        -12    1    1    2    0    0 -0.24564215007E+02 -0.32110636007E+02  0.43211005609E+01  0.40659138133E+02  0.00000000000E+00 0.  1.
         11    1    3    3    0    0  0.15630176445E+02  0.28722585174E+01 -0.33695162364E+01  0.16245181581E+02  0.51100000000E-03 0. -1.
        -11    1    3    3    0    0  0.11675594441E+02  0.12008711435E+02  0.66756973106E+00  0.16762288193E+02  0.51100000000E-03 0.  1.
         12    1    3    3    0    0 -0.27415558787E+01  0.17229666055E+02 -0.16191540556E+01  0.17521392092E+02  0.00000000000E+00 0. -1.
</event>
<event>
 7    1  0.5005325E-012  0.5052886E+02  0.7816164E-02  0.1300439E+00
        -11   -1    0    0    0    0  0.00000000000E+00  0.00000000000E+00  0.45593999997E+02  0.45594000000E+02  0.51100000000E-03 0. -1.
         11   -1    0    0    0    0 -0.00000000000E+00 -0.00000000000E+00 -0.45593999997E+02  0.45594000000E+02  0.51100000000E-03 0.  1.
    9900012    2    1    2    0    0 -0.13464350894E+02 -0.29152771059E+01  0.38254126638E+02  0.50528858464E+02  0.29999995789E+02 0.  0.
        -12    1    1    2    0    0  0.13464350894E+02  0.29152771059E+01 -0.38254126638E+02  0.40659141536E+02  0.00000000000E+00 0.  1.
         11    1    3    3    0    0 -0.13464052265E+02  0.10750062297E+01  0.10217549844E+02  0.16936193990E+02  0.51100000000E-03 0. -1.
        -11    1    3    3    0    0  0.18254582318E+00  0.46356129863E+01  0.41820860954E+00  0.46580177585E+01  0.51100000000E-03 0.  1.
         12    1    3    3    0    0 -0.18284445229E+00 -0.86258963219E+01  0.27618368184E+02  0.28934646716E+02  0.00000000000E+00 0. -1.
</event>
<event>
 7    1  0.5005325E-012  0.5052886E+02  0.7816164E-02  0.1300439E+00
        -11   -1    0    0    0    0  0.00000000000E+00  0.00000000000E+00  0.45593999997E+02  0.45594000000E+02  0.51100000000E-03 0. -1.
         11   -1    0    0    0    0 -0.00000000000E+00 -0.00000000000E+00 -0.45593999997E+02  0.45594000000E+02  0.51100000000E-03 0.  1.
    9900012    2    1    2    0    0  0.23239418910E+02 -0.18781629615E+02  0.27574361698E+02  0.50528860494E+02  0.30000001957E+02 0.  0.
        -12    1    1    2    0    0 -0.23239418910E+02  0.18781629615E+02 -0.27574361698E+02  0.40659139506E+02  0.00000000000E+00 0.  1.
         11    1    3    3    0    0  0.47971787385E+01 -0.85966105350E+01  0.37140879541E+01  0.10521838534E+02  0.51100000000E-03 0. -1.
        -11    1    3    3    0    0  0.23484876239E+02 -0.81972437208E+01  0.13468638265E+02  0.28286718324E+02  0.51100000000E-03 0.  1.
         12    1    3    3    0    0 -0.50426360671E+01 -0.19877753597E+01  0.10391635479E+02  0.11720303636E+02  0.00000000000E+00 0. -1.
</event>
<event>
 7    1  0.5005325E-012  0.5052885E+02  0.7816164E-02  0.1300439E+00
        -11   -1    0    0    0    0  0.00000000000E+00  0.00000000000E+00  0.45593999997E+02  0.45594000000E+02  0.51100000000E-03 0. -1.
         11   -1    0    0    0    0 -0.00000000000E+00 -0.00000000000E+00 -0.45593999997E+02  0.45594000000E+02  0.51100000000E-03 0.  1.
    9900012    2    1    2    0    0  0.22757763818E+02  0.31342036239E+02  0.12366377839E+02  0.50528851577E+02  0.29999974854E+02 0.  0.
        -12    1    1    2    0    0 -0.22757763818E+02 -0.31342036239E+02 -0.12366377839E+02  0.40659148423E+02  0.00000000000E+00 0.  1.
         11    1    3    3    0    0  0.52428521268E+01  0.61797831409E+01  0.22195795926E+01  0.84026038774E+01  0.51100000000E-03 0. -1.
        -11    1    3    3    0    0  0.75258198905E+01 -0.40452730238E+01 -0.22914195401E+01  0.88460614191E+01  0.51100000000E-03 0.  1.
        -12    1    3    3    0    0  0.99890918007E+01  0.29207526122E+02  0.12438217786E+02  0.33280186281E+02  0.00000000000E+00 0.  1.
</event>
<event>
 7    1  0.5005325E-012  0.5052886E+02  0.7816164E-02  0.1300439E+00
        -11   -1    0    0    0    0  0.00000000000E+00  0.00000000000E+00  0.45593999997E+02  0.45594000000E+02  0.51100000000E-03 0. -1.
         11   -1    0    0    0    0 -0.00000000000E+00 -0.00000000000E+00 -0.45593999997E+02  0.45594000000E+02  0.51100000000E-03 0.  1.
    9900012    2    1    2    0    0  0.90632698160E+01  0.18025885532E+02 -0.35300007601E+02  0.50528856556E+02  0.29999989987E+02 0.  0.
         12    1    1    2    0    0 -0.90632698160E+01 -0.18025885532E+02  0.35300007601E+02  0.40659143444E+02  0.00000000000E+00 0. -1.
         11    1    3    3    0    0  0.11402240311E+02  0.29120856338E+01 -0.16384855174E+02  0.20173120884E+02  0.51100000000E-03 0. -1.
        -11    1    3    3    0    0  0.56989170656E+01  0.13311413995E+02 -0.16092422340E+02  0.21648035830E+02  0.51100000000E-03 0.  1.
        -12    1    3    3    0    0 -0.80378875609E+01  0.18023859037E+01 -0.28227300864E+01  0.87076998415E+01  0.00000000000E+00 0.  1.
</event>
<event>
 7    1  0.5005325E-012  0.5052886E+02  0.7816164E-02  0.1300439E+00
        -11   -1    0    0    0    0  0.00000000000E+00  0.00000000000E+00  0.45593999997E+02  0.45594000000E+02  0.51100000000E-03 0. -1.
         11   -1    0    0    0    0 -0.00000000000E+00 -0.00000000000E+00 -0.45593999997E+02  0.45594000000E+02  0.51100000000E-03 0.  1.
    9900012    2    1    2    0    0  0.31673095252E+02 -0.73137801275E+01  0.24423126907E+02  0.50528862398E+02  0.30000007745E+02 0.  0.
        -12    1    1    2    0    0 -0.31673095252E+02  0.73137801275E+01 -0.24423126907E+02  0.40659137602E+02  0.00000000000E+00 0.  1.
         11    1    3    3    0    0  0.58328315742E+01  0.96188618932E+01  0.55840832732E+01  0.12558917730E+02  0.51100000000E-03 0. -1.
        -11    1    3    3    0    0  0.78684709858E+01 -0.27609040229E+01  0.19360448703E-01  0.83388129710E+01  0.51100000000E-03 0.  1.
        -12    1    3    3    0    0  0.17971792692E+02 -0.14171737998E+02  0.18819683185E+02  0.29631131697E+02  0.00000000000E+00 0.  1.
</event>
<event>
 7    1  0.5005325E-012  0.5052884E+02  0.7816164E-02  0.1300439E+00
        -11   -1    0    0    0    0  0.00000000000E+00  0.00000000000E+00  0.45593999997E+02  0.45594000000E+02  0.51100000000E-03 0. -1.
         11   -1    0    0    0    0 -0.00000000000E+00 -0.00000000000E+00 -0.45593999997E+02  0.45594000000E+02  0.51100000000E-03 0.  1.
    9900012    2    1    2    0    0  0.30981091194E+02  0.21013597958E+02  0.15867197802E+02  0.50528840186E+02  0.29999940228E+02 0.  0.
        -12    1    1    2    0    0 -0.30981091194E+02 -0.21013597958E+02 -0.15867197802E+02  0.40659159814E+02  0.00000000000E+00 0.  1.
         11    1    3    3    0    0  0.13590213255E+02  0.50266190923E+01  0.15477529649E+01  0.14572451246E+02  0.51100000000E-03 0. -1.
        -11    1    3    3    0    0  0.18198405615E+02  0.17346469420E+02  0.39290959845E+01  0.25446409645E+02  0.51100000000E-03 0.  1.
        -12    1    3    3    0    0 -0.80752767574E+00 -0.13594905545E+01  0.10390348852E+02  0.10509979295E+02  0.00000000000E+00 0.  1.
</event>
<event>
 7    1  0.5005325E-012  0.5052886E+02  0.7816164E-02  0.1300439E+00
        -11   -1    0    0    0    0  0.00000000000E+00  0.00000000000E+00  0.45593999997E+02  0.45594000000E+02  0.51100000000E-03 0. -1.
         11   -1    0    0    0    0 -0.00000000000E+00 -0.00000000000E+00 -0.45593999997E+02  0.45594000000E+02  0.51100000000E-03 0.  1.
    9900012    2    1    2    0    0  0.11310755825E+02 -0.26391934852E+02  0.28787117950E+02  0.50528861022E+02  0.30000003562E+02 0.  0.
        -12    1    1    2    0    0 -0.11310755825E+02  0.26391934852E+02 -0.28787117950E+02  0.40659138978E+02  0.00000000000E+00 0.  1.
         11    1    3    3    0    0  0.55047852330E+01 -0.24956641875E+02  0.83654768804E+01  0.26890850448E+02  0.51100000000E-03 0. -1.
        -11    1    3    3    0    0 -0.26113475994E+01 -0.16052114203E+01  0.30014057826E+01  0.42900206202E+01  0.51100000000E-03 0.  1.
        -12    1    3    3    0    0  0.84173181912E+01  0.16991844240E+00  0.17420235287E+02  0.19347989954E+02  0.00000000000E+00 0.  1.
</event>
<event>
 7    1  0.5487047E-012  0.5052886E+02  0.7816164E-02  0.1300439E+00
        -11   -1    0    0    0    0  0.00000000000E+00  0.00000000000E+00  0.45593999997E+02  0.45594000000E+02  0.51100000000E-03 0. -1.
         11   -1    0    0    0    0 -0.00000000000E+00 -0.00000000000E+00 -0.45593999997E+02  0.45594000000E+02  0.51100000000E-03 0.  1.
    9900012    2    1    2    0    0 -0.20445865337E+01  0.30528809459E+02  0.26776428466E+02  0.50528860038E+02  0.30000000571E+02 0.  0.
        -12    1    1    2    0    0  0.20445865337E+01 -0.30528809459E+02 -0.26776428466E+02  0.40659139962E+02  0.00000000000E+00 0.  1.
         11    1    3    3    0    0  0.61855151113E+01  0.13916068646E+02  0.36292790589E+01  0.15655325946E+02  0.51100000000E-03 0. -1.
        -11    1    3    3    0    0  0.39790157111E+01  0.22197703667E+01  0.12272540675E+02  0.13091035154E+02  0.51100000000E-03 0.  1.
         12    1    3    3    0    0 -0.12209117356E+02  0.14392970446E+02  0.10874608732E+02  0.21782498937E+02  0.00000000000E+00 0. -1.
</event>
<event>
 7    1  0.5005325E-012  0.5052886E+02  0.7816164E-02  0.1300439E+00
        -11   -1    0    0    0    0  0.00000000000E+00  0.00000000000E+00  0.45593999997E+02  0.45594000000E+02  0.51100000000E-03 0. -1.
         11   -1    0    0    0    0 -0.00000000000E+00 -0.00000000000E+00 -0.45593999997E+02  0.45594000000E+02  0.51100000000E-03 0.  1.
    9900012    2    1    2    0    0 -0.15604140930E+02  0.18152686744E+02 -0.32865737797E+02  0.50528856242E+02  0.29999989034E+02 0.  0.
         12    1    1    2    0    0  0.15604140930E+02 -0.18152686744E+02  0.32865737797E+02  0.40659143758E+02  0.00000000000E+00 0. -1.
         11    1    3    3    0    0  0.15559814537E+01  0.80704046323E+01 -0.82274676489E+01  0.11629433924E+02  0.51100000000E-03 0. -1.
        -11    1    3    3    0    0 -0.54124328689E+01  0.62059767685E+01 -0.25204712984E+02  0.26515771422E+02  0.51100000000E-03 0.  1.
        -12    1    3    3    0    0 -0.11747689515E+02  0.38763053431E+01  0.56644283600E+00  0.12383650897E+02  0.00000000000E+00 0.  1.
</event>
<event>
 7    1  0.5005325E-012  0.5052885E+02  0.7816164E-02  0.1300439E+00
        -11   -1    0    0    0    0  0.00000000000E+00  0.00000000000E+00  0.45593999997E+02  0.45594000000E+02  0.51100000000E-03 0.  1.
         11   -1    0    0    0    0 -0.00000000000E+00 -0.00000000000E+00 -0.45593999997E+02  0.45594000000E+02  0.51100000000E-03 0. -1.
    9900012    2    1    2    0    0 -0.19276781936E+02  0.35335423519E+02  0.57427922011E+01  0.50528854174E+02  0.29999982747E+02 0.  0.
        -12    1    1    2    0    0  0.19276781936E+02 -0.35335423519E+02 -0.57427922011E+01  0.40659145826E+02  0.00000000000E+00 0.  1.
         11    1    3    3    0    0 -0.13337793593E+02  0.18471825141E+02  0.86078481567E+01  0.24355699787E+02  0.51100000000E-03 0. -1.
        -11    1    3    3    0    0 -0.31727134520E+01  0.11703415496E+02  0.75078293958E+01  0.14261961555E+02  0.51100000000E-03 0.  1.
         12    1    3    3    0    0 -0.27662748904E+01  0.51601828822E+01 -0.10372885351E+02  0.11911192831E+02  0.00000000000E+00 0. -1.
</event>
<event>
 7    1  0.5005325E-012  0.5052886E+02  0.7816164E-02  0.1300439E+00
        -11   -1    0    0    0    0  0.00000000000E+00  0.00000000000E+00  0.45593999997E+02  0.45594000000E+02  0.51100000000E-03 0. -1.
         11   -1    0    0    0    0 -0.00000000000E+00 -0.00000000000E+00 -0.45593999997E+02  0.45594000000E+02  0.51100000000E-03 0.  1.
    9900012    2    1    2    0    0  0.23533194580E+02 -0.10963427841E+02 -0.31291496789E+02  0.50528858735E+02  0.29999996609E+02 0.  0.
         12    1    1    2    0    0 -0.23533194580E+02  0.10963427841E+02  0.31291496789E+02  0.40659141265E+02  0.00000000000E+00 0. -1.
         11    1    3    3    0    0  0.65631012898E+01  0.33657881630E+01 -0.21935978177E+01  0.76951088456E+01  0.51100000000E-03 0. -1.
        -11    1    3    3    0    0  0.17043933998E+02 -0.10566751587E+02 -0.32215313794E+02  0.37947046898E+02  0.51100000000E-03 0.  1.
         12    1    3    3    0    0 -0.73840707580E-01 -0.37624644174E+01  0.31174148227E+01  0.48867029907E+01  0.00000000000E+00 0. -1.
</event>
<event>
 7    1  0.5005325E-012  0.5052885E+02  0.7816164E-02  0.1300439E+00
        -11   -1    0    0    0    0  0.00000000000E+00  0.00000000000E+00  0.45593999997E+02  0.45594000000E+02  0.51100000000E-03 0. -1.
         11   -1    0    0    0    0 -0.00000000000E+00 -0.00000000000E+00 -0.45593999997E+02  0.45594000000E+02  0.51100000000E-03 0.  1.
    9900012    2    1    2    0    0  0.14059121930E+02  0.19363278610E+01 -0.38101940581E+02  0.50528854029E+02  0.29999982307E+02 0.  0.
         12    1    1    2    0    0 -0.14059121930E+02 -0.19363278610E+01  0.38101940581E+02  0.40659145971E+02  0.00000000000E+00 0. -1.
         11    1    3    3    0    0  0.42779497359E+01 -0.75784991575E+01 -0.12099049494E+02  0.14903741220E+02  0.51100000000E-03 0. -1.
        -11    1    3    3    0    0  0.92169396482E+01  0.65540827268E+01 -0.29150261058E+02  0.31267326346E+02  0.51100000000E-03 0.  1.
        -12    1    3    3    0    0  0.56423254561E+00  0.29607442917E+01  0.31473699702E+01  0.43577864629E+01  0.00000000000E+00 0.  1.
</event>
<event>
 7    1  0.5005325E-012  0.5052884E+02  0.7816164E-02  0.1300439E+00
        -11   -1    0    0    0    0  0.00000000000E+00  0.00000000000E+00  0.45593999997E+02  0.45594000000E+02  0.51100000000E-03 0. -1.
         11   -1    0    0    0    0 -0.00000000000E+00 -0.00000000000E+00 -0.45593999997E+02  0.45594000000E+02  0.51100000000E-03 0.  1.
    9900012    2    1    2    0    0 -0.34626622945E+02 -0.33262199074E+01  0.21049945217E+02  0.50528844215E+02  0.29999952477E+02 0.  0.
        -12    1    1    2    0    0  0.34626622945E+02  0.33262199074E+01 -0.21049945217E+02  0.40659155785E+02  0.00000000000E+00 0.  1.
         11    1    3    3    0    0 -0.14174375869E+02 -0.10161222389E+02  0.11643179366E+02  0.20969668518E+02  0.51100000000E-03 0. -1.
        -11    1    3    3    0    0 -0.12890939506E+02  0.80038138649E+01  0.13991349989E+02  0.20639651947E+02  0.51100000000E-03 0.  1.
         12    1    3    3    0    0 -0.75613075699E+01 -0.11688113837E+01 -0.45845841383E+01  0.89195237507E+01  0.00000000000E+00 0. -1.
</event>
<event>
 7    1  0.5005325E-012  0.5052881E+02  0.7816164E-02  0.1300439E+00
        -11   -1    0    0    0    0  0.00000000000E+00  0.00000000000E+00  0.45593999997E+02  0.45594000000E+02  0.51100000000E-03 0. -1.
         11   -1    0    0    0    0 -0.00000000000E+00 -0.00000000000E+00 -0.45593999997E+02  0.45594000000E+02  0.51100000000E-03 0.  1.
    9900012    2    1    2    0    0 -0.18948882880E+02 -0.67340171279E+01 -0.35337837168E+02  0.50528808115E+02  0.29999842745E+02 0.  0.
         12    1    1    2    0    0  0.18948882880E+02  0.67340171279E+01  0.35337837168E+02  0.40659191885E+02  0.00000000000E+00 0. -1.
         11    1    3    3    0    0  0.97638664482E+00 -0.26562483897E+01 -0.53605263758E+00  0.28803366260E+01  0.51100000000E-03 0. -1.
        -11    1    3    3    0    0 -0.12796701461E+02 -0.11121037966E+02 -0.33496517851E+02  0.37542639254E+02  0.51100000000E-03 0.  1.
         12    1    3    3    0    0 -0.71285680635E+01  0.70432692280E+01 -0.13052666787E+01  0.10105832235E+02  0.00000000000E+00 0. -1.
</event>
<event>
 7    1  0.5005325E-012  0.5052887E+02  0.7816164E-02  0.1300439E+00
        -11   -1    0    0    0    0  0.00000000000E+00  0.00000000000E+00  0.45593999997E+02  0.45594000000E+02  0.51100000000E-03 0. -1.
         11   -1    0    0    0    0 -0.00000000000E+00 -0.00000000000E+00 -0.45593999997E+02  0.45594000000E+02  0.51100000000E-03 0.  1.
    9900012    2    1    2    0    0 -0.26180037334E+01 -0.13834928235E+02  0.38143227141E+02  0.50528868682E+02  0.30000026845E+02 0.  0.
        -12    1    1    2    0    0  0.26180037334E+01  0.13834928235E+02 -0.38143227141E+02  0.40659131318E+02  0.00000000000E+00 0.  1.
         11    1    3    3    0    0 -0.11142279792E+02 -0.71068528078E+01  0.17864926470E+02  0.22221911570E+02  0.51100000000E-03 0. -1.
        -11    1    3    3    0    0  0.15490141383E+01 -0.10936580685E+02  0.82809542520E+01  0.13805160103E+02  0.51100000000E-03 0.  1.
         12    1    3    3    0    0  0.69752619208E+01  0.42085052580E+01  0.11997346420E+02  0.14501797009E+02  0.00000000000E+00 0. -1.
</event>
<event>
 7    1  0.5005325E-012  0.5052886E+02  0.7816164E-02  0.1300439E+00
        -11   -1    0    0    0    0  0.00000000000E+00  0.00000000000E+00  0.45593999997E+02  0.45594000000E+02  0.51100000000E-03 0. -1.
         11   -1    0    0    0    0 -0.00000000000E+00 -0.00000000000E+00 -0.45593999997E+02  0.45594000000E+02  0.51100000000E-03 0.  1.
    9900012    2    1    2    0    0  0.53526881179E+01 -0.32828863176E+02 -0.23383321771E+02  0.50528864931E+02  0.30000015444E+02 0.  0.
         12    1    1    2    0    0 -0.53526881179E+01  0.32828863176E+02  0.23383321771E+02  0.40659135069E+02  0.00000000000E+00 0. -1.
         11    1    3    3    0    0 -0.37972284329E+01 -0.66457469306E+01  0.95618692454E+00  0.77135717883E+01  0.51100000000E-03 0. -1.
        -11    1    3    3    0    0  0.83615804006E+01  0.45463103066E+00 -0.39405034913E+01  0.92547438752E+01  0.51100000000E-03 0.  1.
        -12    1    3    3    0    0  0.78833615020E+00 -0.26637747276E+02 -0.20399005204E+02  0.33560549268E+02  0.00000000000E+00 0.  1.
</event>
<event>
 7    1  0.5005325E-012  0.5052886E+02  0.7816164E-02  0.1300439E+00
        -11   -1    0    0    0    0  0.00000000000E+00  0.00000000000E+00  0.45593999997E+02  0.45594000000E+02  0.51100000000E-03 0. -1.
         11   -1    0    0    0    0 -0.00000000000E+00 -0.00000000000E+00 -0.45593999997E+02  0.45594000000E+02  0.51100000000E-03 0.  1.
    9900012    2    1    2    0    0  0.19344051977E+02  0.20732174923E+01  0.35702594788E+02  0.50528857704E+02  0.29999993476E+02 0.  0.
        -12    1    1    2    0    0 -0.19344051977E+02 -0.20732174923E+01 -0.35702594788E+02  0.40659142296E+02  0.00000000000E+00 0.  1.
         11    1    3    3    0    0 -0.58116123484E+00 -0.58067088487E+01  0.47224082913E+01  0.75071137174E+01  0.51100000000E-03 0. -1.
        -11    1    3    3    0    0  0.70622940304E+01 -0.15279917626E+01 -0.99640601919E+00  0.72940784897E+01  0.51100000000E-03 0.  1.
         12    1    3    3    0    0  0.12862919182E+02  0.94079181037E+01  0.31976592516E+02  0.35727665497E+02  0.00000000000E+00 0. -1.
</event>
<event>
 7    1  0.5005325E-012  0.5052886E+02  0.7816164E-02  0.1300439E+00
        -11   -1    0    0    0    0  0.00000000000E+00  0.00000000000E+00  0.45593999997E+02  0.45594000000E+02  0.51100000000E-03 0. -1.
         11   -1    0    0    0    0 -0.00000000000E+00 -0.00000000000E+00 -0.45593999997E+02  0.45594000000E+02  0.51100000000E-03 0.  1.
    9900012    2    1    2    0    0 -0.19668677041E+02 -0.29265963347E+02 -0.20243815760E+02  0.50528861498E+02  0.30000005011E+02 0.  0.
         12    1    1    2    0    0  0.19668677041E+02  0.29265963347E+02  0.20243815760E+02  0.40659138502E+02  0.00000000000E+00 0. -1.
         11    1    3    3    0    0 -0.23703659992E+00 -0.62882736305E+01 -0.11043657214E+01  0.63889119190E+01  0.51100000000E-03 0. -1.
        -11    1    3    3    0    0 -0.49375222158E+01  0.30906428854E+01  0.34089252750E+01  0.67492200193E+01  0.51100000000E-03 0.  1.
        -12    1    3    3    0    0 -0.14494118225E+02 -0.26068332602E+02 -0.22548375313E+02  0.37390729560E+02  0.00000000000E+00 0.  1.
</event>
<event>
 7    1  0.5005325E-012  0.5052886E+02  0.7816164E-02  0.1300439E+00
        -11   -1    0    0    0    0  0.00000000000E+00  0.00000000000E+00  0.45593999997E+02  0.45594000000E+02  0.51100000000E-03 0. -1.
         11   -1    0    0    0    0 -0.00000000000E+00 -0.00000000000E+00 -0.45593999997E+02  0.45594000000E+02  0.51100000000E-03 0.  1.
    9900012    2    1    2    0    0  0.35639431727E+01  0.72459169520E+01 -0.39849225483E+02  0.50528858653E+02  0.29999996363E+02 0.  0.
         12    1    1    2    0    0 -0.35639431727E+01 -0.72459169520E+01  0.39849225483E+02  0.40659141347E+02  0.00000000000E+00 0. -1.
         11    1    3    3    0    0  0.11333978535E+01  0.87575675722E+01 -0.41498766112E+01  0.97571028807E+01  0.51100000000E-03 0. -1.
        -11    1    3    3    0    0 -0.74222756573E+01  0.34400217451E+01 -0.19792622139E+02  0.21416624779E+02  0.51100000000E-03 0.  1.
        -12    1    3    3    0    0  0.98528209766E+01 -0.49516723653E+01 -0.15906726733E+02  0.19355130994E+02  0.00000000000E+00 0.  1.
</event>
<event>
 7    1  0.5005325E-012  0.5052886E+02  0.7816164E-02  0.1300439E+00
        -11   -1    0    0    0    0  0.00000000000E+00  0.00000000000E+00  0.45593999997E+02  0.45594000000E+02  0.51100000000E-03 0. -1.
         11   -1    0    0    0    0 -0.00000000000E+00 -0.00000000000E+00 -0.45593999997E+02  0.45594000000E+02  0.51100000000E-03 0.  1.
    9900012    2    1    2    0    0  0.73056985829E+01 -0.11677162925E+02 -0.38254886822E+02  0.50528859188E+02  0.29999997989E+02 0.  0.
         12    1    1    2    0    0 -0.73056985829E+01  0.11677162925E+02  0.38254886822E+02  0.40659140812E+02  0.00000000000E+00 0. -1.
         11    1    3    3    0    0  0.55610252360E+01  0.20514871951E+01 -0.10014957900E+02  0.11637567761E+02  0.51100000000E-03 0. -1.
        -11    1    3    3    0    0  0.11709003733E+02 -0.11226418707E+02 -0.19792934182E+02  0.25590886839E+02  0.51100000000E-03 0.  1.
         12    1    3    3    0    0 -0.99643303859E+01 -0.25022314125E+01 -0.84469947395E+01  0.13300404588E+02  0.00000000000E+00 0. -1.
</event>
<event>
 7    1  0.7931586E-012  0.5052894E+02  0.7816164E-02  0.1300438E+00
        -11   -1    0    0    0    0  0.00000000000E+00  0.00000000000E+00  0.45593999997E+02  0.45594000000E+02  0.51100000000E-03 0. -1.
         11   -1    0    0    0    0 -0.00000000000E+00 -0.00000000000E+00 -0.45593999997E+02  0.45594000000E+02  0.51100000000E-03 0.  1.
    9900012    2    1    2    0    0  0.19317641433E+02  0.17566180538E+02  0.31167561408E+02  0.50528943772E+02  0.30000255089E+02 0.  0.
        -12    1    1    2    0    0 -0.19317641433E+02 -0.17566180538E+02 -0.31167561408E+02  0.40659056228E+02  0.00000000000E+00 0.  1.
         11    1    3    3    0    0  0.17597695165E+02  0.75079320378E+01  0.26351013773E+02  0.32564149700E+02  0.51100000000E-03 0. -1.
        -11    1    3    3    0    0 -0.10130249107E+01  0.98245320216E+01  0.87326767969E+01  0.13183599403E+02  0.51100000000E-03 0.  1.
        -12    1    3    3    0    0  0.27329711786E+01  0.23371647835E+00 -0.39161291613E+01  0.47811946690E+01  0.00000000000E+00 0.  1.
</event>
<event>
 7    1  0.5005325E-012  0.5052886E+02  0.7816164E-02  0.1300439E+00
        -11   -1    0    0    0    0  0.00000000000E+00  0.00000000000E+00  0.45593999997E+02  0.45594000000E+02  0.51100000000E-03 0. -1.
         11   -1    0    0    0    0 -0.00000000000E+00 -0.00000000000E+00 -0.45593999997E+02  0.45594000000E+02  0.51100000000E-03 0.  1.
    9900012    2    1    2    0    0  0.31718562199E+01 -0.18524536226E+02 -0.36054769298E+02  0.50528861994E+02  0.30000006516E+02 0.  0.
         12    1    1    2    0    0 -0.31718562199E+01  0.18524536226E+02  0.36054769298E+02  0.40659138006E+02  0.00000000000E+00 0. -1.
         11    1    3    3    0    0 -0.10693273289E+02 -0.46234543112E+01 -0.14182769082E+02  0.18354110235E+02  0.51100000000E-03 0. -1.
        -11    1    3    3    0    0  0.26051537269E+01 -0.25316286785E+01 -0.13765778948E+02  0.14237016542E+02  0.51100000000E-03 0.  1.
         12    1    3    3    0    0  0.11259975782E+02 -0.11369453236E+02 -0.81062212683E+01  0.17937735218E+02  0.00000000000E+00 0. -1.
</event>
<event>
 7    1  0.5005325E-012  0.5052885E+02  0.7816164E-02  0.1300439E+00
        -11   -1    0    0    0    0  0.00000000000E+00  0.00000000000E+00  0.45593999997E+02  0.45594000000E+02  0.51100000000E-03 0.  1.
         11   -1    0    0    0    0 -0.00000000000E+00 -0.00000000000E+00 -0.45593999997E+02  0.45594000000E+02  0.51100000000E-03 0. -1.
    9900012    2    1    2    0    0 -0.21585328961E+02  0.34451710071E+02  0.56570267169E+00  0.50528846384E+02  0.29999959070E+02 0.  0.
        -12    1    1    2    0    0  0.21585328961E+02 -0.34451710071E+02 -0.56570267169E+00  0.40659153616E+02  0.00000000000E+00 0.  1.
         11    1    3    3    0    0 -0.86321756586E+01  0.78307343270E+01 -0.45015021576E+01  0.12493933674E+02  0.51100000000E-03 0. -1.
        -11    1    3    3    0    0 -0.12544979204E+01  0.22588176596E+02 -0.36267596100E+01  0.22911850045E+02  0.51100000000E-03 0.  1.
        -12    1    3    3    0    0 -0.11698655382E+02  0.40327991487E+01  0.86939644393E+01  0.15123062666E+02  0.00000000000E+00 0.  1.
</event>
<event>
 7    1  0.5005325E-012  0.5052887E+02  0.7816164E-02  0.1300439E+00
        -11   -1    0    0    0    0  0.00000000000E+00  0.00000000000E+00  0.45593999997E+02  0.45594000000E+02  0.51100000000E-03 0. -1.
         11   -1    0    0    0    0 -0.00000000000E+00 -0.00000000000E+00 -0.45593999997E+02  0.45594000000E+02  0.51100000000E-03 0.  1.
    9900012    2    1    2    0    0 -0.24227976317E+02 -0.32574970258E+02 -0.22452777590E+01  0.50528870693E+02  0.30000032960E+02 0.  0.
         12    1    1    2    0    0  0.24227976317E+02  0.32574970258E+02  0.22452777590E+01  0.40659129307E+02  0.00000000000E+00 0. -1.
         11    1    3    3    0    0 -0.35582749500E+01  0.46056992389E+01 -0.26124501225E+01  0.63795518654E+01  0.51100000000E-03 0. -1.
        -11    1    3    3    0    0 -0.48761825216E+01 -0.83252707710E+01  0.51042578485E+01  0.10915160917E+02  0.51100000000E-03 0.  1.
        -12    1    3    3    0    0 -0.15793518846E+02 -0.28855398726E+02 -0.47370854850E+01  0.33234157911E+02  0.00000000000E+00 0.  1.
</event>
<event>
 7    1  0.5005325E-012  0.5052886E+02  0.7816164E-02  0.1300439E+00
        -11   -1    0    0    0    0  0.00000000000E+00  0.00000000000E+00  0.45593999997E+02  0.45594000000E+02  0.51100000000E-03 0. -1.
         11   -1    0    0    0    0 -0.00000000000E+00 -0.00000000000E+00 -0.45593999997E+02  0.45594000000E+02  0.51100000000E-03 0.  1.
    9900012    2    1    2    0    0 -0.26331185451E+02  0.25959943084E+02 -0.16909051592E+02  0.50528855912E+02  0.29999988031E+02 0.  0.
         12    1    1    2    0    0  0.26331185451E+02 -0.25959943084E+02  0.16909051592E+02  0.40659144088E+02  0.00000000000E+00 0. -1.
         11    1    3    3    0    0  0.99998442730E+00  0.58025644753E+01  0.45069242920E+01  0.74149909089E+01  0.51100000000E-03 0. -1.
        -11    1    3    3    0    0 -0.17884153421E+02  0.36259906830E+01 -0.12279761414E+02  0.21995074282E+02  0.51100000000E-03 0.  1.
         12    1    3    3    0    0 -0.94470164572E+01  0.16531387926E+02 -0.91362144708E+01  0.21118790722E+02  0.00000000000E+00 0. -1.
</event>
<event>
 7    1  0.5005325E-012  0.5052886E+02  0.7816164E-02  0.1300439E+00
        -11   -1    0    0    0    0  0.00000000000E+00  0.00000000000E+00  0.45593999997E+02  0.45594000000E+02  0.51100000000E-03 0. -1.
         11   -1    0    0    0    0 -0.00000000000E+00 -0.00000000000E+00 -0.45593999997E+02  0.45594000000E+02  0.51100000000E-03 0.  1.
    9900012    2    1    2    0    0 -0.14745396976E+02 -0.15885885408E+02  0.34400252807E+02  0.50528862277E+02  0.30000007379E+02 0.  0.
        -12    1    1    2    0    0  0.14745396976E+02  0.15885885408E+02 -0.34400252807E+02  0.40659137723E+02  0.00000000000E+00 0.  1.
         11    1    3    3    0    0  0.21234976222E+01 -0.95598681568E+01  0.23457107385E+01  0.10069889794E+02  0.51100000000E-03 0. -1.
        -11    1    3    3    0    0 -0.10640757657E+02 -0.60027442965E+01  0.58926165177E+01  0.13563981432E+02  0.51100000000E-03 0.  1.
         12    1    3    3    0    0 -0.62281369411E+01 -0.32327295430E+00  0.26161925551E+02  0.26894991052E+02  0.00000000000E+00 0. -1.
</event>
<event>
 7    1  0.5005325E-012  0.5052887E+02  0.7816164E-02  0.1300439E+00
        -11   -1    0    0    0    0  0.00000000000E+00  0.00000000000E+00  0.45593999997E+02  0.45594000000E+02  0.51100000000E-03 0. -1.
         11   -1    0    0    0    0 -0.00000000000E+00 -0.00000000000E+00 -0.45593999997E+02  0.45594000000E+02  0.51100000000E-03 0.  1.
    9900012    2    1    2    0    0  0.27770563125E+02 -0.11767782761E+02  0.27266830348E+02  0.50528869112E+02  0.30000028152E+02 0.  0.
        -12    1    1    2    0    0 -0.27770563125E+02  0.11767782761E+02 -0.27266830348E+02  0.40659130888E+02  0.00000000000E+00 0.  1.
         11    1    3    3    0    0 -0.65945566423E+00 -0.89286728205E+00  0.11473109090E+02  0.11526678889E+02  0.51100000000E-03 0.  1.
        -11    1    3    3    0    0  0.21503088555E+02 -0.34438161802E+01  0.18405126572E+02  0.28513003554E+02  0.51100000000E-03 0. -1.
         12    1    3    3    0    0  0.69269302342E+01 -0.74310992988E+01 -0.26114053145E+01  0.10489186669E+02  0.00000000000E+00 0. -1.
</event>
<event>
 7    1  0.5005325E-012  0.5052886E+02  0.7816164E-02  0.1300439E+00
        -11   -1    0    0    0    0  0.00000000000E+00  0.00000000000E+00  0.45593999997E+02  0.45594000000E+02  0.51100000000E-03 0.  1.
         11   -1    0    0    0    0 -0.00000000000E+00 -0.00000000000E+00 -0.45593999997E+02  0.45594000000E+02  0.51100000000E-03 0. -1.
    9900012    2    1    2    0    0 -0.10923164496E+01 -0.38889848166E+02 -0.11813226679E+02  0.50528858713E+02  0.29999996545E+02 0.  0.
         12    1    1    2    0    0  0.10923164496E+01  0.38889848166E+02  0.11813226679E+02  0.40659141287E+02  0.00000000000E+00 0. -1.
         11    1    3    3    0    0 -0.12979752116E+02 -0.78795015884E+01 -0.65077283450E+01  0.16520019332E+02  0.51100000000E-03 0.  1.
        -11    1    3    3    0    0  0.73686765369E+01 -0.12248989997E+02 -0.22559389597E+01  0.14471503401E+02  0.51100000000E-03 0. -1.
        -12    1    3    3    0    0  0.45187591291E+01 -0.18761356581E+02 -0.30495593747E+01  0.19537335980E+02  0.00000000000E+00 0.  1.
</event>
<event>
 7    1  0.5005325E-012  0.5052886E+02  0.7816164E-02  0.1300439E+00
        -11   -1    0    0    0    0  0.00000000000E+00  0.00000000000E+00  0.45593999997E+02  0.45594000000E+02  0.51100000000E-03 0. -1.
         11   -1    0    0    0    0 -0.00000000000E+00 -0.00000000000E+00 -0.45593999997E+02  0.45594000000E+02  0.51100000000E-03 0.  1.
    9900012    2    1    2    0    0 -0.30476919531E+02 -0.18466865953E+02 -0.19577998518E+02  0.50528858492E+02  0.29999995872E+02 0.  0.
         12    1    1    2    0    0  0.30476919531E+02  0.18466865953E+02  0.19577998518E+02  0.40659141508E+02  0.00000000000E+00 0. -1.
         11    1    3    3    0    0 -0.98610023706E+01 -0.39856819418E+00 -0.65786148048E+00  0.98909557853E+01  0.51100000000E-03 0. -1.
        -11    1    3    3    0    0 -0.19639612626E+02 -0.12413439523E+02 -0.23685692335E+02  0.33178605856E+02  0.51100000000E-03 0.  1.
         12    1    3    3    0    0 -0.97630453397E+00 -0.56548582359E+01  0.47655552976E+01  0.74592968506E+01  0.00000000000E+00 0. -1.
</event>
<event>
 7    1  0.5005325E-012  0.5052887E+02  0.7816164E-02  0.1300439E+00
        -11   -1    0    0    0    0  0.00000000000E+00  0.00000000000E+00  0.45593999997E+02  0.45594000000E+02  0.51100000000E-03 0. -1.
         11   -1    0    0    0    0 -0.00000000000E+00 -0.00000000000E+00 -0.45593999997E+02  0.45594000000E+02  0.51100000000E-03 0.  1.
    9900012    2    1    2    0    0  0.88255804208E+01  0.18656329571E+02  0.35031638359E+02  0.50528865861E+02  0.30000018270E+02 0.  0.
        -12    1    1    2    0    0 -0.88255804208E+01 -0.18656329571E+02 -0.35031638359E+02  0.40659134139E+02  0.00000000000E+00 0.  1.
         11    1    3    3    0    0 -0.23697606128E+01  0.10304946208E+02  0.49507730446E+01  0.11675522931E+02  0.51100000000E-03 0. -1.
        -11    1    3    3    0    0  0.63432584428E+01  0.14808437949E+02  0.23188897237E+02  0.28235646220E+02  0.51100000000E-03 0.  1.
        -12    1    3    3    0    0  0.48520825908E+01 -0.64570545873E+01  0.68919680783E+01  0.10617696709E+02  0.00000000000E+00 0.  1.
</event>
<event>
 7    1  0.5005325E-012  0.5052886E+02  0.7816164E-02  0.1300439E+00
        -11   -1    0    0    0    0  0.00000000000E+00  0.00000000000E+00  0.45593999997E+02  0.45594000000E+02  0.51100000000E-03 0. -1.
         11   -1    0    0    0    0 -0.00000000000E+00 -0.00000000000E+00 -0.45593999997E+02  0.45594000000E+02  0.51100000000E-03 0.  1.
    9900012    2    1    2    0    0  0.31406216510E+02  0.21933974559E+02 -0.13627772781E+02  0.50528857530E+02  0.29999992948E+02 0.  0.
         12    1    1    2    0    0 -0.31406216510E+02 -0.21933974559E+02  0.13627772781E+02  0.40659142470E+02  0.00000000000E+00 0. -1.
         11    1    3    3    0    0  0.15390473498E+02  0.30903167665E+01 -0.15371136768E+02  0.21970174738E+02  0.51100000000E-03 0. -1.
        -11    1    3    3    0    0  0.16278024501E+02  0.90265224761E+01  0.17804200320E+00  0.18614077707E+02  0.51100000000E-03 0.  1.
         12    1    3    3    0    0 -0.26228148884E+00  0.98171353164E+01  0.15653219830E+01  0.99446050857E+01  0.00000000000E+00 0. -1.
</event>
<event>
 7    1  0.5005325E-012  0.5052886E+02  0.7816164E-02  0.1300439E+00
        -11   -1    0    0    0    0  0.00000000000E+00  0.00000000000E+00  0.45593999997E+02  0.45594000000E+02  0.51100000000E-03 0. -1.
         11   -1    0    0    0    0 -0.00000000000E+00 -0.00000000000E+00 -0.45593999997E+02  0.45594000000E+02  0.51100000000E-03 0.  1.
    9900012    2    1    2    0    0  0.24858195698E+02  0.19461360675E+02 -0.25622084982E+02  0.50528859681E+02  0.29999999485E+02 0.  0.
         12    1    1    2    0    0 -0.24858195698E+02 -0.19461360675E+02  0.25622084982E+02  0.40659140319E+02  0.00000000000E+00 0. -1.
         11    1    3    3    0    0  0.52971197415E+01  0.40168747213E+01 -0.91055983000E+00  0.67099835728E+01  0.51100000000E-03 0. -1.
        -11    1    3    3    0    0  0.74811255062E+00  0.17220669450E+02 -0.12969210188E+02  0.21571081147E+02  0.51100000000E-03 0.  1.
        -12    1    3    3    0    0  0.18812963405E+02 -0.17761834959E+01 -0.11742314965E+02  0.22247794961E+02  0.00000000000E+00 0.  1.
</event>
<event>
 7    1  0.5005325E-012  0.5052886E+02  0.7816164E-02  0.1300439E+00
        -11   -1    0    0    0    0  0.00000000000E+00  0.00000000000E+00  0.45593999997E+02  0.45594000000E+02  0.51100000000E-03 0.  1.
         11   -1    0    0    0    0 -0.00000000000E+00 -0.00000000000E+00 -0.45593999997E+02  0.45594000000E+02  0.51100000000E-03 0. -1.
    9900012    2    1    2    0    0 -0.66919991515E+01 -0.36965608518E+02  0.15553987654E+02  0.50528860834E+02  0.30000002992E+02 0.  0.
        -12    1    1    2    0    0  0.66919991515E+01  0.36965608518E+02 -0.15553987654E+02  0.40659139166E+02  0.00000000000E+00 0.  1.
         11    1    3    3    0    0 -0.84614434757E+01 -0.16556617144E+02  0.31633257853E+01  0.18860652885E+02  0.51100000000E-03 0. -1.
        -11    1    3    3    0    0  0.76233312865E+01 -0.20450018396E+02  0.52734927346E+01  0.22452798449E+02  0.51100000000E-03 0.  1.
         12    1    3    3    0    0 -0.58538869623E+01  0.41027022266E-01  0.71171691341E+01  0.92154095008E+01  0.00000000000E+00 0. -1.
</event>
<event>
 7    1  0.5005325E-012  0.5052886E+02  0.7816164E-02  0.1300439E+00
        -11   -1    0    0    0    0  0.00000000000E+00  0.00000000000E+00  0.45593999997E+02  0.45594000000E+02  0.51100000000E-03 0.  1.
         11   -1    0    0    0    0 -0.00000000000E+00 -0.00000000000E+00 -0.45593999997E+02  0.45594000000E+02  0.51100000000E-03 0. -1.
    9900012    2    1    2    0    0  0.39001398752E+02 -0.97316191675E+01  0.61116490425E+01  0.50528858712E+02  0.29999996542E+02 0.  0.
        -12    1    1    2    0    0 -0.39001398752E+02  0.97316191675E+01 -0.61116490425E+01  0.40659141288E+02  0.00000000000E+00 0.  1.
         11    1    3    3    0    0  0.51739884578E+01  0.41079179673E+01  0.97530694299E+01  0.11779962231E+02  0.51100000000E-03 0. -1.
        -11    1    3    3    0    0  0.67877835755E+01 -0.58631206787E+01  0.35632548880E+01  0.96512680835E+01  0.51100000000E-03 0.  1.
         12    1    3    3    0    0  0.27039626719E+02 -0.79764164561E+01 -0.72046752754E+01  0.29097628398E+02  0.00000000000E+00 0. -1.
</event>
<event>
 7    1  0.5005325E-012  0.5052889E+02  0.7816164E-02  0.1300439E+00
        -11   -1    0    0    0    0  0.00000000000E+00  0.00000000000E+00  0.45593999997E+02  0.45594000000E+02  0.51100000000E-03 0.  1.
         11   -1    0    0    0    0 -0.00000000000E+00 -0.00000000000E+00 -0.45593999997E+02  0.45594000000E+02  0.51100000000E-03 0. -1.
    9900012    2    1    2    0    0  0.16729842188E+02 -0.34430298680E+02 -0.13705100536E+02  0.50528894409E+02  0.30000105044E+02 0.  0.
         12    1    1    2    0    0 -0.16729842188E+02  0.34430298680E+02  0.13705100536E+02  0.40659105591E+02  0.00000000000E+00 0. -1.
         11    1    3    3    0    0 -0.30232877121E+01 -0.39863046196E+01 -0.21677108138E+01  0.54525098390E+01  0.51100000000E-03 0. -1.
        -11    1    3    3    0    0  0.86695867121E+01 -0.11612986179E+02  0.72998762205E+01  0.16226871998E+02  0.51100000000E-03 0.  1.
        -12    1    3    3    0    0  0.11083543188E+02 -0.18831007881E+02 -0.18837265942E+02  0.28849512571E+02  0.00000000000E+00 0.  1.
</event>
<event>
 7    1  0.5005325E-012  0.5052885E+02  0.7816164E-02  0.1300439E+00
        -11   -1    0    0    0    0  0.00000000000E+00  0.00000000000E+00  0.45593999997E+02  0.45594000000E+02  0.51100000000E-03 0.  1.
         11   -1    0    0    0    0 -0.00000000000E+00 -0.00000000000E+00 -0.45593999997E+02  0.45594000000E+02  0.51100000000E-03 0. -1.
    9900012    2    1    2    0    0 -0.62177434799E+01  0.27509289451E+02 -0.29287279576E+02  0.50528854841E+02  0.29999984775E+02 0.  0.
         12    1    1    2    0    0  0.62177434799E+01 -0.27509289451E+02  0.29287279576E+02  0.40659145159E+02  0.00000000000E+00 0. -1.
         11    1    3    3    0    0  0.39444698379E+00 -0.11425868622E+01  0.77244571392E+00  0.14344914788E+01  0.51100000000E-03 0. -1.
        -11    1    3    3    0    0  0.56854644331E+01  0.21308666488E+02 -0.94435051435E+01  0.23990905839E+02  0.51100000000E-03 0.  1.
         12    1    3    3    0    0 -0.12297654897E+02  0.73432098254E+01 -0.20616220146E+02  0.25103457523E+02  0.00000000000E+00 0. -1.
</event>
<event>
 7    1  0.5005325E-012  0.5052886E+02  0.7816164E-02  0.1300439E+00
        -11   -1    0    0    0    0  0.00000000000E+00  0.00000000000E+00  0.45593999997E+02  0.45594000000E+02  0.51100000000E-03 0. -1.
         11   -1    0    0    0    0 -0.00000000000E+00 -0.00000000000E+00 -0.45593999997E+02  0.45594000000E+02  0.51100000000E-03 0.  1.
    9900012    2    1    2    0    0 -0.44570425005E+01 -0.32953843366E+02 -0.23395390012E+02  0.50528864565E+02  0.30000014333E+02 0.  0.
         12    1    1    2    0    0  0.44570425005E+01  0.32953843366E+02  0.23395390012E+02  0.40659135435E+02  0.00000000000E+00 0. -1.
         11    1    3    3    0    0  0.35562127809E+01 -0.68962637015E+01  0.53122338037E+01  0.94034531227E+01  0.51100000000E-03 0. -1.
        -11    1    3    3    0    0 -0.13394799954E+01 -0.12416245237E+02 -0.61199063505E+01  0.13907214187E+02  0.51100000000E-03 0.  1.
        -12    1    3    3    0    0 -0.66737752860E+01 -0.13641334428E+02 -0.22587717466E+02  0.27218197256E+02  0.00000000000E+00 0.  1.
</event>
<event>
 7    1  0.5005325E-012  0.5052886E+02  0.7816164E-02  0.1300439E+00
        -11   -1    0    0    0    0  0.00000000000E+00  0.00000000000E+00  0.45593999997E+02  0.45594000000E+02  0.51100000000E-03 0.  1.
         11   -1    0    0    0    0 -0.00000000000E+00 -0.00000000000E+00 -0.45593999997E+02  0.45594000000E+02  0.51100000000E-03 0. -1.
    9900012    2    1    2    0    0  0.14062455791E+02 -0.38110327949E+02 -0.17365947470E+01  0.50528861783E+02  0.30000005875E+02 0.  0.
        -12    1    1    2    0    0 -0.14062455791E+02  0.38110327949E+02  0.17365947470E+01  0.40659138217E+02  0.00000000000E+00 0.  1.
         11    1    3    3    0    0  0.10611863865E+02 -0.17137118376E+02 -0.32133911057E+01  0.20411231310E+02  0.51100000000E-03 0. -1.
        -11    1    3    3    0    0  0.10775099744E+02 -0.15771044570E+02 -0.41107833821E+01  0.19537839225E+02  0.51100000000E-03 0.  1.
        -12    1    3    3    0    0 -0.73245078175E+01 -0.52021650029E+01  0.55875797408E+01  0.10579791248E+02  0.00000000000E+00 0.  1.
</event>
<event>
 7    1  0.5005325E-012  0.5052886E+02  0.7816164E-02  0.1300439E+00
        -11   -1    0    0    0    0  0.00000000000E+00  0.00000000000E+00  0.45593999997E+02  0.45594000000E+02  0.51100000000E-03 0.  1.
         11   -1    0    0    0    0 -0.00000000000E+00 -0.00000000000E+00 -0.45593999997E+02  0.45594000000E+02  0.51100000000E-03 0. -1.
    9900012    2    1    2    0    0  0.38215508193E+02 -0.11188232743E+02  0.82197572778E+01  0.50528855542E+02  0.29999986906E+02 0.  0.
        -12    1    1    2    0    0 -0.38215508193E+02  0.11188232743E+02 -0.82197572778E+01  0.40659144458E+02  0.00000000000E+00 0.  1.
         11    1    3    3    0    0  0.21369666560E+01 -0.13268490836E+02  0.17843657785E+01  0.13557412623E+02  0.51100000000E-03 0. -1.
        -11    1    3    3    0    0  0.24456769325E+01  0.15257880985E+00  0.16283797155E+01  0.29421483154E+01  0.51100000000E-03 0.  1.
         12    1    3    3    0    0  0.33632864604E+02  0.19276792832E+01  0.48070117839E+01  0.34029294603E+02  0.00000000000E+00 0. -1.
</event>
<event>
 7    1  0.5005325E-012  0.5052887E+02  0.7816164E-02  0.1300439E+00
        -11   -1    0    0    0    0  0.00000000000E+00  0.00000000000E+00  0.45593999997E+02  0.45594000000E+02  0.51100000000E-03 0. -1.
         11   -1    0    0    0    0 -0.00000000000E+00 -0.00000000000E+00 -0.45593999997E+02  0.45594000000E+02  0.51100000000E-03 0.  1.
    9900012    2    1    2    0    0 -0.58420403289E+01  0.31136934469E+01  0.40116582926E+02  0.50528871287E+02  0.30000034764E+02 0.  0.
        -12    1    1    2    0    0  0.58420403289E+01 -0.31136934469E+01 -0.40116582926E+02  0.40659128713E+02  0.00000000000E+00 0.  1.
         11    1    3    3    0    0  0.10000604344E+00  0.42774371306E+00 -0.20728009862E+01  0.21188369646E+01  0.51100000000E-03 0. -1.
        -11    1    3    3    0    0  0.22556217125E+01 -0.88804907767E+01  0.12386099134E+02  0.15406699769E+02  0.51100000000E-03 0.  1.
         12    1    3    3    0    0 -0.81976680849E+01  0.11566440511E+02  0.29803284778E+02  0.33003334553E+02  0.00000000000E+00 0. -1.
</event>
<event>
 7    1  0.5005325E-012  0.5052886E+02  0.7816164E-02  0.1300439E+00
        -11   -1    0    0    0    0  0.00000000000E+00  0.00000000000E+00  0.45593999997E+02  0.45594000000E+02  0.51100000000E-03 0. -1.
         11   -1    0    0    0    0 -0.00000000000E+00 -0.00000000000E+00 -0.45593999997E+02  0.45594000000E+02  0.51100000000E-03 0.  1.
    9900012    2    1    2    0    0 -0.15528810415E+02  0.27111769768E+02  0.26018724134E+02  0.50528855661E+02  0.29999987266E+02 0.  0.
        -12    1    1    2    0    0  0.15528810415E+02 -0.27111769768E+02 -0.26018724134E+02  0.40659144339E+02  0.00000000000E+00 0.  1.
         11    1    3    3    0    0 -0.78306862758E+01  0.95220566677E+01  0.16273184571E+02  0.20415820999E+02  0.51100000000E-03 0. -1.
        -11    1    3    3    0    0  0.96241997659E+00 -0.29208987359E+01  0.70434320363E+01  0.76855602755E+01  0.51100000000E-03 0.  1.
         12    1    3    3    0    0 -0.86605441153E+01  0.20510611836E+02  0.27021075273E+01  0.22427474386E+02  0.00000000000E+00 0. -1.
</event>
<event>
 7    1  0.5005325E-012  0.5052885E+02  0.7816164E-02  0.1300439E+00
        -11   -1    0    0    0    0  0.00000000000E+00  0.00000000000E+00  0.45593999997E+02  0.45594000000E+02  0.51100000000E-03 0. -1.
         11   -1    0    0    0    0 -0.00000000000E+00 -0.00000000000E+00 -0.45593999997E+02  0.45594000000E+02  0.51100000000E-03 0.  1.
    9900012    2    1    2    0    0 -0.28143380641E+02  0.27761966207E+02  0.95073566325E+01  0.50528850086E+02  0.29999970321E+02 0.  0.
        -12    1    1    2    0    0  0.28143380641E+02 -0.27761966207E+02 -0.95073566325E+01  0.40659149914E+02  0.00000000000E+00 0.  1.
         11    1    3    3    0    0 -0.27449707065E+02  0.21237727219E+02 -0.12978775125E+01  0.34730562358E+02  0.51100000000E-03 0. -1.
        -11    1    3    3    0    0  0.89943484466E+00  0.50756954144E+01  0.39741100866E+00  0.51700679638E+01  0.51100000000E-03 0.  1.
        -12    1    3    3    0    0 -0.15931084204E+01  0.14485435741E+01  0.10407823136E+02  0.10628219765E+02  0.00000000000E+00 0.  1.
</event>
<event>
 7    1  0.5005325E-012  0.5052885E+02  0.7816164E-02  0.1300439E+00
        -11   -1    0    0    0    0  0.00000000000E+00  0.00000000000E+00  0.45593999997E+02  0.45594000000E+02  0.51100000000E-03 0. -1.
         11   -1    0    0    0    0 -0.00000000000E+00 -0.00000000000E+00 -0.45593999997E+02  0.45594000000E+02  0.51100000000E-03 0.  1.
    9900012    2    1    2    0    0  0.25531443658E+00 -0.30873352463E+02 -0.26456335868E+02  0.50528846229E+02  0.29999958599E+02 0.  0.
         12    1    1    2    0    0 -0.25531443658E+00  0.30873352463E+02  0.26456335868E+02  0.40659153771E+02  0.00000000000E+00 0. -1.
         11    1    3    3    0    0  0.26778626320E+01 -0.13355305324E+02  0.17958699723E+01  0.13739005707E+02  0.51100000000E-03 0. -1.
        -11    1    3    3    0    0  0.53580975106E+01 -0.12905781297E+02 -0.13162176887E+02  0.19196648157E+02  0.51100000000E-03 0.  1.
        -12    1    3    3    0    0 -0.77806457061E+01 -0.46122658422E+01 -0.15090028953E+02  0.17593192366E+02  0.00000000000E+00 0.  1.
</event>
<event>
 7    1  0.5005325E-012  0.5052890E+02  0.7816164E-02  0.1300439E+00
        -11   -1    0    0    0    0  0.00000000000E+00  0.00000000000E+00  0.45593999997E+02  0.45594000000E+02  0.51100000000E-03 0. -1.
         11   -1    0    0    0    0 -0.00000000000E+00 -0.00000000000E+00 -0.45593999997E+02  0.45594000000E+02  0.51100000000E-03 0.  1.
    9900012    2    1    2    0    0 -0.24047880312E+02 -0.10294450724E+02 -0.31126934226E+02  0.50528901418E+02  0.30000126350E+02 0.  0.
         12    1    1    2    0    0  0.24047880312E+02  0.10294450724E+02  0.31126934226E+02  0.40659098582E+02  0.00000000000E+00 0. -1.
         11    1    3    3    0    0 -0.10870309715E+02 -0.43505385343E+01 -0.13205050181E+02  0.17648347497E+02  0.51100000000E-03 0. -1.
        -11    1    3    3    0    0 -0.16326092514E+02 -0.49871117840E+01 -0.26707768321E+01  0.17278473019E+02  0.51100000000E-03 0.  1.
         12    1    3    3    0    0  0.31485219163E+01 -0.95680040524E+00 -0.15251107212E+02  0.15602080902E+02  0.00000000000E+00 0. -1.
</event>
<event>
 7    1  0.5005325E-012  0.5052885E+02  0.7816164E-02  0.1300439E+00
        -11   -1    0    0    0    0  0.00000000000E+00  0.00000000000E+00  0.45593999997E+02  0.45594000000E+02  0.51100000000E-03 0. -1.
         11   -1    0    0    0    0 -0.00000000000E+00 -0.00000000000E+00 -0.45593999997E+02  0.45594000000E+02  0.51100000000E-03 0.  1.
    9900012    2    1    2    0    0  0.22004625086E+02  0.16799145512E+02  0.29778372503E+02  0.50528852394E+02  0.29999977338E+02 0.  0.
        -12    1    1    2    0    0 -0.22004625086E+02 -0.16799145512E+02 -0.29778372503E+02  0.40659147606E+02  0.00000000000E+00 0.  1.
         11    1    3    3    0    0  0.58909517082E+01  0.65115743740E+01  0.15353475379E+02  0.17687089058E+02  0.51100000000E-03 0. -1.
        -11    1    3    3    0    0  0.20370713807E+02  0.10038677091E+02  0.16527414105E+02  0.28087300263E+02  0.51100000000E-03 0.  1.
        -12    1    3    3    0    0 -0.42570404296E+01  0.24889404674E+00 -0.21025169818E+01  0.47544630742E+01  0.00000000000E+00 0.  1.
</event>
<event>
 7    1  0.5005325E-012  0.5052886E+02  0.7816164E-02  0.1300439E+00
        -11   -1    0    0    0    0  0.00000000000E+00  0.00000000000E+00  0.45593999997E+02  0.45594000000E+02  0.51100000000E-03 0. -1.
         11   -1    0    0    0    0 -0.00000000000E+00 -0.00000000000E+00 -0.45593999997E+02  0.45594000000E+02  0.51100000000E-03 0.  1.
    9900012    2    1    2    0    0 -0.26153066355E+02 -0.12102010424E+02  0.28683168641E+02  0.50528859584E+02  0.29999999192E+02 0.  0.
        -12    1    1    2    0    0  0.26153066355E+02  0.12102010424E+02 -0.28683168641E+02  0.40659140416E+02  0.00000000000E+00 0.  1.
         11    1    3    3    0    0 -0.35347990511E+01  0.83699995288E-01  0.16233441247E+02  0.16614043006E+02  0.51100000000E-03 0. -1.
        -11    1    3    3    0    0 -0.40120350626E+01 -0.44339311292E+00 -0.45708622891E+01  0.60980164909E+01  0.51100000000E-03 0.  1.
         12    1    3    3    0    0 -0.18606232241E+02 -0.11742317306E+02  0.17020589683E+02  0.27816800087E+02  0.00000000000E+00 0. -1.
</event>
<event>
 7    1  0.5005325E-012  0.5052881E+02  0.7816164E-02  0.1300439E+00
        -11   -1    0    0    0    0  0.00000000000E+00  0.00000000000E+00  0.45593999997E+02  0.45594000000E+02  0.51100000000E-03 0. -1.
         11   -1    0    0    0    0 -0.00000000000E+00 -0.00000000000E+00 -0.45593999997E+02  0.45594000000E+02  0.51100000000E-03 0.  1.
    9900012    2    1    2    0    0  0.36306858936E+02  0.16084912416E+02 -0.87325611174E+01  0.50528806244E+02  0.29999837058E+02 0.  0.
         12    1    1    2    0    0 -0.36306858936E+02 -0.16084912416E+02  0.87325611174E+01  0.40659193756E+02  0.00000000000E+00 0. -1.
         11    1    3    3    0    0  0.17636985443E+02  0.14267938765E+02 -0.11517623565E+02  0.25441953246E+02  0.51100000000E-03 0. -1.
        -11    1    3    3    0    0  0.10661751995E+02 -0.33492037478E+01 -0.55032011429E+01  0.12456939609E+02  0.51100000000E-03 0.  1.
         12    1    3    3    0    0  0.80081214985E+01  0.51661773994E+01  0.82882635909E+01  0.12629913389E+02  0.00000000000E+00 0. -1.
</event>
<event>
 7    1  0.5005325E-012  0.5052891E+02  0.7816164E-02  0.1300439E+00
        -11   -1    0    0    0    0  0.00000000000E+00  0.00000000000E+00  0.45593999997E+02  0.45594000000E+02  0.51100000000E-03 0. -1.
         11   -1    0    0    0    0 -0.00000000000E+00 -0.00000000000E+00 -0.45593999997E+02  0.45594000000E+02  0.51100000000E-03 0.  1.
    9900012    2    1    2    0    0  0.37624644378E+02 -0.67918403434E+01 -0.13835403284E+02  0.50528913146E+02  0.30000161997E+02 0.  0.
         12    1    1    2    0    0 -0.37624644378E+02  0.67918403434E+01  0.13835403284E+02  0.40659086854E+02  0.00000000000E+00 0. -1.
         11    1    3    3    0    0 -0.12292775147E+01 -0.80681405742E+00 -0.52047919828E+01  0.54085055215E+01  0.51100000000E-03 0. -1.
        -11    1    3    3    0    0  0.32396314070E+02 -0.10581178071E+01 -0.14079640274E+02  0.35339454568E+02  0.51100000000E-03 0.  1.
         12    1    3    3    0    0  0.64576078223E+01 -0.49269084789E+01  0.54490289727E+01  0.97809530564E+01  0.00000000000E+00 0. -1.
</event>
<event>
 7    1  0.5005325E-012  0.5052885E+02  0.7816164E-02  0.1300439E+00
        -11   -1    0    0    0    0  0.00000000000E+00  0.00000000000E+00  0.45593999997E+02  0.45594000000E+02  0.51100000000E-03 0. -1.
         11   -1    0    0    0    0 -0.00000000000E+00 -0.00000000000E+00 -0.45593999997E+02  0.45594000000E+02  0.51100000000E-03 0.  1.
    9900012    2    1    2    0    0  0.15883197747E+02 -0.27386829605E+02 -0.25511801565E+02  0.50528850653E+02  0.29999972046E+02 0.  0.
         12    1    1    2    0    0 -0.15883197747E+02  0.27386829605E+02  0.25511801565E+02  0.40659149347E+02  0.00000000000E+00 0. -1.
         11    1    3    3    0    0 -0.51732973632E+00 -0.78366430790E+01  0.27509513478E+01  0.83215586511E+01  0.51100000000E-03 0. -1.
        -11    1    3    3    0    0  0.24729254120E+01  0.31580682949E+01 -0.72212262219E+01  0.82604396892E+01  0.51100000000E-03 0.  1.
        -12    1    3    3    0    0  0.13927602071E+02 -0.22708254821E+02 -0.21041526691E+02  0.33946852313E+02  0.00000000000E+00 0.  1.
</event>
<event>
 7    1  0.5005325E-012  0.5052886E+02  0.7816164E-02  0.1300439E+00
        -11   -1    0    0    0    0  0.00000000000E+00  0.00000000000E+00  0.45593999997E+02  0.45594000000E+02  0.51100000000E-03 0.  1.
         11   -1    0    0    0    0 -0.00000000000E+00 -0.00000000000E+00 -0.45593999997E+02  0.45594000000E+02  0.51100000000E-03 0. -1.
    9900012    2    1    2    0    0  0.38151684359E+02  0.14049192274E+02  0.48462033502E+00  0.50528859824E+02  0.29999999922E+02 0.  0.
         12    1    1    2    0    0 -0.38151684359E+02 -0.14049192274E+02 -0.48462033502E+00  0.40659140176E+02  0.00000000000E+00 0. -1.
         11    1    3    3    0    0  0.86797223842E+01  0.11146606483E+02 -0.90734914326E+01  0.16790255024E+02  0.51100000000E-03 0. -1.
        -11    1    3    3    0    0  0.11584567564E+02  0.66120846160E+00 -0.27317460617E+01  0.11920647595E+02  0.51100000000E-03 0.  1.
        -12    1    3    3    0    0  0.17887394410E+02  0.22413773297E+01  0.12289857829E+02  0.21817957205E+02  0.00000000000E+00 0.  1.
</event>
<event>
 7    1  0.5005325E-012  0.5052886E+02  0.7816164E-02  0.1300439E+00
        -11   -1    0    0    0    0  0.00000000000E+00  0.00000000000E+00  0.45593999997E+02  0.45594000000E+02  0.51100000000E-03 0. -1.
         11   -1    0    0    0    0 -0.00000000000E+00 -0.00000000000E+00 -0.45593999997E+02  0.45594000000E+02  0.51100000000E-03 0.  1.
    9900012    2    1    2    0    0 -0.19824137595E+02  0.26989892368E+02 -0.23058938042E+02  0.50528863941E+02  0.30000012435E+02 0.  0.
         12    1    1    2    0    0  0.19824137595E+02 -0.26989892368E+02  0.23058938042E+02  0.40659136059E+02  0.00000000000E+00 0. -1.
         11    1    3    3    0    0  0.29861116559E+01  0.11748824442E+02 -0.11365882650E+02  0.16617311072E+02  0.51100000000E-03 0.  1.
        -11    1    3    3    0    0 -0.16260725077E+02  0.16835418737E+02 -0.13383265681E+02  0.26962090138E+02  0.51100000000E-03 0. -1.
         12    1    3    3    0    0 -0.65495241741E+01 -0.15943508107E+01  0.16902102894E+01  0.69494627302E+01  0.00000000000E+00 0. -1.
</event>
<event>
 7    1  0.5005325E-012  0.5052886E+02  0.7816164E-02  0.1300439E+00
        -11   -1    0    0    0    0  0.00000000000E+00  0.00000000000E+00  0.45593999997E+02  0.45594000000E+02  0.51100000000E-03 0. -1.
         11   -1    0    0    0    0 -0.00000000000E+00 -0.00000000000E+00 -0.45593999997E+02  0.45594000000E+02  0.51100000000E-03 0.  1.
    9900012    2    1    2    0    0 -0.28903475171E+02  0.25934260725E+02 -0.12048603213E+02  0.50528860859E+02  0.30000003068E+02 0.  0.
         12    1    1    2    0    0  0.28903475171E+02 -0.25934260725E+02  0.12048603213E+02  0.40659139141E+02  0.00000000000E+00 0. -1.
         11    1    3    3    0    0 -0.96021426992E+01 -0.14322524289E+01 -0.76582575620E+01  0.12365330589E+02  0.51100000000E-03 0. -1.
        -11    1    3    3    0    0 -0.61038137279E+01  0.11514221735E+02 -0.10406461882E+02  0.16677178819E+02  0.51100000000E-03 0.  1.
         12    1    3    3    0    0 -0.13197518744E+02  0.15852291418E+02  0.60161162305E+01  0.21486351451E+02  0.00000000000E+00 0. -1.
</event>
<event>
 7    1  0.5005325E-012  0.5052887E+02  0.7816164E-02  0.1300439E+00
        -11   -1    0    0    0    0  0.00000000000E+00  0.00000000000E+00  0.45593999997E+02  0.45594000000E+02  0.51100000000E-03 0. -1.
         11   -1    0    0    0    0 -0.00000000000E+00 -0.00000000000E+00 -0.45593999997E+02  0.45594000000E+02  0.51100000000E-03 0.  1.
    9900012    2    1    2    0    0  0.14979395597E+02 -0.24467353534E+02 -0.28811997860E+02  0.50528869389E+02  0.30000028994E+02 0.  0.
         12    1    1    2    0    0 -0.14979395597E+02  0.24467353534E+02  0.28811997860E+02  0.40659130611E+02  0.00000000000E+00 0. -1.
         11    1    3    3    0    0 -0.50230826455E+00 -0.10502845158E+01 -0.17277146870E+02  0.17316327999E+02  0.51100000000E-03 0. -1.
        -11    1    3    3    0    0  0.19437291824E+01 -0.14458756993E+02 -0.30847516415E+01  0.14911385914E+02  0.51100000000E-03 0.  1.
        -12    1    3    3    0    0  0.13537974679E+02 -0.89583120246E+01 -0.84500993485E+01  0.18301155476E+02  0.00000000000E+00 0.  1.
</event>
<event>
 7    1  0.5005325E-012  0.5052887E+02  0.7816164E-02  0.1300439E+00
        -11   -1    0    0    0    0  0.00000000000E+00  0.00000000000E+00  0.45593999997E+02  0.45594000000E+02  0.51100000000E-03 0. -1.
         11   -1    0    0    0    0 -0.00000000000E+00 -0.00000000000E+00 -0.45593999997E+02  0.45594000000E+02  0.51100000000E-03 0.  1.
    9900012    2    1    2    0    0 -0.22096505475E+02 -0.17503759607E+02 -0.29300641461E+02  0.50528871325E+02  0.30000034880E+02 0.  0.
         12    1    1    2    0    0  0.22096505475E+02  0.17503759607E+02  0.29300641461E+02  0.40659128675E+02  0.00000000000E+00 0. -1.
         11    1    3    3    0    0 -0.84528239210E+01 -0.11757470298E+02 -0.12460414956E+02  0.19103671929E+02  0.51100000000E-03 0. -1.
        -11    1    3    3    0    0 -0.76629301633E+01 -0.10599775401E+02 -0.19322187720E+02  0.23332866857E+02  0.51100000000E-03 0.  1.
        -12    1    3    3    0    0 -0.59807513906E+01  0.48534860920E+01  0.24819612147E+01  0.80923325384E+01  0.00000000000E+00 0.  1.
</event>
<event>
 7    1  0.5005325E-012  0.5052885E+02  0.7816164E-02  0.1300439E+00
        -11   -1    0    0    0    0  0.00000000000E+00  0.00000000000E+00  0.45593999997E+02  0.45594000000E+02  0.51100000000E-03 0. -1.
         11   -1    0    0    0    0 -0.00000000000E+00 -0.00000000000E+00 -0.45593999997E+02  0.45594000000E+02  0.51100000000E-03 0.  1.
    9900012    2    1    2    0    0 -0.17503543712E+02  0.91060389694E+01 -0.35550981586E+02  0.50528852445E+02  0.29999977490E+02 0.  0.
         12    1    1    2    0    0  0.17503543712E+02 -0.91060389694E+01  0.35550981586E+02  0.40659147555E+02  0.00000000000E+00 0. -1.
         11    1    3    3    0    0 -0.55867848657E+01  0.77017012156E+00  0.93813628594E+00  0.57171170273E+01  0.51100000000E-03 0. -1.
        -11    1    3    3    0    0 -0.14429445797E+02  0.42695830632E+00 -0.32587615001E+02  0.35641883384E+02  0.51100000000E-03 0.  1.
         12    1    3    3    0    0  0.25126869506E+01  0.79089105416E+01 -0.39015028710E+01  0.91698520336E+01  0.00000000000E+00 0. -1.
</event>
<event>
 7    1  0.5005325E-012  0.5052886E+02  0.7816164E-02  0.1300439E+00
        -11   -1    0    0    0    0  0.00000000000E+00  0.00000000000E+00  0.45593999997E+02  0.45594000000E+02  0.51100000000E-03 0.  1.
         11   -1    0    0    0    0 -0.00000000000E+00 -0.00000000000E+00 -0.45593999997E+02  0.45594000000E+02  0.51100000000E-03 0. -1.
    9900012    2    1    2    0    0  0.52138150383E+01  0.38008924931E+02 -0.13464899546E+02  0.50528858821E+02  0.29999996871E+02 0.  0.
         12    1    1    2    0    0 -0.52138150383E+01 -0.38008924931E+02  0.13464899546E+02  0.40659141179E+02  0.00000000000E+00 0. -1.
         11    1    3    3    0    0 -0.34298961248E+01  0.19372195436E+02  0.32992942965E+01  0.19948220135E+02  0.51100000000E-03 0. -1.
        -11    1    3    3    0    0 -0.40627217293E+01  0.20531135968E+01 -0.42492457381E+01  0.62271239665E+01  0.51100000000E-03 0.  1.
         12    1    3    3    0    0  0.12706432892E+02  0.16583615898E+02 -0.12514948105E+02  0.24353514719E+02  0.00000000000E+00 0. -1.
</event>
<event>
 7    1  0.5005325E-012  0.5052886E+02  0.7816164E-02  0.1300439E+00
        -11   -1    0    0    0    0  0.00000000000E+00  0.00000000000E+00  0.45593999997E+02  0.45594000000E+02  0.51100000000E-03 0. -1.
         11   -1    0    0    0    0 -0.00000000000E+00 -0.00000000000E+00 -0.45593999997E+02  0.45594000000E+02  0.51100000000E-03 0.  1.
    9900012    2    1    2    0    0 -0.17910048606E+02  0.50271985478E+01 -0.36154158195E+02  0.50528859317E+02  0.29999998381E+02 0.  0.
         12    1    1    2    0    0  0.17910048606E+02 -0.50271985478E+01  0.36154158195E+02  0.40659140683E+02  0.00000000000E+00 0. -1.
         11    1    3    3    0    0 -0.67755607265E+01  0.10675577362E+02 -0.11403533671E+02  0.17026942051E+02  0.51100000000E-03 0. -1.
        -11    1    3    3    0    0 -0.15163112164E+02  0.52399568931E+00 -0.15763405073E+02  0.21878744976E+02  0.51100000000E-03 0.  1.
         12    1    3    3    0    0  0.40286242845E+01 -0.61723745033E+01 -0.89872194505E+01  0.11623172290E+02  0.00000000000E+00 0. -1.
</event>
<event>
 7    1  0.5005325E-012  0.5052886E+02  0.7816164E-02  0.1300439E+00
        -11   -1    0    0    0    0  0.00000000000E+00  0.00000000000E+00  0.45593999997E+02  0.45594000000E+02  0.51100000000E-03 0. -1.
         11   -1    0    0    0    0 -0.00000000000E+00 -0.00000000000E+00 -0.45593999997E+02  0.45594000000E+02  0.51100000000E-03 0.  1.
    9900012    2    1    2    0    0 -0.20674454933E+02 -0.24091919262E+02  0.25402992401E+02  0.50528859780E+02  0.29999999788E+02 0.  0.
        -12    1    1    2    0    0  0.20674454933E+02  0.24091919262E+02 -0.25402992401E+02  0.40659140220E+02  0.00000000000E+00 0.  1.
         11    1    3    3    0    0  0.20459101656E+01  0.11925674412E+01  0.54223352819E-01  0.23687350930E+01  0.51100000000E-03 0. -1.
        -11    1    3    3    0    0  0.36131087455E+01  0.79951945416E+00  0.10735535191E+01  0.38530901344E+01  0.51100000000E-03 0.  1.
         12    1    3    3    0    0 -0.26333473844E+02 -0.26084006158E+02  0.24275215529E+02  0.44307034553E+02  0.00000000000E+00 0. -1.
</event>
<event>
 7    1  0.5005325E-012  0.5052887E+02  0.7816164E-02  0.1300439E+00
        -11   -1    0    0    0    0  0.00000000000E+00  0.00000000000E+00  0.45593999997E+02  0.45594000000E+02  0.51100000000E-03 0.  1.
         11   -1    0    0    0    0 -0.00000000000E+00 -0.00000000000E+00 -0.45593999997E+02  0.45594000000E+02  0.51100000000E-03 0. -1.
    9900012    2    1    2    0    0 -0.32243941986E+02 -0.20445691876E+02  0.13980950059E+02  0.50528867254E+02  0.30000022506E+02 0.  0.
         12    1    1    2    0    0  0.32243941986E+02  0.20445691876E+02 -0.13980950059E+02  0.40659132746E+02  0.00000000000E+00 0. -1.
         11    1    3    3    0    0 -0.21970493010E+02 -0.73742284028E+01  0.10256620067E+01  0.23197710888E+02  0.51100000000E-03 0. -1.
        -11    1    3    3    0    0 -0.11756706227E+01  0.35141289116E+01 -0.98302681594E+00  0.38337508268E+01  0.51100000000E-03 0.  1.
        -12    1    3    3    0    0 -0.90977783537E+01 -0.16585592384E+02  0.13938314868E+02  0.23497405539E+02  0.00000000000E+00 0.  1.
</event>
<event>
 7    1  0.5005325E-012  0.5052886E+02  0.7816164E-02  0.1300439E+00
        -11   -1    0    0    0    0  0.00000000000E+00  0.00000000000E+00  0.45593999997E+02  0.45594000000E+02  0.51100000000E-03 0. -1.
         11   -1    0    0    0    0 -0.00000000000E+00 -0.00000000000E+00 -0.45593999997E+02  0.45594000000E+02  0.51100000000E-03 0.  1.
    9900012    2    1    2    0    0  0.12315599761E+02 -0.36128569849E+02 -0.14007793120E+02  0.50528858040E+02  0.29999994498E+02 0.  0.
         12    1    1    2    0    0 -0.12315599761E+02  0.36128569849E+02  0.14007793120E+02  0.40659141960E+02  0.00000000000E+00 0. -1.
         11    1    3    3    0    0 -0.52248563033E+01 -0.31874342725E+01 -0.69505547729E+01  0.92611593521E+01  0.51100000000E-03 0. -1.
        -11    1    3    3    0    0 -0.33095883109E+00 -0.15377786551E+02 -0.47817443901E+01  0.16107480642E+02  0.51100000000E-03 0.  1.
         12    1    3    3    0    0  0.17871414895E+02 -0.17563349026E+02 -0.22754939570E+01  0.25160218046E+02  0.00000000000E+00 0. -1.
</event>
<event>
 7    1  0.5005325E-012  0.5052886E+02  0.7816164E-02  0.1300439E+00
        -11   -1    0    0    0    0  0.00000000000E+00  0.00000000000E+00  0.45593999997E+02  0.45594000000E+02  0.51100000000E-03 0. -1.
         11   -1    0    0    0    0 -0.00000000000E+00 -0.00000000000E+00 -0.45593999997E+02  0.45594000000E+02  0.51100000000E-03 0.  1.
    9900012    2    1    2    0    0 -0.44913039311E+01 -0.15163334107E+02  0.37457540959E+02  0.50528857278E+02  0.29999992182E+02 0.  0.
        -12    1    1    2    0    0  0.44913039311E+01  0.15163334107E+02 -0.37457540959E+02  0.40659142722E+02  0.00000000000E+00 0.  1.
         11    1    3    3    0    0 -0.32258450712E+01  0.46441127706E+01  0.41035833985E+01  0.69866484682E+01  0.51100000000E-03 0.  1.
        -11    1    3    3    0    0 -0.91643085299E+01 -0.57613203056E+01  0.78418026023E+01  0.13366795832E+02  0.51100000000E-03 0. -1.
         12    1    3    3    0    0  0.78988496700E+01 -0.14046126572E+02  0.25512154958E+02  0.30175412978E+02  0.00000000000E+00 0. -1.
</event>
<event>
 7    1  0.5005325E-012  0.5052892E+02  0.7816164E-02  0.1300439E+00
        -11   -1    0    0    0    0  0.00000000000E+00  0.00000000000E+00  0.45593999997E+02  0.45594000000E+02  0.51100000000E-03 0. -1.
         11   -1    0    0    0    0 -0.00000000000E+00 -0.00000000000E+00 -0.45593999997E+02  0.45594000000E+02  0.51100000000E-03 0.  1.
    9900012    2    1    2    0    0 -0.30608438290E+02  0.22276884566E+02  0.14833218915E+02  0.50528923967E+02  0.30000194888E+02 0.  0.
        -12    1    1    2    0    0  0.30608438290E+02 -0.22276884566E+02 -0.14833218915E+02  0.40659076033E+02  0.00000000000E+00 0.  1.
         11    1    3    3    0    0  0.51936152988E+00 -0.15875347695E+01 -0.25506262497E+00  0.16896923527E+01  0.51100000000E-03 0. -1.
        -11    1    3    3    0    0  0.26434457696E-01  0.28196985728E+01  0.10608864530E+02  0.10977222131E+02  0.51100000000E-03 0.  1.
         12    1    3    3    0    0 -0.31154234277E+02  0.21044720763E+02  0.44794170101E+01  0.37862009483E+02  0.00000000000E+00 0. -1.
</event>
<event>
 7    1  0.5005325E-012  0.5052886E+02  0.7816164E-02  0.1300439E+00
        -11   -1    0    0    0    0  0.00000000000E+00  0.00000000000E+00  0.45593999997E+02  0.45594000000E+02  0.51100000000E-03 0. -1.
         11   -1    0    0    0    0 -0.00000000000E+00 -0.00000000000E+00 -0.45593999997E+02  0.45594000000E+02  0.51100000000E-03 0.  1.
    9900012    2    1    2    0    0  0.14606626038E+02  0.28156858202E+02 -0.25436257877E+02  0.50528863231E+02  0.30000010278E+02 0.  0.
         12    1    1    2    0    0 -0.14606626038E+02 -0.28156858202E+02  0.25436257877E+02  0.40659136769E+02  0.00000000000E+00 0. -1.
         11    1    3    3    0    0  0.61197934070E+01  0.26886917967E+02 -0.20073732468E+02  0.34107374050E+02  0.51100000000E-03 0. -1.
        -11    1    3    3    0    0  0.57758427065E+01  0.52016421331E+01  0.16414174475E+01  0.79442867112E+01  0.51100000000E-03 0.  1.
         12    1    3    3    0    0  0.27109899245E+01 -0.39317018986E+01 -0.70039428566E+01  0.84772024707E+01  0.00000000000E+00 0. -1.
</event>
<event>
 7    1  0.5005325E-012  0.5052886E+02  0.7816164E-02  0.1300439E+00
        -11   -1    0    0    0    0  0.00000000000E+00  0.00000000000E+00  0.45593999997E+02  0.45594000000E+02  0.51100000000E-03 0. -1.
         11   -1    0    0    0    0 -0.00000000000E+00 -0.00000000000E+00 -0.45593999997E+02  0.45594000000E+02  0.51100000000E-03 0.  1.
    9900012    2    1    2    0    0  0.46711355573E+01  0.30862714750E+02 -0.26054538907E+02  0.50528859984E+02  0.30000000407E+02 0.  0.
         12    1    1    2    0    0 -0.46711355573E+01 -0.30862714750E+02  0.26054538907E+02  0.40659140016E+02  0.00000000000E+00 0. -1.
         11    1    3    3    0    0 -0.44608556634E+00 -0.33956072562E+01  0.12077712839E+01  0.36315083238E+01  0.51100000000E-03 0. -1.
        -11    1    3    3    0    0  0.75504554313E+01  0.10098179550E+02 -0.38924774244E+01  0.13195983791E+02  0.51100000000E-03 0.  1.
        -12    1    3    3    0    0 -0.24332343076E+01  0.24160142457E+02 -0.23369832767E+02  0.33701367870E+02  0.00000000000E+00 0.  1.
</event>
<event>
 7    1  0.5005325E-012  0.5052887E+02  0.7816164E-02  0.1300439E+00
        -11   -1    0    0    0    0  0.00000000000E+00  0.00000000000E+00  0.45593999997E+02  0.45594000000E+02  0.51100000000E-03 0. -1.
         11   -1    0    0    0    0 -0.00000000000E+00 -0.00000000000E+00 -0.45593999997E+02  0.45594000000E+02  0.51100000000E-03 0.  1.
    9900012    2    1    2    0    0  0.21270554628E+02 -0.10969035889E+02  0.32869573345E+02  0.50528867023E+02  0.30000021804E+02 0.  0.
        -12    1    1    2    0    0 -0.21270554628E+02  0.10969035889E+02 -0.32869573345E+02  0.40659132977E+02  0.00000000000E+00 0.  1.
         11    1    3    3    0    0  0.37197171191E+01  0.21183531257E+00  0.64315553749E+01  0.74327703077E+01  0.51100000000E-03 0. -1.
        -11    1    3    3    0    0  0.19126688585E+00 -0.14815914714E+02  0.18398077950E+02  0.23622810679E+02  0.51100000000E-03 0.  1.
         12    1    3    3    0    0  0.17359570623E+02  0.36350435116E+01  0.80399400196E+01  0.19473286037E+02  0.00000000000E+00 0. -1.
</event>
<event>
 7    1  0.5005325E-012  0.5052886E+02  0.7816164E-02  0.1300439E+00
        -11   -1    0    0    0    0  0.00000000000E+00  0.00000000000E+00  0.45593999997E+02  0.45594000000E+02  0.51100000000E-03 0. -1.
         11   -1    0    0    0    0 -0.00000000000E+00 -0.00000000000E+00 -0.45593999997E+02  0.45594000000E+02  0.51100000000E-03 0.  1.
    9900012    2    1    2    0    0 -0.44479204621E+00 -0.34105132422E+02  0.22131594777E+02  0.50528863452E+02  0.30000010948E+02 0.  0.
        -12    1    1    2    0    0  0.44479204621E+00  0.34105132422E+02 -0.22131594777E+02  0.40659136548E+02  0.00000000000E+00 0.  1.
         11    1    3    3    0    0 -0.51196805202E+01  0.38528713882E+01  0.38720409534E+01  0.74865511398E+01  0.51100000000E-03 0.  1.
        -11    1    3    3    0    0  0.33377993549E+01 -0.14852318366E+02  0.11017341609E+02  0.18791329963E+02  0.51100000000E-03 0. -1.
        -12    1    3    3    0    0  0.13370891192E+01 -0.23105685443E+02  0.72422122147E+01  0.24250982349E+02  0.00000000000E+00 0.  1.
</event>
<event>
 7    1  0.5005325E-012  0.5052878E+02  0.7816164E-02  0.1300439E+00
        -11   -1    0    0    0    0  0.00000000000E+00  0.00000000000E+00  0.45593999997E+02  0.45594000000E+02  0.51100000000E-03 0. -1.
         11   -1    0    0    0    0 -0.00000000000E+00 -0.00000000000E+00 -0.45593999997E+02  0.45594000000E+02  0.51100000000E-03 0.  1.
    9900012    2    1    2    0    0  0.13831395975E+02 -0.23107828124E+02 -0.30461332677E+02  0.50528781812E+02  0.29999762795E+02 0.  0.
         12    1    1    2    0    0 -0.13831395975E+02  0.23107828124E+02  0.30461332677E+02  0.40659218188E+02  0.00000000000E+00 0. -1.
         11    1    3    3    0    0  0.50630604577E+01 -0.99610311176E+01  0.14093258603E+01  0.11262456294E+02  0.51100000000E-03 0. -1.
        -11    1    3    3    0    0 -0.39210463753E+01 -0.40220517771E+01 -0.28364785427E+01  0.62926239328E+01  0.51100000000E-03 0.  1.
        -12    1    3    3    0    0  0.12689381892E+02 -0.91247452296E+01 -0.29034179994E+02  0.32973701586E+02  0.00000000000E+00 0.  1.
</event>
<event>
 7    1  0.5005325E-012  0.5052886E+02  0.7816164E-02  0.1300439E+00
        -11   -1    0    0    0    0  0.00000000000E+00  0.00000000000E+00  0.45593999997E+02  0.45594000000E+02  0.51100000000E-03 0.  1.
         11   -1    0    0    0    0 -0.00000000000E+00 -0.00000000000E+00 -0.45593999997E+02  0.45594000000E+02  0.51100000000E-03 0. -1.
    9900012    2    1    2    0    0  0.21876544838E+02  0.33780036143E+02 -0.57871996537E+01  0.50528859137E+02  0.29999997834E+02 0.  0.
         12    1    1    2    0    0 -0.21876544838E+02 -0.33780036143E+02  0.57871996537E+01  0.40659140863E+02  0.00000000000E+00 0. -1.
         11    1    3    3    0    0  0.14757731394E+02  0.27497888722E+02 -0.69949333779E+01  0.31982082692E+02  0.51100000000E-03 0. -1.
        -11    1    3    3    0    0 -0.32563776766E+01  0.19328517828E+01 -0.45413159350E+01  0.59129909749E+01  0.51100000000E-03 0.  1.
        -12    1    3    3    0    0  0.10375191121E+02  0.43492956379E+01  0.57490496591E+01  0.12633785471E+02  0.00000000000E+00 0.  1.
</event>
<event>
 7    1  0.5005325E-012  0.5052886E+02  0.7816164E-02  0.1300439E+00
        -11   -1    0    0    0    0  0.00000000000E+00  0.00000000000E+00  0.45593999997E+02  0.45594000000E+02  0.51100000000E-03 0. -1.
         11   -1    0    0    0    0 -0.00000000000E+00 -0.00000000000E+00 -0.45593999997E+02  0.45594000000E+02  0.51100000000E-03 0.  1.
    9900012    2    1    2    0    0 -0.22029069032E+02  0.95016646787E+01 -0.32826877540E+02  0.50528863227E+02  0.30000010265E+02 0.  0.
         12    1    1    2    0    0  0.22029069032E+02 -0.95016646787E+01  0.32826877540E+02  0.40659136773E+02  0.00000000000E+00 0. -1.
         11    1    3    3    0    0  0.19588296437E+01 -0.50240603853E+01 -0.26378426898E+01  0.60030334536E+01  0.51100000000E-03 0. -1.
        -11    1    3    3    0    0 -0.69260917587E+01  0.14035522692E+02 -0.13934035141E+02  0.20955285249E+02  0.51100000000E-03 0.  1.
        -12    1    3    3    0    0 -0.17061806917E+02  0.49020237195E+00 -0.16254999710E+02  0.23570544525E+02  0.00000000000E+00 0.  1.
</event>
<event>
 7    1  0.5005325E-012  0.5052887E+02  0.7816164E-02  0.1300439E+00
        -11   -1    0    0    0    0  0.00000000000E+00  0.00000000000E+00  0.45593999997E+02  0.45594000000E+02  0.51100000000E-03 0. -1.
         11   -1    0    0    0    0 -0.00000000000E+00 -0.00000000000E+00 -0.45593999997E+02  0.45594000000E+02  0.51100000000E-03 0.  1.
    9900012    2    1    2    0    0 -0.31515083470E+01  0.23273237340E+02 -0.33190204537E+02  0.50528865007E+02  0.30000015677E+02 0.  0.
         12    1    1    2    0    0  0.31515083470E+01 -0.23273237340E+02  0.33190204537E+02  0.40659134993E+02  0.00000000000E+00 0. -1.
         11    1    3    3    0    0  0.84626566818E+00  0.29983769762E+01  0.46392693064E+01  0.55883137019E+01  0.51100000000E-03 0. -1.
        -11    1    3    3    0    0 -0.59646157834E+01  0.61055187537E+01 -0.73220824910E+01  0.11245749996E+02  0.51100000000E-03 0.  1.
         12    1    3    3    0    0  0.19668417683E+01  0.14169341610E+02 -0.30507391352E+02  0.33694801310E+02  0.00000000000E+00 0. -1.
</event>
<event>
 7    1  0.5005325E-012  0.5052885E+02  0.7816164E-02  0.1300439E+00
        -11   -1    0    0    0    0  0.00000000000E+00  0.00000000000E+00  0.45593999997E+02  0.45594000000E+02  0.51100000000E-03 0. -1.
         11   -1    0    0    0    0 -0.00000000000E+00 -0.00000000000E+00 -0.45593999997E+02  0.45594000000E+02  0.51100000000E-03 0.  1.
    9900012    2    1    2    0    0  0.10931579795E+02  0.33537393371E+02 -0.20221536151E+02  0.50528847092E+02  0.29999961220E+02 0.  0.
         12    1    1    2    0    0 -0.10931579795E+02 -0.33537393371E+02  0.20221536151E+02  0.40659152908E+02  0.00000000000E+00 0. -1.
         11    1    3    3    0    0  0.17556308723E+02  0.15375637526E+02 -0.12030087636E+02  0.26255613002E+02  0.51100000000E-03 0. -1.
        -11    1    3    3    0    0 -0.37935766633E+01  0.12897054707E+02  0.80995151019E+00  0.13467786222E+02  0.51100000000E-03 0.  1.
        -12    1    3    3    0    0 -0.28311522641E+01  0.52647011376E+01 -0.90014000249E+01  0.10805447868E+02  0.00000000000E+00 0.  1.
</event>
<event>
 7    1  0.5005325E-012  0.5052893E+02  0.7816164E-02  0.1300439E+00
        -11   -1    0    0    0    0  0.00000000000E+00  0.00000000000E+00  0.45593999997E+02  0.45594000000E+02  0.51100000000E-03 0. -1.
         11   -1    0    0    0    0 -0.00000000000E+00 -0.00000000000E+00 -0.45593999997E+02  0.45594000000E+02  0.51100000000E-03 0.  1.
    9900012    2    1    2    0    0 -0.10444646446E+02 -0.19095363212E+02 -0.34342921436E+02  0.50528932274E+02  0.30000220140E+02 0.  0.
         12    1    1    2    0    0  0.10444646446E+02  0.19095363212E+02  0.34342921436E+02  0.40659067726E+02  0.00000000000E+00 0. -1.
         11    1    3    3    0    0 -0.84662432235E+01 -0.18520595774E+02 -0.16719322320E+02  0.26348158973E+02  0.51100000000E-03 0.  1.
        -11    1    3    3    0    0  0.35397029195E+01 -0.70134729598E+01 -0.10450245067E+02  0.13073864078E+02  0.51100000000E-03 0. -1.
         12    1    3    3    0    0 -0.55181061416E+01  0.64387055219E+01 -0.71733540489E+01  0.11106909224E+02  0.00000000000E+00 0. -1.
</event>
<event>
 7    1  0.5005325E-012  0.5052886E+02  0.7816164E-02  0.1300439E+00
        -11   -1    0    0    0    0  0.00000000000E+00  0.00000000000E+00  0.45593999997E+02  0.45594000000E+02  0.51100000000E-03 0. -1.
         11   -1    0    0    0    0 -0.00000000000E+00 -0.00000000000E+00 -0.45593999997E+02  0.45594000000E+02  0.51100000000E-03 0.  1.
    9900012    2    1    2    0    0 -0.13593017920E+02  0.15389364744E+02  0.35093634071E+02  0.50528857907E+02  0.29999994094E+02 0.  0.
        -12    1    1    2    0    0  0.13593017920E+02 -0.15389364744E+02 -0.35093634071E+02  0.40659142093E+02  0.00000000000E+00 0.  1.
         11    1    3    3    0    0 -0.97136302555E+01  0.92825958809E+01  0.10852654190E+02  0.17271401282E+02  0.51100000000E-03 0. -1.
        -11    1    3    3    0    0  0.46004193664E+01  0.11591878279E+02  0.15551593200E+02  0.19934581804E+02  0.51100000000E-03 0.  1.
         12    1    3    3    0    0 -0.84798070311E+01 -0.54851094160E+01  0.86893866820E+01  0.13322874821E+02  0.00000000000E+00 0. -1.
</event>
<event>
 7    1  0.5005325E-012  0.5052886E+02  0.7816164E-02  0.1300439E+00
        -11   -1    0    0    0    0  0.00000000000E+00  0.00000000000E+00  0.45593999997E+02  0.45594000000E+02  0.51100000000E-03 0. -1.
         11   -1    0    0    0    0 -0.00000000000E+00 -0.00000000000E+00 -0.45593999997E+02  0.45594000000E+02  0.51100000000E-03 0.  1.
    9900012    2    1    2    0    0 -0.86221306421E+01 -0.37490031803E+02  0.13165184742E+02  0.50528859445E+02  0.29999998768E+02 0.  0.
        -12    1    1    2    0    0  0.86221306421E+01  0.37490031803E+02 -0.13165184742E+02  0.40659140555E+02  0.00000000000E+00 0.  1.
         11    1    3    3    0    0  0.30080686329E+01 -0.12211802554E+01  0.87039169717E+01  0.92896678643E+01  0.51100000000E-03 0. -1.
        -11    1    3    3    0    0 -0.84785746605E+01 -0.20595315535E+02  0.98707471799E+01  0.24361545526E+02  0.51100000000E-03 0.  1.
        -12    1    3    3    0    0 -0.31516246145E+01 -0.15673536013E+02 -0.54094794100E+01  0.16877646054E+02  0.00000000000E+00 0.  1.
</event>
<event>
 7    1  0.5005325E-012  0.5052886E+02  0.7816164E-02  0.1300439E+00
        -11   -1    0    0    0    0  0.00000000000E+00  0.00000000000E+00  0.45593999997E+02  0.45594000000E+02  0.51100000000E-03 0. -1.
         11   -1    0    0    0    0 -0.00000000000E+00 -0.00000000000E+00 -0.45593999997E+02  0.45594000000E+02  0.51100000000E-03 0.  1.
    9900012    2    1    2    0    0 -0.12478950112E+02  0.25039657820E+02 -0.29503512551E+02  0.50528856963E+02  0.29999991226E+02 0.  0.
         12    1    1    2    0    0  0.12478950112E+02 -0.25039657820E+02  0.29503512551E+02  0.40659143037E+02  0.00000000000E+00 0. -1.
         11    1    3    3    0    0 -0.25164596568E+01  0.62533198179E+00 -0.62631996021E+01  0.67787372577E+01  0.51100000000E-03 0. -1.
        -11    1    3    3    0    0 -0.53973164097E+01  0.52984903916E+01 -0.22875397678E+02  0.24093336092E+02  0.51100000000E-03 0.  1.
        -12    1    3    3    0    0 -0.45651740453E+01  0.19115835447E+02 -0.36491527087E+00  0.19656783614E+02  0.00000000000E+00 0.  1.
</event>
<event>
 7    1  0.5005325E-012  0.5052886E+02  0.7816164E-02  0.1300439E+00
        -11   -1    0    0    0    0  0.00000000000E+00  0.00000000000E+00  0.45593999997E+02  0.45594000000E+02  0.51100000000E-03 0. -1.
         11   -1    0    0    0    0 -0.00000000000E+00 -0.00000000000E+00 -0.45593999997E+02  0.45594000000E+02  0.51100000000E-03 0.  1.
    9900012    2    1    2    0    0  0.36722506653E+02  0.26050828477E+01 -0.17257952044E+02  0.50528857606E+02  0.29999993178E+02 0.  0.
         12    1    1    2    0    0 -0.36722506653E+02 -0.26050828477E+01  0.17257952044E+02  0.40659142394E+02  0.00000000000E+00 0. -1.
         11    1    3    3    0    0  0.18349334073E+01 -0.11756525211E+01 -0.70580123360E+01  0.73867907684E+01  0.51100000000E-03 0.  1.
        -11    1    3    3    0    0  0.36681869162E+02  0.18281753383E+01 -0.46879645985E+01  0.37025379980E+02  0.51100000000E-03 0. -1.
         12    1    3    3    0    0 -0.17942959168E+01  0.19525600305E+01 -0.55119751093E+01  0.61166868577E+01  0.00000000000E+00 0. -1.
</event>
<event>
 7    1  0.5005325E-012  0.5052889E+02  0.7816164E-02  0.1300439E+00
        -11   -1    0    0    0    0  0.00000000000E+00  0.00000000000E+00  0.45593999997E+02  0.45594000000E+02  0.51100000000E-03 0. -1.
         11   -1    0    0    0    0 -0.00000000000E+00 -0.00000000000E+00 -0.45593999997E+02  0.45594000000E+02  0.51100000000E-03 0.  1.
    9900012    2    1    2    0    0  0.27093708685E+02 -0.29275531265E+02 -0.78763615443E+01  0.50528894595E+02  0.30000105611E+02 0.  0.
         12    1    1    2    0    0 -0.27093708685E+02  0.29275531265E+02  0.78763615443E+01  0.40659105405E+02  0.00000000000E+00 0. -1.
         11    1    3    3    0    0  0.16361605521E+02 -0.18218504927E+02  0.55766092316E+01  0.25114032487E+02  0.51100000000E-03 0. -1.
        -11    1    3    3    0    0 -0.80212632477E+00 -0.93456075461E+00  0.28017382603E+01  0.30604816590E+01  0.51100000000E-03 0.  1.
        -12    1    3    3    0    0  0.11534229489E+02 -0.10122465584E+02 -0.16254709036E+02  0.22354380449E+02  0.00000000000E+00 0.  1.
</event>
<event>
 7    1  0.5005325E-012  0.5052886E+02  0.7816164E-02  0.1300439E+00
        -11   -1    0    0    0    0  0.00000000000E+00  0.00000000000E+00  0.45593999997E+02  0.45594000000E+02  0.51100000000E-03 0. -1.
         11   -1    0    0    0    0 -0.00000000000E+00 -0.00000000000E+00 -0.45593999997E+02  0.45594000000E+02  0.51100000000E-03 0.  1.
    9900012    2    1    2    0    0  0.11062121038E+02  0.77813859273E+01 -0.38343777906E+02  0.50528858434E+02  0.29999995696E+02 0.  0.
         12    1    1    2    0    0 -0.11062121038E+02 -0.77813859273E+01  0.38343777906E+02  0.40659141566E+02  0.00000000000E+00 0. -1.
         11    1    3    3    0    0 -0.28786294926E+01  0.33226063134E+01 -0.21728995216E+01  0.49038467616E+01  0.51100000000E-03 0. -1.
        -11    1    3    3    0    0  0.75417762138E+01 -0.96567783506E+01 -0.17433550540E+02  0.21308694030E+02  0.51100000000E-03 0.  1.
         12    1    3    3    0    0  0.63989743165E+01  0.14115557964E+02 -0.18737327844E+02  0.24316317643E+02  0.00000000000E+00 0. -1.
</event>
<event>
 7    1  0.5005325E-012  0.5052886E+02  0.7816164E-02  0.1300439E+00
        -11   -1    0    0    0    0  0.00000000000E+00  0.00000000000E+00  0.45593999997E+02  0.45594000000E+02  0.51100000000E-03 0. -1.
         11   -1    0    0    0    0 -0.00000000000E+00 -0.00000000000E+00 -0.45593999997E+02  0.45594000000E+02  0.51100000000E-03 0.  1.
    9900012    2    1    2    0    0 -0.54763264116E+01  0.17266988553E+01 -0.40251631383E+02  0.50528862418E+02  0.30000007806E+02 0.  0.
         12    1    1    2    0    0  0.54763264116E+01 -0.17266988553E+01  0.40251631383E+02  0.40659137582E+02  0.00000000000E+00 0. -1.
         11    1    3    3    0    0 -0.54418172639E+01  0.35953742952E+00 -0.65530899864E+01  0.85255868377E+01  0.51100000000E-03 0. -1.
        -11    1    3    3    0    0  0.69803605024E+00 -0.22742270568E+01 -0.36974334244E+02  0.37050786173E+02  0.51100000000E-03 0.  1.
         12    1    3    3    0    0 -0.73254519789E+00  0.36413884826E+01  0.32757928470E+01  0.49524894068E+01  0.00000000000E+00 0. -1.
</event>
<event>
 7    1  0.5005325E-012  0.5052875E+02  0.7816164E-02  0.1300439E+00
        -11   -1    0    0    0    0  0.00000000000E+00  0.00000000000E+00  0.45593999997E+02  0.45594000000E+02  0.51100000000E-03 0. -1.
         11   -1    0    0    0    0 -0.00000000000E+00 -0.00000000000E+00 -0.45593999997E+02  0.45594000000E+02  0.51100000000E-03 0.  1.
    9900012    2    1    2    0    0  0.12451529893E+02  0.25720309394E+02 -0.28924028672E+02  0.50528753246E+02  0.29999675965E+02 0.  0.
         12    1    1    2    0    0 -0.12451529893E+02 -0.25720309394E+02  0.28924028672E+02  0.40659246754E+02  0.00000000000E+00 0. -1.
         11    1    3    3    0    0  0.51058128722E+01  0.96731441965E+01 -0.27174091051E+01  0.11270463887E+02  0.51100000000E-03 0. -1.
        -11    1    3    3    0    0  0.75494794234E+01 -0.11707497101E+01  0.30473249816E+00  0.76457933927E+01  0.51100000000E-03 0.  1.
         12    1    3    3    0    0 -0.20376240289E+00  0.17217914908E+02 -0.26511352065E+02  0.31612495966E+02  0.00000000000E+00 0. -1.
</event>
<event>
 7    1  0.5005325E-012  0.5052886E+02  0.7816164E-02  0.1300439E+00
        -11   -1    0    0    0    0  0.00000000000E+00  0.00000000000E+00  0.45593999997E+02  0.45594000000E+02  0.51100000000E-03 0.  1.
         11   -1    0    0    0    0 -0.00000000000E+00 -0.00000000000E+00 -0.45593999997E+02  0.45594000000E+02  0.51100000000E-03 0. -1.
    9900012    2    1    2    0    0  0.17853243908E+02  0.25615612131E+01  0.36439889222E+02  0.50528862768E+02  0.30000008871E+02 0.  0.
        -12    1    1    2    0    0 -0.17853243908E+02 -0.25615612131E+01 -0.36439889222E+02  0.40659137232E+02  0.00000000000E+00 0.  1.
         11    1    3    3    0    0 -0.40492936783E+01 -0.29532604470E+01  0.20102850169E+02  0.20718183119E+02  0.51100000000E-03 0.  1.
        -11    1    3    3    0    0  0.12761616271E+02 -0.16356834464E+01  0.57153261437E+01  0.14078326014E+02  0.51100000000E-03 0. -1.
        -12    1    3    3    0    0  0.91409213154E+01  0.71505051065E+01  0.10621712910E+02  0.15732353635E+02  0.00000000000E+00 0.  1.
</event>
<event>
 7    1  0.5005325E-012  0.5052887E+02  0.7816164E-02  0.1300439E+00
        -11   -1    0    0    0    0  0.00000000000E+00  0.00000000000E+00  0.45593999997E+02  0.45594000000E+02  0.51100000000E-03 0. -1.
         11   -1    0    0    0    0 -0.00000000000E+00 -0.00000000000E+00 -0.45593999997E+02  0.45594000000E+02  0.51100000000E-03 0.  1.
    9900012    2    1    2    0    0 -0.18527054696E+02 -0.17970339579E+02  0.31416242095E+02  0.50528866615E+02  0.30000020562E+02 0.  0.
        -12    1    1    2    0    0  0.18527054696E+02  0.17970339579E+02 -0.31416242095E+02  0.40659133385E+02  0.00000000000E+00 0.  1.
         11    1    3    3    0    0 -0.70460023660E+01 -0.51024456889E+01  0.12758287776E+02  0.15441988492E+02  0.51100000000E-03 0. -1.
        -11    1    3    3    0    0 -0.13958724264E+02  0.23558444541E+01  0.72661010316E+01  0.15912014663E+02  0.51100000000E-03 0.  1.
         12    1    3    3    0    0  0.24776719344E+01 -0.15223738344E+02  0.11391853287E+02  0.19174863460E+02  0.00000000000E+00 0. -1.
</event>
<event>
 7    1  0.5005325E-012  0.5052886E+02  0.7816164E-02  0.1300439E+00
        -11   -1    0    0    0    0  0.00000000000E+00  0.00000000000E+00  0.45593999997E+02  0.45594000000E+02  0.51100000000E-03 0. -1.
         11   -1    0    0    0    0 -0.00000000000E+00 -0.00000000000E+00 -0.45593999997E+02  0.45594000000E+02  0.51100000000E-03 0.  1.
    9900012    2    1    2    0    0 -0.15841495038E+02  0.12359281215E+02  0.35347718025E+02  0.50528856296E+02  0.29999989196E+02 0.  0.
        -12    1    1    2    0    0  0.15841495038E+02 -0.12359281215E+02 -0.35347718025E+02  0.40659143704E+02  0.00000000000E+00 0.  1.
         11    1    3    3    0    0  0.19668892401E+01 -0.14542334577E+01  0.11130695789E+01  0.26874471866E+01  0.51100000000E-03 0. -1.
        -11    1    3    3    0    0  0.52283751509E+01  0.81043103669E+01  0.88450094520E+01  0.13086250254E+02  0.51100000000E-03 0.  1.
         12    1    3    3    0    0 -0.23036759429E+02  0.57092043058E+01  0.25389638994E+02  0.34755158855E+02  0.00000000000E+00 0. -1.
</event>
<event>
 7    1  0.5005325E-012  0.5052889E+02  0.7816164E-02  0.1300439E+00
        -11   -1    0    0    0    0  0.00000000000E+00  0.00000000000E+00  0.45593999997E+02  0.45594000000E+02  0.51100000000E-03 0. -1.
         11   -1    0    0    0    0 -0.00000000000E+00 -0.00000000000E+00 -0.45593999997E+02  0.45594000000E+02  0.51100000000E-03 0.  1.
    9900012    2    1    2    0    0  0.71650710710E+01 -0.25657280704E+02 -0.30716921502E+02  0.50528885854E+02  0.30000079040E+02 0.  0.
         12    1    1    2    0    0 -0.71650710710E+01  0.25657280704E+02  0.30716921502E+02  0.40659114146E+02  0.00000000000E+00 0. -1.
         11    1    3    3    0    0  0.21472983869E+01 -0.37208064496E+01  0.22795721375E+01  0.48633055003E+01  0.51100000000E-03 0. -1.
        -11    1    3    3    0    0  0.75376647789E+01 -0.64063793335E+00 -0.17921385785E+02  0.19452580189E+02  0.51100000000E-03 0.  1.
        -12    1    3    3    0    0 -0.25198920948E+01 -0.21295836321E+02 -0.15075107855E+02  0.26213000165E+02  0.00000000000E+00 0.  1.
</event>
<event>
 7    1  0.5005325E-012  0.5052885E+02  0.7816164E-02  0.1300439E+00
        -11   -1    0    0    0    0  0.00000000000E+00  0.00000000000E+00  0.45593999997E+02  0.45594000000E+02  0.51100000000E-03 0. -1.
         11   -1    0    0    0    0 -0.00000000000E+00 -0.00000000000E+00 -0.45593999997E+02  0.45594000000E+02  0.51100000000E-03 0.  1.
    9900012    2    1    2    0    0 -0.15951225059E+02 -0.27290190059E+02 -0.25572843598E+02  0.50528851165E+02  0.29999973600E+02 0.  0.
         12    1    1    2    0    0  0.15951225059E+02  0.27290190059E+02  0.25572843598E+02  0.40659148835E+02  0.00000000000E+00 0. -1.
         11    1    3    3    0    0  0.22029456344E+01  0.18327300140E+01 -0.99682270556E+01  0.10371953513E+02  0.51100000000E-03 0. -1.
        -11    1    3    3    0    0 -0.21415237179E+01 -0.34956047941E+01  0.26227657412E+01  0.48666494742E+01  0.51100000000E-03 0.  1.
        -12    1    3    3    0    0 -0.16012646975E+02 -0.25627315279E+02 -0.18227382284E+02  0.35290248178E+02  0.00000000000E+00 0.  1.
</event>
<event>
 7    1  0.5005325E-012  0.5052887E+02  0.7816164E-02  0.1300439E+00
        -11   -1    0    0    0    0  0.00000000000E+00  0.00000000000E+00  0.45593999997E+02  0.45594000000E+02  0.51100000000E-03 0. -1.
         11   -1    0    0    0    0 -0.00000000000E+00 -0.00000000000E+00 -0.45593999997E+02  0.45594000000E+02  0.51100000000E-03 0.  1.
    9900012    2    1    2    0    0  0.14964508158E+02 -0.27203958886E+02  0.26252111645E+02  0.50528865119E+02  0.30000016014E+02 0.  0.
        -12    1    1    2    0    0 -0.14964508158E+02  0.27203958886E+02 -0.26252111645E+02  0.40659134881E+02  0.00000000000E+00 0.  1.
         11    1    3    3    0    0  0.73573379992E+00  0.13558935322E+01  0.96540797239E+01  0.97765539466E+01  0.51100000000E-03 0.  1.
        -11    1    3    3    0    0  0.82305133997E+01 -0.14415757154E+02  0.18969340307E+02  0.25206968820E+02  0.51100000000E-03 0. -1.
        -12    1    3    3    0    0  0.59982609586E+01 -0.14144095264E+02 -0.23713083864E+01  0.15545342352E+02  0.00000000000E+00 0.  1.
</event>
<event>
 7    1  0.5005325E-012  0.5052886E+02  0.7816164E-02  0.1300439E+00
        -11   -1    0    0    0    0  0.00000000000E+00  0.00000000000E+00  0.45593999997E+02  0.45594000000E+02  0.51100000000E-03 0. -1.
         11   -1    0    0    0    0 -0.00000000000E+00 -0.00000000000E+00 -0.45593999997E+02  0.45594000000E+02  0.51100000000E-03 0.  1.
    9900012    2    1    2    0    0  0.11224990090E+02  0.54556126404E+01 -0.38696271725E+02  0.50528861332E+02  0.30000004504E+02 0.  0.
         12    1    1    2    0    0 -0.11224990090E+02 -0.54556126404E+01  0.38696271725E+02  0.40659138668E+02  0.00000000000E+00 0. -1.
         11    1    3    3    0    0  0.41303248297E+01 -0.38263016891E+01 -0.28117003824E+02  0.28675182163E+02  0.51100000000E-03 0. -1.
        -11    1    3    3    0    0  0.14793324495E+01  0.34240175881E+00 -0.11177248457E+02  0.11279917854E+02  0.51100000000E-03 0.  1.
         12    1    3    3    0    0  0.56153328111E+01  0.89395125707E+01  0.59798055586E+00  0.10573761314E+02  0.00000000000E+00 0. -1.
</event>
<event>
 7    1  0.5005325E-012  0.5052886E+02  0.7816164E-02  0.1300439E+00
        -11   -1    0    0    0    0  0.00000000000E+00  0.00000000000E+00  0.45593999997E+02  0.45594000000E+02  0.51100000000E-03 0.  1.
         11   -1    0    0    0    0 -0.00000000000E+00 -0.00000000000E+00 -0.45593999997E+02  0.45594000000E+02  0.51100000000E-03 0. -1.
    9900012    2    1    2    0    0  0.36510769818E+02  0.16906615083E+02  0.58562712096E+01  0.50528857624E+02  0.29999993234E+02 0.  0.
         12    1    1    2    0    0 -0.36510769818E+02 -0.16906615083E+02 -0.58562712096E+01  0.40659142376E+02  0.00000000000E+00 0. -1.
         11    1    3    3    0    0  0.30640375644E+01 -0.49315498765E+01  0.49982370242E+01  0.76609975847E+01  0.51100000000E-03 0. -1.
        -11    1    3    3    0    0  0.17732138194E+02  0.50824596943E+01  0.58662917618E+01  0.19356484721E+02  0.51100000000E-03 0.  1.
        -12    1    3    3    0    0  0.15714594060E+02  0.16755705266E+02 -0.50082575765E+01  0.23511375318E+02  0.00000000000E+00 0.  1.
</event>
<event>
 7    1  0.5005325E-012  0.5052886E+02  0.7816164E-02  0.1300439E+00
        -11   -1    0    0    0    0  0.00000000000E+00  0.00000000000E+00  0.45593999997E+02  0.45594000000E+02  0.51100000000E-03 0. -1.
         11   -1    0    0    0    0 -0.00000000000E+00 -0.00000000000E+00 -0.45593999997E+02  0.45594000000E+02  0.51100000000E-03 0.  1.
    9900012    2    1    2    0    0 -0.21363569032E+02  0.20504430668E+02  0.27862735577E+02  0.50528858437E+02  0.29999995704E+02 0.  0.
        -12    1    1    2    0    0  0.21363569032E+02 -0.20504430668E+02 -0.27862735577E+02  0.40659141563E+02  0.00000000000E+00 0.  1.
         11    1    3    3    0    0 -0.85408471995E+01  0.24953350665E+02  0.16144524729E+02  0.30923477478E+02  0.51100000000E-03 0. -1.
        -11    1    3    3    0    0 -0.53950729289E+01 -0.34246419580E+01  0.91536475931E+00  0.64554533034E+01  0.51100000000E-03 0.  1.
        -12    1    3    3    0    0 -0.74276489039E+01 -0.10242780390E+01  0.10802846089E+02  0.13149927656E+02  0.00000000000E+00 0.  1.
</event>
<event>
 7    1  0.5005325E-012  0.5052890E+02  0.7816164E-02  0.1300439E+00
        -11   -1    0    0    0    0  0.00000000000E+00  0.00000000000E+00  0.45593999997E+02  0.45594000000E+02  0.51100000000E-03 0. -1.
         11   -1    0    0    0    0 -0.00000000000E+00 -0.00000000000E+00 -0.45593999997E+02  0.45594000000E+02  0.51100000000E-03 0.  1.
    9900012    2    1    2    0    0  0.32717401163E+02  0.13448934186E+02  0.20046444177E+02  0.50528903923E+02  0.30000133965E+02 0.  0.
        -12    1    1    2    0    0 -0.32717401163E+02 -0.13448934186E+02 -0.20046444177E+02  0.40659096077E+02  0.00000000000E+00 0.  1.
         11    1    3    3    0    0  0.43400837626E+01  0.43258178337E+01  0.71121316949E+00  0.61688614371E+01  0.51100000000E-03 0. -1.
        -11    1    3    3    0    0  0.63563682712E+01  0.99103531874E+01 -0.38374658384E+01  0.12383241184E+02  0.51100000000E-03 0.  1.
        -12    1    3    3    0    0  0.22020949130E+02 -0.78723683474E+00  0.23172696846E+02  0.31976801302E+02  0.00000000000E+00 0.  1.
</event>
<event>
 7    1  0.5005325E-012  0.5052885E+02  0.7816164E-02  0.1300439E+00
        -11   -1    0    0    0    0  0.00000000000E+00  0.00000000000E+00  0.45593999997E+02  0.45594000000E+02  0.51100000000E-03 0. -1.
         11   -1    0    0    0    0 -0.00000000000E+00 -0.00000000000E+00 -0.45593999997E+02  0.45594000000E+02  0.51100000000E-03 0.  1.
    9900012    2    1    2    0    0 -0.19020929601E+02 -0.12363011677E+02 -0.33742066161E+02  0.50528845442E+02  0.29999956205E+02 0.  0.
         12    1    1    2    0    0  0.19020929601E+02  0.12363011677E+02  0.33742066161E+02  0.40659154558E+02  0.00000000000E+00 0. -1.
         11    1    3    3    0    0 -0.13645039808E+02  0.18146589612E+01 -0.33198651801E+01  0.14159858883E+02  0.51100000000E-03 0. -1.
        -11    1    3    3    0    0 -0.44251747648E+01 -0.62050729600E+01 -0.26223077677E+02  0.27308147232E+02  0.51100000000E-03 0.  1.
        -12    1    3    3    0    0 -0.95071502796E+00 -0.79725976780E+01 -0.41991233038E+01  0.90608393276E+01  0.00000000000E+00 0.  1.
</event>
<event>
 7    1  0.5005325E-012  0.5052878E+02  0.7816164E-02  0.1300439E+00
        -11   -1    0    0    0    0  0.00000000000E+00  0.00000000000E+00  0.45593999997E+02  0.45594000000E+02  0.51100000000E-03 0. -1.
         11   -1    0    0    0    0 -0.00000000000E+00 -0.00000000000E+00 -0.45593999997E+02  0.45594000000E+02  0.51100000000E-03 0.  1.
    9900012    2    1    2    0    0  0.64325525300E+01  0.12314981728E+02 -0.38211719373E+02  0.50528782048E+02  0.29999763513E+02 0.  0.
         12    1    1    2    0    0 -0.64325525300E+01 -0.12314981728E+02  0.38211719373E+02  0.40659217952E+02  0.00000000000E+00 0. -1.
         11    1    3    3    0    0  0.36206142551E+00 -0.16752337171E+01  0.13104274214E+01  0.21574792631E+01  0.51100000000E-03 0. -1.
        -11    1    3    3    0    0  0.81432343775E+01 -0.42906083021E+01 -0.10049931032E+02  0.13628011584E+02  0.51100000000E-03 0.  1.
        -12    1    3    3    0    0 -0.20727432730E+01  0.18280823747E+02 -0.29472215762E+02  0.34743291201E+02  0.00000000000E+00 0.  1.
</event>
<event>
 7    1  0.5005325E-012  0.5052889E+02  0.7816164E-02  0.1300439E+00
        -11   -1    0    0    0    0  0.00000000000E+00  0.00000000000E+00  0.45593999997E+02  0.45594000000E+02  0.51100000000E-03 0. -1.
         11   -1    0    0    0    0 -0.00000000000E+00 -0.00000000000E+00 -0.45593999997E+02  0.45594000000E+02  0.51100000000E-03 0.  1.
    9900012    2    1    2    0    0  0.80428368373E+01 -0.17547650345E+02 -0.35784852520E+02  0.50528893678E+02  0.30000102822E+02 0.  0.
         12    1    1    2    0    0 -0.80428368373E+01  0.17547650345E+02  0.35784852520E+02  0.40659106322E+02  0.00000000000E+00 0. -1.
         11    1    3    3    0    0  0.27046837162E+01  0.56513166637E+00 -0.18958244087E+02  0.19158541357E+02  0.51100000000E-03 0.  1.
        -11    1    3    3    0    0  0.68707140611E+01 -0.22397208462E-01 -0.39279788082E+00  0.68819694697E+01  0.51100000000E-03 0. -1.
        -12    1    3    3    0    0 -0.15325609400E+01 -0.18090384803E+02 -0.16433810552E+02  0.24488382851E+02  0.00000000000E+00 0.  1.
</event>
<event>
 7    1  0.5005325E-012  0.5052888E+02  0.7816164E-02  0.1300439E+00
        -11   -1    0    0    0    0  0.00000000000E+00  0.00000000000E+00  0.45593999997E+02  0.45594000000E+02  0.51100000000E-03 0. -1.
         11   -1    0    0    0    0 -0.00000000000E+00 -0.00000000000E+00 -0.45593999997E+02  0.45594000000E+02  0.51100000000E-03 0.  1.
    9900012    2    1    2    0    0 -0.29174152500E+02 -0.15444581654E+02  0.23738110485E+02  0.50528878441E+02  0.30000056509E+02 0.  0.
        -12    1    1    2    0    0  0.29174152500E+02  0.15444581654E+02 -0.23738110485E+02  0.40659121559E+02  0.00000000000E+00 0.  1.
         11    1    3    3    0    0 -0.17751022837E+02 -0.14947085972E+02  0.13368693604E+01  0.23244384500E+02  0.51100000000E-03 0. -1.
        -11    1    3    3    0    0 -0.30912484665E+01 -0.51406262948E+01  0.77132758963E+01  0.97712067371E+01  0.51100000000E-03 0.  1.
        -12    1    3    3    0    0 -0.83318811961E+01  0.46431306128E+01  0.14687965228E+02  0.17513287204E+02  0.00000000000E+00 0.  1.
</event>
<event>
 7    1  0.5005325E-012  0.5052878E+02  0.7816164E-02  0.1300439E+00
        -11   -1    0    0    0    0  0.00000000000E+00  0.00000000000E+00  0.45593999997E+02  0.45594000000E+02  0.51100000000E-03 0. -1.
         11   -1    0    0    0    0 -0.00000000000E+00 -0.00000000000E+00 -0.45593999997E+02  0.45594000000E+02  0.51100000000E-03 0.  1.
    9900012    2    1    2    0    0  0.23604679012E+01  0.34867545140E+02  0.20781105411E+02  0.50528783888E+02  0.29999769104E+02 0.  0.
        -12    1    1    2    0    0 -0.23604679012E+01 -0.34867545140E+02 -0.20781105411E+02  0.40659216112E+02  0.00000000000E+00 0.  1.
         11    1    3    3    0    0 -0.33546375664E+01  0.13868737408E+02  0.52436654179E+01  0.15201693911E+02  0.51100000000E-03 0. -1.
        -11    1    3    3    0    0  0.63766206292E+01  0.17904755176E+02 -0.46780153139E+00  0.19012111590E+02  0.51100000000E-03 0.  1.
        -12    1    3    3    0    0 -0.66151516172E+00  0.30940525560E+01  0.16005241524E+02  0.16314978387E+02  0.00000000000E+00 0.  1.
</event>
<event>
 7    1  0.5005325E-012  0.5052885E+02  0.7816164E-02  0.1300439E+00
        -11   -1    0    0    0    0  0.00000000000E+00  0.00000000000E+00  0.45593999997E+02  0.45594000000E+02  0.51100000000E-03 0. -1.
         11   -1    0    0    0    0 -0.00000000000E+00 -0.00000000000E+00 -0.45593999997E+02  0.45594000000E+02  0.51100000000E-03 0.  1.
    9900012    2    1    2    0    0 -0.52497341035E+01  0.11065129247E+02  0.38770735548E+02  0.50528846931E+02  0.29999960731E+02 0.  0.
        -12    1    1    2    0    0  0.52497341035E+01 -0.11065129247E+02 -0.38770735548E+02  0.40659153069E+02  0.00000000000E+00 0.  1.
         11    1    3    3    0    0 -0.41632361528E+01  0.42379231453E+01  0.15947930004E+02  0.17018489931E+02  0.51100000000E-03 0. -1.
        -11    1    3    3    0    0 -0.77839226619E+01 -0.44796691689E+01  0.25238985340E+01  0.93288237169E+01  0.51100000000E-03 0.  1.
        -12    1    3    3    0    0  0.66974247113E+01  0.11306875270E+02  0.20298907010E+02  0.24181533283E+02  0.00000000000E+00 0.  1.
</event>
<event>
 7    1  0.5005325E-012  0.5052883E+02  0.7816164E-02  0.1300439E+00
        -11   -1    0    0    0    0  0.00000000000E+00  0.00000000000E+00  0.45593999997E+02  0.45594000000E+02  0.51100000000E-03 0. -1.
         11   -1    0    0    0    0 -0.00000000000E+00 -0.00000000000E+00 -0.45593999997E+02  0.45594000000E+02  0.51100000000E-03 0.  1.
    9900012    2    1    2    0    0 -0.35344513812E+02  0.10185424078E+01 -0.20072267798E+02  0.50528831049E+02  0.29999912456E+02 0.  0.
         12    1    1    2    0    0  0.35344513812E+02 -0.10185424078E+01  0.20072267798E+02  0.40659168951E+02  0.00000000000E+00 0. -1.
         11    1    3    3    0    0 -0.40827132169E+01 -0.84958402516E+01 -0.63786188126E+01  0.11381327998E+02  0.51100000000E-03 0.  1.
        -11    1    3    3    0    0 -0.65690607518E+01  0.98255616251E+01 -0.27410064498E+01  0.12132903075E+02  0.51100000000E-03 0. -1.
         12    1    3    3    0    0 -0.24692739844E+02 -0.31117896579E+00 -0.10952642535E+02  0.27014599975E+02  0.00000000000E+00 0. -1.
</event>
<event>
 7    1  0.5005325E-012  0.5052882E+02  0.7816164E-02  0.1300439E+00
        -11   -1    0    0    0    0  0.00000000000E+00  0.00000000000E+00  0.45593999997E+02  0.45594000000E+02  0.51100000000E-03 0. -1.
         11   -1    0    0    0    0 -0.00000000000E+00 -0.00000000000E+00 -0.45593999997E+02  0.45594000000E+02  0.51100000000E-03 0.  1.
    9900012    2    1    2    0    0  0.28096753120E+02  0.25551111866E+02 -0.14521770587E+02  0.50528822998E+02  0.29999887984E+02 0.  0.
         12    1    1    2    0    0 -0.28096753120E+02 -0.25551111866E+02  0.14521770587E+02  0.40659177002E+02  0.00000000000E+00 0. -1.
         11    1    3    3    0    0  0.18903551269E+02  0.15796285701E+02 -0.31214730830E+01  0.24831642858E+02  0.51100000000E-03 0. -1.
        -11    1    3    3    0    0  0.13828870976E+02  0.10716415406E+02 -0.59533511405E+01  0.18480303615E+02  0.51100000000E-03 0.  1.
         12    1    3    3    0    0 -0.46356691245E+01 -0.96158924103E+00 -0.54469463637E+01  0.72168765258E+01  0.00000000000E+00 0. -1.
</event>
<event>
 7    1  0.5005325E-012  0.5052886E+02  0.7816164E-02  0.1300439E+00
        -11   -1    0    0    0    0  0.00000000000E+00  0.00000000000E+00  0.45593999997E+02  0.45594000000E+02  0.51100000000E-03 0. -1.
         11   -1    0    0    0    0 -0.00000000000E+00 -0.00000000000E+00 -0.45593999997E+02  0.45594000000E+02  0.51100000000E-03 0.  1.
    9900012    2    1    2    0    0 -0.17199821039E+02  0.21794657295E+02  0.29703956297E+02  0.50528856501E+02  0.29999989820E+02 0.  0.
        -12    1    1    2    0    0  0.17199821039E+02 -0.21794657295E+02 -0.29703956297E+02  0.40659143499E+02  0.00000000000E+00 0.  1.
         11    1    3    3    0    0 -0.29344305804E+01  0.22013509808E+02  0.21043344769E+02  0.30594572333E+02  0.51100000000E-03 0. -1.
        -11    1    3    3    0    0 -0.31990108111E+01 -0.17206143927E+01 -0.22895620024E+01  0.42937487679E+01  0.51100000000E-03 0.  1.
        -12    1    3    3    0    0 -0.11066379648E+02  0.15017618797E+01  0.10950173531E+02  0.15640535400E+02  0.00000000000E+00 0.  1.
</event>
<event>
 7    1  0.5005325E-012  0.5052886E+02  0.7816164E-02  0.1300439E+00
        -11   -1    0    0    0    0  0.00000000000E+00  0.00000000000E+00  0.45593999997E+02  0.45594000000E+02  0.51100000000E-03 0. -1.
         11   -1    0    0    0    0 -0.00000000000E+00 -0.00000000000E+00 -0.45593999997E+02  0.45594000000E+02  0.51100000000E-03 0.  1.
    9900012    2    1    2    0    0 -0.10967281860E+02  0.26462757251E+02 -0.28854931429E+02  0.50528857602E+02  0.29999993169E+02 0.  0.
         12    1    1    2    0    0  0.10967281860E+02 -0.26462757251E+02  0.28854931429E+02  0.40659142398E+02  0.00000000000E+00 0. -1.
         11    1    3    3    0    0 -0.11155611795E+02  0.85392113184E+01 -0.67926792462E+01  0.15604688272E+02  0.51100000000E-03 0. -1.
        -11    1    3    3    0    0 -0.11953138225E+01 -0.14402976288E+01  0.28077199879E+01  0.33743924172E+01  0.51100000000E-03 0.  1.
        -12    1    3    3    0    0  0.13836437571E+01  0.19363843562E+02 -0.24869972170E+02  0.31549776913E+02  0.00000000000E+00 0.  1.
</event>
<event>
 7    1  0.5921471E-012  0.5052886E+02  0.7816164E-02  0.1300439E+00
        -11   -1    0    0    0    0  0.00000000000E+00  0.00000000000E+00  0.45593999997E+02  0.45594000000E+02  0.51100000000E-03 0. -1.
         11   -1    0    0    0    0 -0.00000000000E+00 -0.00000000000E+00 -0.45593999997E+02  0.45594000000E+02  0.51100000000E-03 0.  1.
    9900012    2    1    2    0    0 -0.40645452427E+01  0.29680782758E+02  0.27489931322E+02  0.50528859364E+02  0.29999998522E+02 0.  0.
        -12    1    1    2    0    0  0.40645452427E+01 -0.29680782758E+02 -0.27489931322E+02  0.40659140636E+02  0.00000000000E+00 0.  1.
         11    1    3    3    0    0 -0.41032687455E+01  0.19083618484E+02  0.22426756959E+02  0.29731813547E+02  0.51100000000E-03 0. -1.
        -11    1    3    3    0    0  0.12075288124E+01 -0.11028009036E+01  0.84134124382E+01  0.85708695464E+01  0.51100000000E-03 0.  1.
        -12    1    3    3    0    0 -0.11688053097E+01  0.11699965178E+02 -0.33502380751E+01  0.12226176270E+02  0.00000000000E+00 0.  1.
</event>
<event>
 7    1  0.5005325E-012  0.5052887E+02  0.7816164E-02  0.1300439E+00
        -11   -1    0    0    0    0  0.00000000000E+00  0.00000000000E+00  0.45593999997E+02  0.45594000000E+02  0.51100000000E-03 0. -1.
         11   -1    0    0    0    0 -0.00000000000E+00 -0.00000000000E+00 -0.45593999997E+02  0.45594000000E+02  0.51100000000E-03 0.  1.
    9900012    2    1    2    0    0 -0.38397064693E+01  0.39030391004E+02  0.10726141875E+02  0.50528869571E+02  0.30000029548E+02 0.  0.
        -12    1    1    2    0    0  0.38397064693E+01 -0.39030391004E+02 -0.10726141875E+02  0.40659130429E+02  0.00000000000E+00 0.  1.
         11    1    3    3    0    0  0.11618599216E+01 -0.90399930775E+00  0.25478152990E+01  0.29425322912E+01  0.51100000000E-03 0. -1.
        -11    1    3    3    0    0  0.15276706448E+01  0.17398199163E+02 -0.78736272155E+01  0.19157899611E+02  0.51100000000E-03 0.  1.
         12    1    3    3    0    0 -0.65292370357E+01  0.22536191148E+02  0.16051953792E+02  0.28428437669E+02  0.00000000000E+00 0. -1.
</event>
<event>
 7    1  0.5005325E-012  0.5052882E+02  0.7816164E-02  0.1300439E+00
        -11   -1    0    0    0    0  0.00000000000E+00  0.00000000000E+00  0.45593999997E+02  0.45594000000E+02  0.51100000000E-03 0. -1.
         11   -1    0    0    0    0 -0.00000000000E+00 -0.00000000000E+00 -0.45593999997E+02  0.45594000000E+02  0.51100000000E-03 0.  1.
    9900012    2    1    2    0    0 -0.18538657935E+01  0.38054597649E+01 -0.40438227891E+02  0.50528823700E+02  0.29999890119E+02 0.  0.
         12    1    1    2    0    0  0.18538657935E+01 -0.38054597649E+01  0.40438227891E+02  0.40659176300E+02  0.00000000000E+00 0. -1.
         11    1    3    3    0    0  0.57859605608E+01  0.15124811964E+01 -0.30831003906E+00  0.59883214945E+01  0.51100000000E-03 0. -1.
        -11    1    3    3    0    0 -0.87385936745E+01  0.67939075893E+01 -0.13253912652E+02  0.17268074605E+02  0.51100000000E-03 0.  1.
        -12    1    3    3    0    0  0.10987673202E+01 -0.45009290208E+01 -0.26876005201E+02  0.27272427600E+02  0.00000000000E+00 0.  1.
</event>
<event>
 7    1  0.5005325E-012  0.5052886E+02  0.7816164E-02  0.1300439E+00
        -11   -1    0    0    0    0  0.00000000000E+00  0.00000000000E+00  0.45593999997E+02  0.45594000000E+02  0.51100000000E-03 0. -1.
         11   -1    0    0    0    0 -0.00000000000E+00 -0.00000000000E+00 -0.45593999997E+02  0.45594000000E+02  0.51100000000E-03 0.  1.
    9900012    2    1    2    0    0 -0.18614229952E+02  0.24912953298E+02  0.26191998111E+02  0.50528861251E+02  0.30000004260E+02 0.  0.
        -12    1    1    2    0    0  0.18614229952E+02 -0.24912953298E+02 -0.26191998111E+02  0.40659138749E+02  0.00000000000E+00 0.  1.
         11    1    3    3    0    0 -0.16472038386E+02  0.11602288463E+02  0.21666030775E+02  0.29586450208E+02  0.51100000000E-03 0. -1.
        -11    1    3    3    0    0 -0.30555151734E+01  0.12471064153E+02  0.93999794381E+01  0.15912989279E+02  0.51100000000E-03 0.  1.
         12    1    3    3    0    0  0.91332360766E+00  0.83960068213E+00 -0.48740121014E+01  0.50294217642E+01  0.00000000000E+00 0. -1.
</event>
<event>
 7    1  0.5005325E-012  0.5052887E+02  0.7816164E-02  0.1300439E+00
        -11   -1    0    0    0    0  0.00000000000E+00  0.00000000000E+00  0.45593999997E+02  0.45594000000E+02  0.51100000000E-03 0. -1.
         11   -1    0    0    0    0 -0.00000000000E+00 -0.00000000000E+00 -0.45593999997E+02  0.45594000000E+02  0.51100000000E-03 0.  1.
    9900012    2    1    2    0    0  0.61299861714E+01  0.24019783583E+02  0.32227911947E+02  0.50528867664E+02  0.30000023753E+02 0.  0.
        -12    1    1    2    0    0 -0.61299861714E+01 -0.24019783583E+02 -0.32227911947E+02  0.40659132336E+02  0.00000000000E+00 0.  1.
         11    1    3    3    0    0  0.14509331486E+01  0.34189206534E+01  0.24599432650E+02  0.24878229687E+02  0.51100000000E-03 0. -1.
        -11    1    3    3    0    0  0.25387733225E+01 -0.83721203730E+00 -0.30743999660E+00  0.26908759895E+01  0.51100000000E-03 0.  1.
        -12    1    3    3    0    0  0.21402797003E+01  0.21438074967E+02  0.79359192936E+01  0.22959761987E+02  0.00000000000E+00 0.  1.
</event>
<event>
 7    1  0.5005325E-012  0.5052886E+02  0.7816164E-02  0.1300439E+00
        -11   -1    0    0    0    0  0.00000000000E+00  0.00000000000E+00  0.45593999997E+02  0.45594000000E+02  0.51100000000E-03 0.  1.
         11   -1    0    0    0    0 -0.00000000000E+00 -0.00000000000E+00 -0.45593999997E+02  0.45594000000E+02  0.51100000000E-03 0. -1.
    9900012    2    1    2    0    0 -0.30802240489E+02  0.24724628598E+02 -0.96478139928E+01  0.50528860888E+02  0.30000003157E+02 0.  0.
         12    1    1    2    0    0  0.30802240489E+02 -0.24724628598E+02  0.96478139928E+01  0.40659139112E+02  0.00000000000E+00 0. -1.
         11    1    3    3    0    0 -0.53457717614E+01 -0.34960766294E+01 -0.79460948311E+01  0.10195109163E+02  0.51100000000E-03 0. -1.
        -11    1    3    3    0    0 -0.34705826018E+01  0.49545408842E+01 -0.54015402697E+01  0.81098123600E+01  0.51100000000E-03 0.  1.
        -12    1    3    3    0    0 -0.21985886126E+02  0.23266164343E+02  0.36998211080E+01  0.32223939365E+02  0.00000000000E+00 0.  1.
</event>
<event>
 7    1  0.5005325E-012  0.5052887E+02  0.7816164E-02  0.1300439E+00
        -11   -1    0    0    0    0  0.00000000000E+00  0.00000000000E+00  0.45593999997E+02  0.45594000000E+02  0.51100000000E-03 0. -1.
         11   -1    0    0    0    0 -0.00000000000E+00 -0.00000000000E+00 -0.45593999997E+02  0.45594000000E+02  0.51100000000E-03 0.  1.
    9900012    2    1    2    0    0  0.41350900739E+01  0.75606554941E+01 -0.39735403505E+02  0.50528870975E+02  0.30000033815E+02 0.  0.
         12    1    1    2    0    0 -0.41350900739E+01 -0.75606554941E+01  0.39735403505E+02  0.40659129025E+02  0.00000000000E+00 0. -1.
         11    1    3    3    0    0 -0.43181853140E+01  0.23372044038E+01 -0.30566989802E+01  0.57838272578E+01  0.51100000000E-03 0. -1.
        -11    1    3    3    0    0  0.32786265556E+01  0.13076187473E+02 -0.30885772929E+02  0.33699659355E+02  0.51100000000E-03 0.  1.
        -12    1    3    3    0    0  0.51746488323E+01 -0.78527363831E+01 -0.57929315955E+01  0.11045384362E+02  0.00000000000E+00 0.  1.
</event>
<event>
 7    1  0.5005325E-012  0.5052887E+02  0.7816164E-02  0.1300439E+00
        -11   -1    0    0    0    0  0.00000000000E+00  0.00000000000E+00  0.45593999997E+02  0.45594000000E+02  0.51100000000E-03 0. -1.
         11   -1    0    0    0    0 -0.00000000000E+00 -0.00000000000E+00 -0.45593999997E+02  0.45594000000E+02  0.51100000000E-03 0.  1.
    9900012    2    1    2    0    0 -0.12296983359E+01  0.57012511141E+01  0.40238639253E+02  0.50528874196E+02  0.30000043606E+02 0.  0.
        -12    1    1    2    0    0  0.12296983359E+01 -0.57012511141E+01 -0.40238639253E+02  0.40659125804E+02  0.00000000000E+00 0.  1.
         11    1    3    3    0    0  0.19675508202E+01 -0.59076967358E+00  0.20265517342E+02  0.20369375504E+02  0.51100000000E-03 0. -1.
        -11    1    3    3    0    0  0.55017649594E+01  0.10207666144E+02  0.16150935355E+02  0.19882620021E+02  0.51100000000E-03 0.  1.
         12    1    3    3    0    0 -0.86990141155E+01 -0.39156453569E+01  0.38221865551E+01  0.10276878670E+02  0.00000000000E+00 0. -1.
</event>
<event>
 7    1  0.5005325E-012  0.5052888E+02  0.7816164E-02  0.1300439E+00
        -11   -1    0    0    0    0  0.00000000000E+00  0.00000000000E+00  0.45593999997E+02  0.45594000000E+02  0.51100000000E-03 0. -1.
         11   -1    0    0    0    0 -0.00000000000E+00 -0.00000000000E+00 -0.45593999997E+02  0.45594000000E+02  0.51100000000E-03 0.  1.
    9900012    2    1    2    0    0 -0.47135352272E+00  0.14522106593E+02 -0.37974335612E+02  0.50528881475E+02  0.30000065731E+02 0.  0.
         12    1    1    2    0    0  0.47135352272E+00 -0.14522106593E+02  0.37974335612E+02  0.40659118525E+02  0.00000000000E+00 0. -1.
         11    1    3    3    0    0 -0.91422577730E+01  0.15308959003E+02 -0.12337806241E+02  0.21683324607E+02  0.51100000000E-03 0. -1.
        -11    1    3    3    0    0  0.71617349133E+01  0.18290360097E+00 -0.66509927764E+01  0.97754593687E+01  0.51100000000E-03 0.  1.
        -12    1    3    3    0    0  0.15091693369E+01 -0.96975601051E+00 -0.18985536595E+02  0.19070097499E+02  0.00000000000E+00 0.  1.
</event>
<event>
 7    1  0.5005325E-012  0.5052886E+02  0.7816164E-02  0.1300439E+00
        -11   -1    0    0    0    0  0.00000000000E+00  0.00000000000E+00  0.45593999997E+02  0.45594000000E+02  0.51100000000E-03 0.  1.
         11   -1    0    0    0    0 -0.00000000000E+00 -0.00000000000E+00 -0.45593999997E+02  0.45594000000E+02  0.51100000000E-03 0. -1.
    9900012    2    1    2    0    0  0.24121302581E+02  0.74488029383E+01  0.31872299207E+02  0.50528863756E+02  0.30000011872E+02 0.  0.
        -12    1    1    2    0    0 -0.24121302581E+02 -0.74488029383E+01 -0.31872299207E+02  0.40659136244E+02  0.00000000000E+00 0.  1.
         11    1    3    3    0    0 -0.10607782215E+00  0.27024636428E+01 -0.26594693901E+01  0.37930647164E+01  0.51100000000E-03 0. -1.
        -11    1    3    3    0    0  0.33222420918E+01 -0.66614792637E+01  0.59301626400E+01  0.95173225066E+01  0.51100000000E-03 0.  1.
        -12    1    3    3    0    0  0.20905138311E+02  0.11407818559E+02  0.28601605957E+02  0.37218476533E+02  0.00000000000E+00 0.  1.
</event>
<event>
 7    1  0.5005325E-012  0.5052885E+02  0.7816164E-02  0.1300439E+00
        -11   -1    0    0    0    0  0.00000000000E+00  0.00000000000E+00  0.45593999997E+02  0.45594000000E+02  0.51100000000E-03 0. -1.
         11   -1    0    0    0    0 -0.00000000000E+00 -0.00000000000E+00 -0.45593999997E+02  0.45594000000E+02  0.51100000000E-03 0.  1.
    9900012    2    1    2    0    0  0.23597096101E+02 -0.33012063332E+02  0.25586820098E+01  0.50528854369E+02  0.29999983340E+02 0.  0.
        -12    1    1    2    0    0 -0.23597096101E+02  0.33012063332E+02 -0.25586820098E+01  0.40659145631E+02  0.00000000000E+00 0.  1.
         11    1    3    3    0    0  0.90152559124E+00 -0.10948114396E+02 -0.21656779553E+00  0.10987304450E+02  0.51100000000E-03 0.  1.
        -11    1    3    3    0    0  0.11823380509E+02  0.21217523509E+01  0.48257820756E+01  0.12945359501E+02  0.51100000000E-03 0. -1.
         12    1    3    3    0    0  0.10872190000E+02 -0.24185701287E+02 -0.20505322702E+01  0.26596190418E+02  0.00000000000E+00 0. -1.
</event>
<event>
 7    1  0.5005325E-012  0.5052887E+02  0.7816164E-02  0.1300439E+00
        -11   -1    0    0    0    0  0.00000000000E+00  0.00000000000E+00  0.45593999997E+02  0.45594000000E+02  0.51100000000E-03 0. -1.
         11   -1    0    0    0    0 -0.00000000000E+00 -0.00000000000E+00 -0.45593999997E+02  0.45594000000E+02  0.51100000000E-03 0.  1.
    9900012    2    1    2    0    0 -0.18287194918E+02  0.78095786956E+01 -0.35464824127E+02  0.50528871041E+02  0.30000034016E+02 0.  0.
         12    1    1    2    0    0  0.18287194918E+02 -0.78095786956E+01  0.35464824127E+02  0.40659128959E+02  0.00000000000E+00 0. -1.
         11    1    3    3    0    0  0.37550160475E+00  0.55911707833E+01 -0.15311775185E+02  0.16304988554E+02  0.51100000000E-03 0. -1.
        -11    1    3    3    0    0 -0.15351441281E+01 -0.75803127251E+01 -0.75609775451E+01  0.10816015449E+02  0.51100000000E-03 0.  1.
         12    1    3    3    0    0 -0.17127552395E+02  0.97987206375E+01 -0.12592071397E+02  0.23407867037E+02  0.00000000000E+00 0. -1.
</event>
<event>
 7    1  0.5005325E-012  0.5052886E+02  0.7816164E-02  0.1300439E+00
        -11   -1    0    0    0    0  0.00000000000E+00  0.00000000000E+00  0.45593999997E+02  0.45594000000E+02  0.51100000000E-03 0. -1.
         11   -1    0    0    0    0 -0.00000000000E+00 -0.00000000000E+00 -0.45593999997E+02  0.45594000000E+02  0.51100000000E-03 0.  1.
    9900012    2    1    2    0    0 -0.62877167799E+01  0.12368620136E+02 -0.38218417124E+02  0.50528861374E+02  0.30000004631E+02 0.  0.
         12    1    1    2    0    0  0.62877167799E+01 -0.12368620136E+02  0.38218417124E+02  0.40659138626E+02  0.00000000000E+00 0. -1.
         11    1    3    3    0    0 -0.52660630539E+01  0.24449175631E+01 -0.13194378683E+02  0.14415292958E+02  0.51100000000E-03 0. -1.
        -11    1    3    3    0    0 -0.32579100143E+01  0.17327992019E+02 -0.20914872754E+02  0.27355167476E+02  0.51100000000E-03 0.  1.
        -12    1    3    3    0    0  0.22362562883E+01 -0.74042894453E+01 -0.41091656869E+01  0.87584009397E+01  0.00000000000E+00 0.  1.
</event>
<event>
 7    1  0.5005325E-012  0.5052886E+02  0.7816164E-02  0.1300439E+00
        -11   -1    0    0    0    0  0.00000000000E+00  0.00000000000E+00  0.45593999997E+02  0.45594000000E+02  0.51100000000E-03 0. -1.
         11   -1    0    0    0    0 -0.00000000000E+00 -0.00000000000E+00 -0.45593999997E+02  0.45594000000E+02  0.51100000000E-03 0.  1.
    9900012    2    1    2    0    0 -0.25134492012E+02  0.16408838320E+02  0.27425770353E+02  0.50528861504E+02  0.30000005029E+02 0.  0.
        -12    1    1    2    0    0  0.25134492012E+02 -0.16408838320E+02 -0.27425770353E+02  0.40659138496E+02  0.00000000000E+00 0.  1.
         11    1    3    3    0    0 -0.46103490439E+00  0.80384169298E+01  0.55120862825E+01  0.97576531690E+01  0.51100000000E-03 0. -1.
        -11    1    3    3    0    0  0.66854422491E+00 -0.54384877750E+01  0.27769108182E+01  0.61429092955E+01  0.51100000000E-03 0.  1.
         12    1    3    3    0    0 -0.25342001333E+02  0.13808909165E+02  0.19136773253E+02  0.34628299040E+02  0.00000000000E+00 0. -1.
</event>
<event>
 7    1  0.5005325E-012  0.5052886E+02  0.7816164E-02  0.1300439E+00
        -11   -1    0    0    0    0  0.00000000000E+00  0.00000000000E+00  0.45593999997E+02  0.45594000000E+02  0.51100000000E-03 0. -1.
         11   -1    0    0    0    0 -0.00000000000E+00 -0.00000000000E+00 -0.45593999997E+02  0.45594000000E+02  0.51100000000E-03 0.  1.
    9900012    2    1    2    0    0  0.34582858631E+01 -0.13171260062E+01 -0.40490384416E+02  0.50528858442E+02  0.29999995721E+02 0.  0.
         12    1    1    2    0    0 -0.34582858631E+01  0.13171260062E+01  0.40490384416E+02  0.40659141558E+02  0.00000000000E+00 0. -1.
         11    1    3    3    0    0 -0.63271165362E+01 -0.11987660288E+01 -0.58423482205E+01  0.86949684672E+01  0.51100000000E-03 0. -1.
        -11    1    3    3    0    0  0.96575438354E+00  0.69276867222E+01 -0.27719974708E+02  0.28588853124E+02  0.51100000000E-03 0.  1.
         12    1    3    3    0    0  0.88196480158E+01 -0.70460466997E+01 -0.69280614877E+01  0.13245036851E+02  0.00000000000E+00 0. -1.
</event>
<event>
 7    1  0.5005325E-012  0.5052881E+02  0.7816164E-02  0.1300439E+00
        -11   -1    0    0    0    0  0.00000000000E+00  0.00000000000E+00  0.45593999997E+02  0.45594000000E+02  0.51100000000E-03 0. -1.
         11   -1    0    0    0    0 -0.00000000000E+00 -0.00000000000E+00 -0.45593999997E+02  0.45594000000E+02  0.51100000000E-03 0.  1.
    9900012    2    1    2    0    0 -0.22108668424E+02  0.67759362115E+01  0.33443435372E+02  0.50528807921E+02  0.29999842158E+02 0.  0.
        -12    1    1    2    0    0  0.22108668424E+02 -0.67759362115E+01 -0.33443435372E+02  0.40659192079E+02  0.00000000000E+00 0.  1.
         11    1    3    3    0    0 -0.20259921984E+02  0.84850085097E+01  0.12167261193E+02  0.25109799947E+02  0.51100000000E-03 0. -1.
        -11    1    3    3    0    0 -0.23976117926E+01 -0.26004298446E+01 -0.53973334463E+00  0.35780008425E+01  0.51100000000E-03 0.  1.
        -12    1    3    3    0    0  0.54886535270E+00  0.89135754642E+00  0.21815907523E+02  0.21841007132E+02  0.00000000000E+00 0.  1.
</event>
<event>
 7    1  0.5005325E-012  0.5052883E+02  0.7816164E-02  0.1300439E+00
        -11   -1    0    0    0    0  0.00000000000E+00  0.00000000000E+00  0.45593999997E+02  0.45594000000E+02  0.51100000000E-03 0. -1.
         11   -1    0    0    0    0 -0.00000000000E+00 -0.00000000000E+00 -0.45593999997E+02  0.45594000000E+02  0.51100000000E-03 0.  1.
    9900012    2    1    2    0    0 -0.20373999449E+01  0.16976310338E+02  0.36889316120E+02  0.50528834305E+02  0.29999922354E+02 0.  0.
        -12    1    1    2    0    0  0.20373999449E+01 -0.16976310338E+02 -0.36889316120E+02  0.40659165695E+02  0.00000000000E+00 0.  1.
         11    1    3    3    0    0  0.30957735915E+01  0.12420916388E+02  0.22825356821E+02  0.26169827900E+02  0.51100000000E-03 0. -1.
        -11    1    3    3    0    0 -0.66984845979E+01  0.23925326821E+01  0.18140963189E+02  0.19485596070E+02  0.51100000000E-03 0.  1.
         12    1    3    3    0    0  0.15653110615E+01  0.21628612675E+01 -0.40770038893E+01  0.48734103352E+01  0.00000000000E+00 0. -1.
</event>
<event>
 7    1  0.5005325E-012  0.5052887E+02  0.7816164E-02  0.1300439E+00
        -11   -1    0    0    0    0  0.00000000000E+00  0.00000000000E+00  0.45593999997E+02  0.45594000000E+02  0.51100000000E-03 0. -1.
         11   -1    0    0    0    0 -0.00000000000E+00 -0.00000000000E+00 -0.45593999997E+02  0.45594000000E+02  0.51100000000E-03 0.  1.
    9900012    2    1    2    0    0 -0.41566433099E+01 -0.61059111175E+01 -0.39982557662E+02  0.50528871241E+02  0.30000034625E+02 0.  0.
         12    1    1    2    0    0  0.41566433099E+01  0.61059111175E+01  0.39982557662E+02  0.40659128759E+02  0.00000000000E+00 0. -1.
         11    1    3    3    0    0  0.30793869709E+01  0.18211834845E+01  0.54150103395E+00  0.36183638612E+01  0.51100000000E-03 0. -1.
        -11    1    3    3    0    0 -0.11675860325E+02 -0.21983767194E+01 -0.99742289934E+01  0.15512698630E+02  0.51100000000E-03 0.  1.
         12    1    3    3    0    0  0.44398300440E+01 -0.57287178827E+01 -0.30549829703E+02  0.31397808750E+02  0.00000000000E+00 0. -1.
</event>
<event>
 7    1  0.5005325E-012  0.5052886E+02  0.7816164E-02  0.1300439E+00
        -11   -1    0    0    0    0  0.00000000000E+00  0.00000000000E+00  0.45593999997E+02  0.45594000000E+02  0.51100000000E-03 0. -1.
         11   -1    0    0    0    0 -0.00000000000E+00 -0.00000000000E+00 -0.45593999997E+02  0.45594000000E+02  0.51100000000E-03 0.  1.
    9900012    2    1    2    0    0  0.55045756725E+01 -0.29929740468E+02 -0.26964343611E+02  0.50528861492E+02  0.30000004990E+02 0.  0.
         12    1    1    2    0    0 -0.55045756725E+01  0.29929740468E+02  0.26964343611E+02  0.40659138508E+02  0.00000000000E+00 0. -1.
         11    1    3    3    0    0  0.41623152429E+01 -0.20251372641E+01 -0.60185043188E+01  0.75926572171E+01  0.51100000000E-03 0. -1.
        -11    1    3    3    0    0 -0.22546676643E+01 -0.22987325775E+02 -0.26173932393E+02  0.34908099486E+02  0.51100000000E-03 0.  1.
         12    1    3    3    0    0  0.35969280939E+01 -0.49172774292E+01  0.52280931004E+01  0.80281047885E+01  0.00000000000E+00 0. -1.
</event>
<event>
 7    1  0.5005325E-012  0.5052885E+02  0.7816164E-02  0.1300439E+00
        -11   -1    0    0    0    0  0.00000000000E+00  0.00000000000E+00  0.45593999997E+02  0.45594000000E+02  0.51100000000E-03 0. -1.
         11   -1    0    0    0    0 -0.00000000000E+00 -0.00000000000E+00 -0.45593999997E+02  0.45594000000E+02  0.51100000000E-03 0.  1.
    9900012    2    1    2    0    0  0.26884138430E+02 -0.20028861410E+02 -0.23005524235E+02  0.50528851781E+02  0.29999975475E+02 0.  0.
         12    1    1    2    0    0 -0.26884138430E+02  0.20028861410E+02  0.23005524235E+02  0.40659148219E+02  0.00000000000E+00 0. -1.
         11    1    3    3    0    0  0.99268735113E+01 -0.26469068939E+01 -0.13693710888E+01  0.10364560350E+02  0.51100000000E-03 0. -1.
        -11    1    3    3    0    0  0.20619066025E+02 -0.19952426683E+02 -0.15624739083E+02  0.32670746639E+02  0.51100000000E-03 0.  1.
         12    1    3    3    0    0 -0.36618011065E+01  0.25704721666E+01 -0.60114140635E+01  0.74935447917E+01  0.00000000000E+00 0. -1.
</event>
<event>
 7    1  0.5005325E-012  0.5052885E+02  0.7816164E-02  0.1300439E+00
        -11   -1    0    0    0    0  0.00000000000E+00  0.00000000000E+00  0.45593999997E+02  0.45594000000E+02  0.51100000000E-03 0. -1.
         11   -1    0    0    0    0 -0.00000000000E+00 -0.00000000000E+00 -0.45593999997E+02  0.45594000000E+02  0.51100000000E-03 0.  1.
    9900012    2    1    2    0    0 -0.21264237959E+02 -0.98175401367E+01  0.33235746256E+02  0.50528846793E+02  0.29999960312E+02 0.  0.
        -12    1    1    2    0    0  0.21264237959E+02  0.98175401367E+01 -0.33235746256E+02  0.40659153207E+02  0.00000000000E+00 0.  1.
         11    1    3    3    0    0 -0.12110560058E+01 -0.57602568759E+01 -0.18046925601E+01  0.61566331240E+01  0.51100000000E-03 0.  1.
        -11    1    3    3    0    0  0.87890425185E+00  0.43853793477E+01  0.78480502458E+01  0.90330458667E+01  0.51100000000E-03 0. -1.
         12    1    3    3    0    0 -0.20932086205E+02 -0.84426626085E+01  0.27192388570E+02  0.35339167802E+02  0.00000000000E+00 0. -1.
</event>
<event>
 7    1  0.5005325E-012  0.5052886E+02  0.7816164E-02  0.1300439E+00
        -11   -1    0    0    0    0  0.00000000000E+00  0.00000000000E+00  0.45593999997E+02  0.45594000000E+02  0.51100000000E-03 0. -1.
         11   -1    0    0    0    0 -0.00000000000E+00 -0.00000000000E+00 -0.45593999997E+02  0.45594000000E+02  0.51100000000E-03 0.  1.
    9900012    2    1    2    0    0  0.13128019225E+02  0.80967817237E+01 -0.37619978160E+02  0.50528861792E+02  0.30000005903E+02 0.  0.
         12    1    1    2    0    0 -0.13128019225E+02 -0.80967817237E+01  0.37619978160E+02  0.40659138208E+02  0.00000000000E+00 0. -1.
         11    1    3    3    0    0  0.38425359050E+01 -0.41882193900E+01 -0.22045248416E+02  0.22766186370E+02  0.51100000000E-03 0.  1.
        -11    1    3    3    0    0  0.22836012038E+01  0.79066628378E+00 -0.14005490271E+02  0.14212450373E+02  0.51100000000E-03 0. -1.
         12    1    3    3    0    0  0.70018821165E+01  0.11494334830E+02 -0.15692394730E+01  0.13550225049E+02  0.00000000000E+00 0. -1.
</event>
<event>
 7    1  0.5005325E-012  0.5052884E+02  0.7816164E-02  0.1300439E+00
        -11   -1    0    0    0    0  0.00000000000E+00  0.00000000000E+00  0.45593999997E+02  0.45594000000E+02  0.51100000000E-03 0. -1.
         11   -1    0    0    0    0 -0.00000000000E+00 -0.00000000000E+00 -0.45593999997E+02  0.45594000000E+02  0.51100000000E-03 0.  1.
    9900012    2    1    2    0    0  0.40268196646E+02 -0.10897552760E+00 -0.56238750109E+01  0.50528837355E+02  0.29999931625E+02 0.  0.
         12    1    1    2    0    0 -0.40268196646E+02  0.10897552760E+00  0.56238750109E+01  0.40659162645E+02  0.00000000000E+00 0. -1.
         11    1    3    3    0    0  0.23386585999E+02  0.22660125849E+01 -0.15904391562E+02  0.28372819545E+02  0.51100000000E-03 0.  1.
        -11    1    3    3    0    0  0.11174949365E+01 -0.35320036862E+01  0.29338257764E+01  0.47255876798E+01  0.51100000000E-03 0. -1.
        -12    1    3    3    0    0  0.15764115711E+02  0.11570155737E+01  0.73466907748E+01  0.17430430131E+02  0.00000000000E+00 0.  1.
</event>
<event>
 7    1  0.5005325E-012  0.5052887E+02  0.7816164E-02  0.1300439E+00
        -11   -1    0    0    0    0  0.00000000000E+00  0.00000000000E+00  0.45593999997E+02  0.45594000000E+02  0.51100000000E-03 0. -1.
         11   -1    0    0    0    0 -0.00000000000E+00 -0.00000000000E+00 -0.45593999997E+02  0.45594000000E+02  0.51100000000E-03 0.  1.
    9900012    2    1    2    0    0 -0.25537638184E+02  0.70304753829E+01  0.30847473166E+02  0.50528866354E+02  0.30000019770E+02 0.  0.
        -12    1    1    2    0    0  0.25537638184E+02 -0.70304753829E+01 -0.30847473166E+02  0.40659133646E+02  0.00000000000E+00 0.  1.
         11    1    3    3    0    0 -0.13684293949E+02  0.18855896189E+01  0.70057707203E+01  0.15488582012E+02  0.51100000000E-03 0. -1.
        -11    1    3    3    0    0 -0.42389447527E+01  0.77216109124E+01 -0.10610070552E+01  0.88722975565E+01  0.51100000000E-03 0.  1.
        -12    1    3    3    0    0 -0.76143994823E+01 -0.25767251484E+01  0.24902709501E+02  0.26167986786E+02  0.00000000000E+00 0.  1.
</event>
<event>
 7    1  0.5005325E-012  0.5052886E+02  0.7816164E-02  0.1300439E+00
        -11   -1    0    0    0    0  0.00000000000E+00  0.00000000000E+00  0.45593999997E+02  0.45594000000E+02  0.51100000000E-03 0.  1.
         11   -1    0    0    0    0 -0.00000000000E+00 -0.00000000000E+00 -0.45593999997E+02  0.45594000000E+02  0.51100000000E-03 0. -1.
    9900012    2    1    2    0    0 -0.53950267449E+01  0.31195765127E+02 -0.25512413687E+02  0.50528864156E+02  0.30000013089E+02 0.  0.
         12    1    1    2    0    0  0.53950267449E+01 -0.31195765127E+02  0.25512413687E+02  0.40659135844E+02  0.00000000000E+00 0. -1.
         11    1    3    3    0    0 -0.90838387851E+01  0.23969019018E+02 -0.87956147068E+01  0.27099683358E+02  0.51100000000E-03 0.  1.
        -11    1    3    3    0    0 -0.54900089596E+01  0.25103024063E+01 -0.71460653501E+01  0.93545746454E+01  0.51100000000E-03 0. -1.
         12    1    3    3    0    0  0.91788209997E+01  0.47164437026E+01 -0.95707336301E+01  0.14074606153E+02  0.00000000000E+00 0. -1.
</event>
<event>
 7    1  0.5005325E-012  0.5052886E+02  0.7816164E-02  0.1300439E+00
        -11   -1    0    0    0    0  0.00000000000E+00  0.00000000000E+00  0.45593999997E+02  0.45594000000E+02  0.51100000000E-03 0. -1.
         11   -1    0    0    0    0 -0.00000000000E+00 -0.00000000000E+00 -0.45593999997E+02  0.45594000000E+02  0.51100000000E-03 0.  1.
    9900012    2    1    2    0    0 -0.29570139331E+02 -0.58496987676E+01 -0.27286501420E+02  0.50528864797E+02  0.30000015037E+02 0.  0.
         12    1    1    2    0    0  0.29570139331E+02  0.58496987676E+01  0.27286501420E+02  0.40659135203E+02  0.00000000000E+00 0. -1.
         11    1    3    3    0    0 -0.76898353034E+01 -0.66972919320E+01 -0.21365386492E+02  0.23674184810E+02  0.51100000000E-03 0. -1.
        -11    1    3    3    0    0 -0.13860872711E+02 -0.51394836590E+01 -0.77341263569E+01  0.16683968214E+02  0.51100000000E-03 0.  1.
        -12    1    3    3    0    0 -0.80194313169E+01  0.59870768234E+01  0.18130114289E+01  0.10170711773E+02  0.00000000000E+00 0.  1.
</event>
<event>
 7    1  0.5005325E-012  0.5052884E+02  0.7816164E-02  0.1300439E+00
        -11   -1    0    0    0    0  0.00000000000E+00  0.00000000000E+00  0.45593999997E+02  0.45594000000E+02  0.51100000000E-03 0. -1.
         11   -1    0    0    0    0 -0.00000000000E+00 -0.00000000000E+00 -0.45593999997E+02  0.45594000000E+02  0.51100000000E-03 0.  1.
    9900012    2    1    2    0    0  0.39970327375E+02 -0.61211176240E+01 -0.42511792982E+01  0.50528835266E+02  0.29999925276E+02 0.  0.
        -12    1    1    2    0    0 -0.39970327375E+02  0.61211176240E+01  0.42511792982E+01  0.40659164734E+02  0.00000000000E+00 0.  1.
         11    1    3    3    0    0  0.10018720437E+02  0.60372918040E+01 -0.21822034801E+01  0.11898977427E+02  0.51100000000E-03 0. -1.
        -11    1    3    3    0    0  0.51206366319E+01 -0.35361661858E+01 -0.94616721645E+01  0.11324691220E+02  0.51100000000E-03 0.  1.
         12    1    3    3    0    0  0.24830970306E+02 -0.86222432421E+01  0.73926963465E+01  0.27305166620E+02  0.00000000000E+00 0. -1.
</event>
<event>
 7    1  0.5005325E-012  0.5052887E+02  0.7816164E-02  0.1300439E+00
        -11   -1    0    0    0    0  0.00000000000E+00  0.00000000000E+00  0.45593999997E+02  0.45594000000E+02  0.51100000000E-03 0. -1.
         11   -1    0    0    0    0 -0.00000000000E+00 -0.00000000000E+00 -0.45593999997E+02  0.45594000000E+02  0.51100000000E-03 0.  1.
    9900012    2    1    2    0    0  0.32877722999E+01  0.13396806165E+02  0.38247632093E+02  0.50528865444E+02  0.30000017004E+02 0.  0.
        -12    1    1    2    0    0 -0.32877722999E+01 -0.13396806165E+02 -0.38247632093E+02  0.40659134556E+02  0.00000000000E+00 0.  1.
         11    1    3    3    0    0 -0.20147825290E+01 -0.18250241787E+01  0.86945202137E+00  0.28541214008E+01  0.51100000000E-03 0. -1.
        -11    1    3    3    0    0  0.26229868199E+01  0.12773415867E+02  0.33632329525E+01  0.13466682922E+02  0.51100000000E-03 0.  1.
         12    1    3    3    0    0  0.26795680090E+01  0.24484144772E+01  0.34014947119E+02  0.34208061121E+02  0.00000000000E+00 0. -1.
</event>
<event>
 7    1  0.5005325E-012  0.5052887E+02  0.7816164E-02  0.1300439E+00
        -11   -1    0    0    0    0  0.00000000000E+00  0.00000000000E+00  0.45593999997E+02  0.45594000000E+02  0.51100000000E-03 0. -1.
         11   -1    0    0    0    0 -0.00000000000E+00 -0.00000000000E+00 -0.45593999997E+02  0.45594000000E+02  0.51100000000E-03 0.  1.
    9900012    2    1    2    0    0  0.31177513143E+02  0.13522152034E+02  0.22322157911E+02  0.50528872424E+02  0.30000038221E+02 0.  0.
        -12    1    1    2    0    0 -0.31177513143E+02 -0.13522152034E+02 -0.22322157911E+02  0.40659127576E+02  0.00000000000E+00 0.  1.
         11    1    3    3    0    0  0.14389767744E+02  0.93021504545E+00 -0.11698733263E+01  0.14467180777E+02  0.51100000000E-03 0.  1.
        -11    1    3    3    0    0  0.17101041616E+02  0.25348909487E+01  0.15321641169E+02  0.23100302701E+02  0.51100000000E-03 0. -1.
        -12    1    3    3    0    0 -0.31329621733E+00  0.10057046040E+02  0.81703900683E+01  0.12961388947E+02  0.00000000000E+00 0.  1.
</event>
<event>
 7    1  0.5005325E-012  0.5052886E+02  0.7816164E-02  0.1300439E+00
        -11   -1    0    0    0    0  0.00000000000E+00  0.00000000000E+00  0.45593999997E+02  0.45594000000E+02  0.51100000000E-03 0. -1.
         11   -1    0    0    0    0 -0.00000000000E+00 -0.00000000000E+00 -0.45593999997E+02  0.45594000000E+02  0.51100000000E-03 0.  1.
    9900012    2    1    2    0    0  0.42753548554E+01  0.59130918069E+01 -0.39999031866E+02  0.50528857559E+02  0.29999993036E+02 0.  0.
         12    1    1    2    0    0 -0.42753548554E+01 -0.59130918069E+01  0.39999031866E+02  0.40659142441E+02  0.00000000000E+00 0. -1.
         11    1    3    3    0    0 -0.67201246856E+01  0.92467481876E+01 -0.61428531029E+01  0.12976789755E+02  0.51100000000E-03 0. -1.
        -11    1    3    3    0    0  0.35635737943E+01  0.42693807039E+01 -0.13092071067E+02  0.14224239694E+02  0.51100000000E-03 0.  1.
         12    1    3    3    0    0  0.74319057467E+01 -0.76030370846E+01 -0.20764107696E+02  0.23327828110E+02  0.00000000000E+00 0. -1.
</event>
<event>
 7    1  0.5005325E-012  0.5052885E+02  0.7816164E-02  0.1300439E+00
        -11   -1    0    0    0    0  0.00000000000E+00  0.00000000000E+00  0.45593999997E+02  0.45594000000E+02  0.51100000000E-03 0. -1.
         11   -1    0    0    0    0 -0.00000000000E+00 -0.00000000000E+00 -0.45593999997E+02  0.45594000000E+02  0.51100000000E-03 0.  1.
    9900012    2    1    2    0    0  0.30321273850E+01  0.66232457676E+01 -0.40001312056E+02  0.50528854077E+02  0.29999982454E+02 0.  0.
         12    1    1    2    0    0 -0.30321273850E+01 -0.66232457676E+01  0.40001312056E+02  0.40659145923E+02  0.00000000000E+00 0. -1.
         11    1    3    3    0    0  0.44342848357E+01  0.10005665188E+01 -0.31214711585E+01  0.55143084623E+01  0.51100000000E-03 0. -1.
        -11    1    3    3    0    0 -0.37178636106E+01 -0.77552730566E+01 -0.40866764777E+01  0.95219585645E+01  0.51100000000E-03 0.  1.
        -12    1    3    3    0    0  0.23157061599E+01  0.13377952305E+02 -0.32793164419E+02  0.35492587051E+02  0.00000000000E+00 0.  1.
</event>
<event>
 7    1  0.5005325E-012  0.5052886E+02  0.7816164E-02  0.1300439E+00
        -11   -1    0    0    0    0  0.00000000000E+00  0.00000000000E+00  0.45593999997E+02  0.45594000000E+02  0.51100000000E-03 0. -1.
         11   -1    0    0    0    0 -0.00000000000E+00 -0.00000000000E+00 -0.45593999997E+02  0.45594000000E+02  0.51100000000E-03 0.  1.
    9900012    2    1    2    0    0 -0.35880099224E+02  0.18467425730E+02  0.49737347718E+01  0.50528863622E+02  0.30000011466E+02 0.  0.
        -12    1    1    2    0    0  0.35880099224E+02 -0.18467425730E+02 -0.49737347718E+01  0.40659136378E+02  0.00000000000E+00 0.  1.
         11    1    3    3    0    0 -0.11836293844E+02 -0.40536729474E+01  0.48630573602E+01  0.13423093663E+02  0.51100000000E-03 0. -1.
        -11    1    3    3    0    0 -0.58947414006E+01  0.44045104730E+01  0.74104781830E+01  0.10443317282E+02  0.51100000000E-03 0.  1.
         12    1    3    3    0    0 -0.18149063979E+02  0.18116588204E+02 -0.72998007715E+01  0.26662452678E+02  0.00000000000E+00 0. -1.
</event>
<event>
 7    1  0.5005325E-012  0.5052887E+02  0.7816164E-02  0.1300439E+00
        -11   -1    0    0    0    0  0.00000000000E+00  0.00000000000E+00  0.45593999997E+02  0.45594000000E+02  0.51100000000E-03 0. -1.
         11   -1    0    0    0    0 -0.00000000000E+00 -0.00000000000E+00 -0.45593999997E+02  0.45594000000E+02  0.51100000000E-03 0.  1.
    9900012    2    1    2    0    0  0.63069425838E+01  0.11979136893E+02 -0.38339110763E+02  0.50528872371E+02  0.30000038059E+02 0.  0.
         12    1    1    2    0    0 -0.63069425838E+01 -0.11979136893E+02  0.38339110763E+02  0.40659127629E+02  0.00000000000E+00 0. -1.
         11    1    3    3    0    0  0.92844630972E+01  0.28159796780E+01 -0.21953479967E+02  0.24001797421E+02  0.51100000000E-03 0.  1.
        -11    1    3    3    0    0 -0.48133613235E+01  0.13598838142E+02 -0.16243532178E+02  0.21724391451E+02  0.51100000000E-03 0. -1.
         12    1    3    3    0    0  0.18358408101E+01 -0.44356809273E+01 -0.14209861861E+00  0.48026834984E+01  0.00000000000E+00 0. -1.
</event>
<event>
 7    1  0.5005325E-012  0.5052885E+02  0.7816164E-02  0.1300439E+00
        -11   -1    0    0    0    0  0.00000000000E+00  0.00000000000E+00  0.45593999997E+02  0.45594000000E+02  0.51100000000E-03 0. -1.
         11   -1    0    0    0    0 -0.00000000000E+00 -0.00000000000E+00 -0.45593999997E+02  0.45594000000E+02  0.51100000000E-03 0.  1.
    9900012    2    1    2    0    0  0.86821761588E+01  0.19775635363E+02  0.34448661482E+02  0.50528853245E+02  0.29999979925E+02 0.  0.
        -12    1    1    2    0    0 -0.86821761588E+01 -0.19775635363E+02 -0.34448661482E+02  0.40659146755E+02  0.00000000000E+00 0.  1.
         11    1    3    3    0    0  0.14040302418E+01 -0.10950474461E+01 -0.36633055922E+01  0.40731115811E+01  0.51100000000E-03 0.  1.
        -11    1    3    3    0    0 -0.31199699226E+01  0.13866099845E+00  0.27221041200E+01  0.41428601584E+01  0.51100000000E-03 0. -1.
         12    1    3    3    0    0  0.10398115840E+02  0.20732021811E+02  0.35389862955E+02  0.42312881506E+02  0.00000000000E+00 0. -1.
</event>
<event>
 7    1  0.5005325E-012  0.5052886E+02  0.7816164E-02  0.1300439E+00
        -11   -1    0    0    0    0  0.00000000000E+00  0.00000000000E+00  0.45593999997E+02  0.45594000000E+02  0.51100000000E-03 0. -1.
         11   -1    0    0    0    0 -0.00000000000E+00 -0.00000000000E+00 -0.45593999997E+02  0.45594000000E+02  0.51100000000E-03 0.  1.
    9900012    2    1    2    0    0 -0.25661698135E+02  0.27657136757E+01  0.31416458821E+02  0.50528858246E+02  0.29999995125E+02 0.  0.
        -12    1    1    2    0    0  0.25661698135E+02 -0.27657136757E+01 -0.31416458821E+02  0.40659141754E+02  0.00000000000E+00 0.  1.
         11    1    3    3    0    0  0.27566906570E+01 -0.33710713022E+01  0.15704314819E+01  0.46292246007E+01  0.51100000000E-03 0. -1.
        -11    1    3    3    0    0 -0.77287473871E+01  0.11037873843E+02  0.13563300209E+02  0.19118873083E+02  0.51100000000E-03 0.  1.
         12    1    3    3    0    0 -0.20689641405E+02 -0.49010888647E+01  0.16282727130E+02  0.26780760563E+02  0.00000000000E+00 0. -1.
</event>
<event>
 7    1  0.5005325E-012  0.5052892E+02  0.7816164E-02  0.1300439E+00
        -11   -1    0    0    0    0  0.00000000000E+00  0.00000000000E+00  0.45593999997E+02  0.45594000000E+02  0.51100000000E-03 0. -1.
         11   -1    0    0    0    0 -0.00000000000E+00 -0.00000000000E+00 -0.45593999997E+02  0.45594000000E+02  0.51100000000E-03 0.  1.
    9900012    2    1    2    0    0  0.20375823128E+02  0.61253933560E+01 -0.34647744484E+02  0.50528919714E+02  0.30000181961E+02 0.  0.
         12    1    1    2    0    0 -0.20375823128E+02 -0.61253933560E+01  0.34647744484E+02  0.40659080286E+02  0.00000000000E+00 0. -1.
         11    1    3    3    0    0  0.58938578111E+00  0.92603562620E+01 -0.14775765152E+02  0.17447773777E+02  0.51100000000E-03 0.  1.
        -11    1    3    3    0    0  0.20613438202E+02  0.24805045118E+01 -0.15242449399E+02  0.25756533173E+02  0.51100000000E-03 0. -1.
         12    1    3    3    0    0 -0.82700085505E+00 -0.56154674177E+01 -0.46295299330E+01  0.73246127634E+01  0.00000000000E+00 0. -1.
</event>
<event>
 7    1  0.5005325E-012  0.5052886E+02  0.7816164E-02  0.1300439E+00
        -11   -1    0    0    0    0  0.00000000000E+00  0.00000000000E+00  0.45593999997E+02  0.45594000000E+02  0.51100000000E-03 0. -1.
         11   -1    0    0    0    0 -0.00000000000E+00 -0.00000000000E+00 -0.45593999997E+02  0.45594000000E+02  0.51100000000E-03 0.  1.
    9900012    2    1    2    0    0 -0.12460597208E+02  0.18322031747E+02  0.34091089903E+02  0.50528859073E+02  0.29999997639E+02 0.  0.
        -12    1    1    2    0    0  0.12460597208E+02 -0.18322031747E+02 -0.34091089903E+02  0.40659140927E+02  0.00000000000E+00 0.  1.
         11    1    3    3    0    0 -0.35221259687E+00  0.84578134805E+01  0.79281808682E+01  0.11598047884E+02  0.51100000000E-03 0. -1.
        -11    1    3    3    0    0  0.59579756136E+01  0.46796050758E+00  0.26037023793E+00  0.59819940965E+01  0.51100000000E-03 0.  1.
         12    1    3    3    0    0 -0.18066360225E+02  0.93962577586E+01  0.25902538797E+02  0.32948817092E+02  0.00000000000E+00 0. -1.
</event>
<event>
 7    1  0.5005325E-012  0.5052887E+02  0.7816164E-02  0.1300439E+00
        -11   -1    0    0    0    0  0.00000000000E+00  0.00000000000E+00  0.45593999997E+02  0.45594000000E+02  0.51100000000E-03 0. -1.
         11   -1    0    0    0    0 -0.00000000000E+00 -0.00000000000E+00 -0.45593999997E+02  0.45594000000E+02  0.51100000000E-03 0.  1.
    9900012    2    1    2    0    0  0.14053059838E+02  0.23516794678E+02  0.30043916670E+02  0.50528867550E+02  0.30000023404E+02 0.  0.
        -12    1    1    2    0    0 -0.14053059838E+02 -0.23516794678E+02 -0.30043916670E+02  0.40659132450E+02  0.00000000000E+00 0.  1.
         11    1    3    3    0    0  0.15137335513E+02  0.44237253711E+01  0.11745006207E+02  0.19663505376E+02  0.51100000000E-03 0. -1.
        -11    1    3    3    0    0  0.45413370275E+00  0.96513462681E+01 -0.60274405283E+00  0.96808069324E+01  0.51100000000E-03 0.  1.
        -12    1    3    3    0    0 -0.15384093777E+01  0.94417230392E+01  0.18901654515E+02  0.21184555242E+02  0.00000000000E+00 0.  1.
</event>
<event>
 7    1  0.5005325E-012  0.5052887E+02  0.7816164E-02  0.1300439E+00
        -11   -1    0    0    0    0  0.00000000000E+00  0.00000000000E+00  0.45593999997E+02  0.45594000000E+02  0.51100000000E-03 0. -1.
         11   -1    0    0    0    0 -0.00000000000E+00 -0.00000000000E+00 -0.45593999997E+02  0.45594000000E+02  0.51100000000E-03 0.  1.
    9900012    2    1    2    0    0  0.22999206507E+02 -0.13397678762E+01 -0.33502335395E+02  0.50528868740E+02  0.30000027021E+02 0.  0.
         12    1    1    2    0    0 -0.22999206507E+02  0.13397678762E+01  0.33502335395E+02  0.40659131260E+02  0.00000000000E+00 0. -1.
         11    1    3    3    0    0  0.24529570170E+01  0.62124588644E+01 -0.28256785403E+01  0.72523170604E+01  0.51100000000E-03 0. -1.
        -11    1    3    3    0    0  0.17568172025E+02 -0.10528998681E+02 -0.11188010349E+02  0.23338210244E+02  0.51100000000E-03 0.  1.
         12    1    3    3    0    0  0.29780774643E+01  0.29767719407E+01 -0.19488646506E+02  0.19938341436E+02  0.00000000000E+00 0. -1.
</event>
<event>
 7    1  0.5005325E-012  0.5052890E+02  0.7816164E-02  0.1300439E+00
        -11   -1    0    0    0    0  0.00000000000E+00  0.00000000000E+00  0.45593999997E+02  0.45594000000E+02  0.51100000000E-03 0. -1.
         11   -1    0    0    0    0 -0.00000000000E+00 -0.00000000000E+00 -0.45593999997E+02  0.45594000000E+02  0.51100000000E-03 0.  1.
    9900012    2    1    2    0    0  0.27937600211E+02  0.11118279760E+02  0.27368536041E+02  0.50528899968E+02  0.30000121943E+02 0.  0.
        -12    1    1    2    0    0 -0.27937600211E+02 -0.11118279760E+02 -0.27368536041E+02  0.40659100032E+02  0.00000000000E+00 0.  1.
         11    1    3    3    0    0  0.13799068873E+02  0.15375133142E+00  0.92358671128E+01  0.16605396196E+02  0.51100000000E-03 0. -1.
        -11    1    3    3    0    0  0.84094603549E+01 -0.54324846336E+00 -0.32023865940E+01  0.90149554914E+01  0.51100000000E-03 0.  1.
         12    1    3    3    0    0  0.57290709830E+01  0.11507776892E+02  0.21335055522E+02  0.24908548281E+02  0.00000000000E+00 0. -1.
</event>
<event>
 7    1  0.5005325E-012  0.5052893E+02  0.7816164E-02  0.1300439E+00
        -11   -1    0    0    0    0  0.00000000000E+00  0.00000000000E+00  0.45593999997E+02  0.45594000000E+02  0.51100000000E-03 0. -1.
         11   -1    0    0    0    0 -0.00000000000E+00 -0.00000000000E+00 -0.45593999997E+02  0.45594000000E+02  0.51100000000E-03 0.  1.
    9900012    2    1    2    0    0 -0.22113789710E+02 -0.10868589503E+02 -0.32342140664E+02  0.50528929722E+02  0.30000212383E+02 0.  0.
         12    1    1    2    0    0  0.22113789710E+02  0.10868589503E+02  0.32342140664E+02  0.40659070278E+02  0.00000000000E+00 0. -1.
         11    1    3    3    0    0 -0.12380076926E+01  0.59708419234E+01 -0.12763527742E+01  0.62299833858E+01  0.51100000000E-03 0. -1.
        -11    1    3    3    0    0 -0.36976606597E+01 -0.95710990542E+01 -0.31651635372E+01  0.10737639030E+02  0.51100000000E-03 0.  1.
        -12    1    3    3    0    0 -0.17178121358E+02 -0.72683323722E+01 -0.27900624352E+02  0.33561307306E+02  0.00000000000E+00 0.  1.
</event>
<event>
 7    1  0.5005325E-012  0.5052886E+02  0.7816164E-02  0.1300439E+00
        -11   -1    0    0    0    0  0.00000000000E+00  0.00000000000E+00  0.45593999997E+02  0.45594000000E+02  0.51100000000E-03 0. -1.
         11   -1    0    0    0    0 -0.00000000000E+00 -0.00000000000E+00 -0.45593999997E+02  0.45594000000E+02  0.51100000000E-03 0.  1.
    9900012    2    1    2    0    0 -0.14401539171E+02 -0.12593881748E+02  0.35876946999E+02  0.50528861865E+02  0.30000006123E+02 0.  0.
        -12    1    1    2    0    0  0.14401539171E+02  0.12593881748E+02 -0.35876946999E+02  0.40659138135E+02  0.00000000000E+00 0.  1.
         11    1    3    3    0    0  0.56188840994E+00  0.33267265039E+01  0.11583036521E+02  0.12064392365E+02  0.51100000000E-03 0. -1.
        -11    1    3    3    0    0 -0.95074938560E+01 -0.14971566035E+01 -0.76448907340E-01  0.96249551694E+01  0.51100000000E-03 0.  1.
         12    1    3    3    0    0 -0.54559337248E+01 -0.14423451649E+02  0.24370359385E+02  0.28839514330E+02  0.00000000000E+00 0. -1.
</event>
<event>
 7    1  0.5005325E-012  0.5052887E+02  0.7816164E-02  0.1300439E+00
        -11   -1    0    0    0    0  0.00000000000E+00  0.00000000000E+00  0.45593999997E+02  0.45594000000E+02  0.51100000000E-03 0. -1.
         11   -1    0    0    0    0 -0.00000000000E+00 -0.00000000000E+00 -0.45593999997E+02  0.45594000000E+02  0.51100000000E-03 0.  1.
    9900012    2    1    2    0    0  0.30813446490E+01  0.58646519013E+01  0.40115787280E+02  0.50528865530E+02  0.30000017266E+02 0.  0.
        -12    1    1    2    0    0 -0.30813446490E+01 -0.58646519013E+01 -0.40115787280E+02  0.40659134470E+02  0.00000000000E+00 0.  1.
         11    1    3    3    0    0 -0.85592619975E+00  0.10513488521E+02  0.37570861533E+02  0.39023527354E+02  0.51100000000E-03 0. -1.
        -11    1    3    3    0    0 -0.23537280617E+01 -0.23138022403E+01  0.34025749895E+01  0.47403832562E+01  0.51100000000E-03 0.  1.
        -12    1    3    3    0    0  0.62909989105E+01 -0.23350343798E+01 -0.85764924313E+00  0.67649549200E+01  0.00000000000E+00 0.  1.
</event>
<event>
 7    1  0.5005325E-012  0.5052886E+02  0.7816164E-02  0.1300439E+00
        -11   -1    0    0    0    0  0.00000000000E+00  0.00000000000E+00  0.45593999997E+02  0.45594000000E+02  0.51100000000E-03 0. -1.
         11   -1    0    0    0    0 -0.00000000000E+00 -0.00000000000E+00 -0.45593999997E+02  0.45594000000E+02  0.51100000000E-03 0.  1.
    9900012    2    1    2    0    0  0.26502764455E+01  0.64819074307E+01  0.40051545675E+02  0.50528863264E+02  0.30000010376E+02 0.  0.
        -12    1    1    2    0    0 -0.26502764455E+01 -0.64819074307E+01 -0.40051545675E+02  0.40659136736E+02  0.00000000000E+00 0.  1.
         11    1    3    3    0    0 -0.29125500273E+01  0.89805098104E+01  0.85929445488E+01  0.12766017405E+02  0.51100000000E-03 0. -1.
        -11    1    3    3    0    0 -0.33836361539E+01 -0.56805899533E+00 -0.13609275648E+01  0.36910443971E+01  0.51100000000E-03 0.  1.
        -12    1    3    3    0    0  0.89464626267E+01 -0.19305433844E+01  0.32819528691E+02  0.34071801461E+02  0.00000000000E+00 0.  1.
</event>
<event>
 7    1  0.5005325E-012  0.5052893E+02  0.7816164E-02  0.1300439E+00
        -11   -1    0    0    0    0  0.00000000000E+00  0.00000000000E+00  0.45593999997E+02  0.45594000000E+02  0.51100000000E-03 0. -1.
         11   -1    0    0    0    0 -0.00000000000E+00 -0.00000000000E+00 -0.45593999997E+02  0.45594000000E+02  0.51100000000E-03 0.  1.
    9900012    2    1    2    0    0 -0.11209567866E+02 -0.16631598123E+02  0.35367998937E+02  0.50528931926E+02  0.30000219081E+02 0.  0.
        -12    1    1    2    0    0  0.11209567866E+02  0.16631598123E+02 -0.35367998937E+02  0.40659068074E+02  0.00000000000E+00 0.  1.
         11    1    3    3    0    0  0.35500545176E+01  0.35946632215E+01  0.76000676509E+01  0.91260900343E+01  0.51100000000E-03 0.  1.
        -11    1    3    3    0    0 -0.15463681562E+02 -0.79934530763E+01  0.21425309103E+02  0.27605517744E+02  0.51100000000E-03 0. -1.
         12    1    3    3    0    0  0.70405917815E+00 -0.12232808268E+02  0.63426221831E+01  0.13797324147E+02  0.00000000000E+00 0. -1.
</event>
<event>
 7    1  0.5005325E-012  0.5052887E+02  0.7816164E-02  0.1300439E+00
        -11   -1    0    0    0    0  0.00000000000E+00  0.00000000000E+00  0.45593999997E+02  0.45594000000E+02  0.51100000000E-03 0. -1.
         11   -1    0    0    0    0 -0.00000000000E+00 -0.00000000000E+00 -0.45593999997E+02  0.45594000000E+02  0.51100000000E-03 0.  1.
    9900012    2    1    2    0    0  0.61187281911E+01  0.12059431313E+02  0.38344439585E+02  0.50528871070E+02  0.30000034103E+02 0.  0.
        -12    1    1    2    0    0 -0.61187281911E+01 -0.12059431313E+02 -0.38344439585E+02  0.40659128930E+02  0.00000000000E+00 0.  1.
         11    1    3    3    0    0  0.77067541252E+01 -0.20878975628E+00  0.30946450421E+02  0.31892325820E+02  0.51100000000E-03 0. -1.
        -11    1    3    3    0    0  0.32812343805E+01  0.47999273340E+00  0.44435247347E+01  0.55445292328E+01  0.51100000000E-03 0.  1.
         12    1    3    3    0    0 -0.48692603147E+01  0.11788228336E+02  0.29544644294E+01  0.13092016017E+02  0.00000000000E+00 0. -1.
</event>
<event>
 7    1  0.5005325E-012  0.5052886E+02  0.7816164E-02  0.1300439E+00
        -11   -1    0    0    0    0  0.00000000000E+00  0.00000000000E+00  0.45593999997E+02  0.45594000000E+02  0.51100000000E-03 0. -1.
         11   -1    0    0    0    0 -0.00000000000E+00 -0.00000000000E+00 -0.45593999997E+02  0.45594000000E+02  0.51100000000E-03 0.  1.
    9900012    2    1    2    0    0  0.99270673555E+01  0.30675503076E+02  0.24771608473E+02  0.50528859065E+02  0.29999997613E+02 0.  0.
        -12    1    1    2    0    0 -0.99270673555E+01 -0.30675503076E+02 -0.24771608473E+02  0.40659140935E+02  0.00000000000E+00 0.  1.
         11    1    3    3    0    0  0.49497121396E+01  0.28035359670E+02  0.17621204708E+02  0.33481157353E+02  0.51100000000E-03 0. -1.
        -11    1    3    3    0    0 -0.50269853907E+01 -0.32771269936E+00  0.24782555151E+01  0.56142433499E+01  0.51100000000E-03 0.  1.
         12    1    3    3    0    0  0.10004340607E+02  0.29678561057E+01  0.46721482497E+01  0.11433458362E+02  0.00000000000E+00 0. -1.
</event>
<event>
 7    1  0.5005325E-012  0.5052886E+02  0.7816164E-02  0.1300439E+00
        -11   -1    0    0    0    0  0.00000000000E+00  0.00000000000E+00  0.45593999997E+02  0.45594000000E+02  0.51100000000E-03 0. -1.
         11   -1    0    0    0    0 -0.00000000000E+00 -0.00000000000E+00 -0.45593999997E+02  0.45594000000E+02  0.51100000000E-03 0.  1.
    9900012    2    1    2    0    0  0.61875441897E+01  0.72560381110E+01 -0.39525057289E+02  0.50528856552E+02  0.29999989977E+02 0.  0.
         12    1    1    2    0    0 -0.61875441897E+01 -0.72560381110E+01  0.39525057289E+02  0.40659143448E+02  0.00000000000E+00 0. -1.
         11    1    3    3    0    0 -0.13652239588E+00 -0.32779091584E+01 -0.10216450966E+01  0.34361440278E+01  0.51100000000E-03 0. -1.
        -11    1    3    3    0    0 -0.49943410613E+01 -0.96902134481E+00 -0.26490742815E+02  0.26974838279E+02  0.51100000000E-03 0.  1.
        -12    1    3    3    0    0  0.11318407647E+02  0.11502968614E+02 -0.12012669378E+02  0.20117874246E+02  0.00000000000E+00 0.  1.
</event>
<event>
 7    1  0.5005325E-012  0.5052886E+02  0.7816164E-02  0.1300439E+00
        -11   -1    0    0    0    0  0.00000000000E+00  0.00000000000E+00  0.45593999997E+02  0.45594000000E+02  0.51100000000E-03 0. -1.
         11   -1    0    0    0    0 -0.00000000000E+00 -0.00000000000E+00 -0.45593999997E+02  0.45594000000E+02  0.51100000000E-03 0.  1.
    9900012    2    1    2    0    0  0.30663185835E+02  0.99064461953E+01  0.24795102155E+02  0.50528859175E+02  0.29999997949E+02 0.  0.
        -12    1    1    2    0    0 -0.30663185835E+02 -0.99064461953E+01 -0.24795102155E+02  0.40659140825E+02  0.00000000000E+00 0.  1.
         11    1    3    3    0    0  0.50488706460E+01  0.11827386349E+02  0.62569452521E+01  0.14301312065E+02  0.51100000000E-03 0. -1.
        -11    1    3    3    0    0  0.14992757086E+01 -0.35294379094E+01 -0.21652530991E+01  0.44037575831E+01  0.51100000000E-03 0.  1.
         12    1    3    3    0    0  0.24115039480E+02  0.16084977561E+01  0.20703410002E+02  0.31823789527E+02  0.00000000000E+00 0. -1.
</event>
<event>
 7    1  0.5005325E-012  0.5052886E+02  0.7816164E-02  0.1300439E+00
        -11   -1    0    0    0    0  0.00000000000E+00  0.00000000000E+00  0.45593999997E+02  0.45594000000E+02  0.51100000000E-03 0. -1.
         11   -1    0    0    0    0 -0.00000000000E+00 -0.00000000000E+00 -0.45593999997E+02  0.45594000000E+02  0.51100000000E-03 0.  1.
    9900012    2    1    2    0    0  0.19714018699E+02 -0.13350351964E+02 -0.32958935942E+02  0.50528857249E+02  0.29999992095E+02 0.  0.
         12    1    1    2    0    0 -0.19714018699E+02  0.13350351964E+02  0.32958935942E+02  0.40659142751E+02  0.00000000000E+00 0. -1.
         11    1    3    3    0    0 -0.43403185761E+01 -0.56450551371E+01 -0.15879927361E+02  0.17403364793E+02  0.51100000000E-03 0. -1.
        -11    1    3    3    0    0  0.23425814383E+01 -0.48684894948E+01 -0.74565382508E+01  0.92081399155E+01  0.51100000000E-03 0.  1.
         12    1    3    3    0    0  0.21711755837E+02 -0.28368073317E+01 -0.96224703293E+01  0.23917352541E+02  0.00000000000E+00 0. -1.
</event>
<event>
 7    1  0.5005325E-012  0.5052886E+02  0.7816164E-02  0.1300439E+00
        -11   -1    0    0    0    0  0.00000000000E+00  0.00000000000E+00  0.45593999997E+02  0.45594000000E+02  0.51100000000E-03 0. -1.
         11   -1    0    0    0    0 -0.00000000000E+00 -0.00000000000E+00 -0.45593999997E+02  0.45594000000E+02  0.51100000000E-03 0.  1.
    9900012    2    1    2    0    0  0.15009064102E+01 -0.14147093066E+02  0.38089010719E+02  0.50528859578E+02  0.29999999174E+02 0.  0.
        -12    1    1    2    0    0 -0.15009064102E+01  0.14147093066E+02 -0.38089010719E+02  0.40659140422E+02  0.00000000000E+00 0.  1.
         11    1    3    3    0    0  0.63727980639E+01 -0.29020872785E+01  0.15447158344E+02  0.16960228975E+02  0.51100000000E-03 0. -1.
        -11    1    3    3    0    0 -0.54368914685E+01  0.54514384106E+01  0.99893318649E+01  0.12612086305E+02  0.51100000000E-03 0.  1.
         12    1    3    3    0    0  0.56499981482E+00 -0.16696444199E+02  0.12652520511E+02  0.20956544299E+02  0.00000000000E+00 0. -1.
</event>
<event>
 7    1  0.5005325E-012  0.5052885E+02  0.7816164E-02  0.1300439E+00
        -11   -1    0    0    0    0  0.00000000000E+00  0.00000000000E+00  0.45593999997E+02  0.45594000000E+02  0.51100000000E-03 0. -1.
         11   -1    0    0    0    0 -0.00000000000E+00 -0.00000000000E+00 -0.45593999997E+02  0.45594000000E+02  0.51100000000E-03 0.  1.
    9900012    2    1    2    0    0 -0.28644908873E+02  0.13467694713E+02  0.25519728037E+02  0.50528854358E+02  0.29999983308E+02 0.  0.
        -12    1    1    2    0    0  0.28644908873E+02 -0.13467694713E+02 -0.25519728037E+02  0.40659145642E+02  0.00000000000E+00 0.  1.
         11    1    3    3    0    0 -0.14474753835E+02  0.72339268248E+01  0.25987791659E+01  0.16389077134E+02  0.51100000000E-03 0. -1.
        -11    1    3    3    0    0 -0.16215475158E+02 -0.19266320638E+01  0.11578249121E+02  0.20017727111E+02  0.51100000000E-03 0.  1.
        -12    1    3    3    0    0  0.20453201212E+01  0.81603999517E+01  0.11342699750E+02  0.14122050113E+02  0.00000000000E+00 0.  1.
</event>
<event>
 7    1  0.5005325E-012  0.5052885E+02  0.7816164E-02  0.1300439E+00
        -11   -1    0    0    0    0  0.00000000000E+00  0.00000000000E+00  0.45593999997E+02  0.45594000000E+02  0.51100000000E-03 0. -1.
         11   -1    0    0    0    0 -0.00000000000E+00 -0.00000000000E+00 -0.45593999997E+02  0.45594000000E+02  0.51100000000E-03 0.  1.
    9900012    2    1    2    0    0 -0.14381668217E+02  0.30915857222E+02 -0.22148217022E+02  0.50528854341E+02  0.29999983255E+02 0.  0.
         12    1    1    2    0    0  0.14381668217E+02 -0.30915857222E+02  0.22148217022E+02  0.40659145659E+02  0.00000000000E+00 0. -1.
         11    1    3    3    0    0 -0.62628417011E+01  0.24354868287E+00 -0.80202156105E+01  0.10178720982E+02  0.51100000000E-03 0. -1.
        -11    1    3    3    0    0 -0.13479759467E+02  0.29158657177E+02 -0.10960711874E+02  0.33942133237E+02  0.51100000000E-03 0.  1.
         12    1    3    3    0    0  0.53609329503E+01  0.15136513617E+01 -0.31672895372E+01  0.64080001214E+01  0.00000000000E+00 0. -1.
</event>
<event>
 7    1  0.5005325E-012  0.5052886E+02  0.7816164E-02  0.1300439E+00
        -11   -1    0    0    0    0  0.00000000000E+00  0.00000000000E+00  0.45593999997E+02  0.45594000000E+02  0.51100000000E-03 0. -1.
         11   -1    0    0    0    0 -0.00000000000E+00 -0.00000000000E+00 -0.45593999997E+02  0.45594000000E+02  0.51100000000E-03 0.  1.
    9900012    2    1    2    0    0  0.19182350119E+01  0.11775735017E+02 -0.38869241991E+02  0.50528861621E+02  0.30000005384E+02 0.  0.
         12    1    1    2    0    0 -0.19182350119E+01 -0.11775735017E+02  0.38869241991E+02  0.40659138379E+02  0.00000000000E+00 0. -1.
         11    1    3    3    0    0  0.65055860829E+01  0.52508216189E+01 -0.23129623483E+01  0.86743053349E+01  0.51100000000E-03 0. -1.
        -11    1    3    3    0    0 -0.23927838201E+01  0.12786128173E+02 -0.29092434173E+02  0.31868169299E+02  0.51100000000E-03 0.  1.
        -12    1    3    3    0    0 -0.21945672509E+01 -0.62612147747E+01 -0.74638454695E+01  0.99863869876E+01  0.00000000000E+00 0.  1.
</event>
<event>
 7    1  0.5005325E-012  0.5052886E+02  0.7816164E-02  0.1300439E+00
        -11   -1    0    0    0    0  0.00000000000E+00  0.00000000000E+00  0.45593999997E+02  0.45594000000E+02  0.51100000000E-03 0. -1.
         11   -1    0    0    0    0 -0.00000000000E+00 -0.00000000000E+00 -0.45593999997E+02  0.45594000000E+02  0.51100000000E-03 0.  1.
    9900012    2    1    2    0    0 -0.13647798500E+02 -0.38275153449E+02  0.13842612556E+01  0.50528856444E+02  0.29999989647E+02 0.  0.
         12    1    1    2    0    0  0.13647798500E+02  0.38275153449E+02 -0.13842612556E+01  0.40659143556E+02  0.00000000000E+00 0. -1.
         11    1    3    3    0    0 -0.77992922724E+01 -0.64999763306E+01 -0.38409976299E+01  0.10855041009E+02  0.51100000000E-03 0. -1.
        -11    1    3    3    0    0  0.77794184404E-01 -0.19633142138E+02 -0.75923149080E+01  0.21050167887E+02  0.51100000000E-03 0.  1.
         12    1    3    3    0    0 -0.59263004125E+01 -0.12142034981E+02  0.12817573793E+02  0.18623647549E+02  0.00000000000E+00 0. -1.
</event>
<event>
 7    1  0.1004312E-011  0.5052893E+02  0.7816164E-02  0.1300439E+00
        -11   -1    0    0    0    0  0.00000000000E+00  0.00000000000E+00  0.45593999997E+02  0.45594000000E+02  0.51100000000E-03 0. -1.
         11   -1    0    0    0    0 -0.00000000000E+00 -0.00000000000E+00 -0.45593999997E+02  0.45594000000E+02  0.51100000000E-03 0.  1.
    9900012    2    1    2    0    0 -0.12706015453E+02 -0.58417823577E+01  0.38178402166E+02  0.50528934077E+02  0.30000225619E+02 0.  0.
        -12    1    1    2    0    0  0.12706015453E+02  0.58417823577E+01 -0.38178402166E+02  0.40659065923E+02  0.00000000000E+00 0.  1.
         11    1    3    3    0    0 -0.48519292038E+01 -0.55567873878E+01  0.19789845737E+02  0.21120063865E+02  0.51100000000E-03 0. -1.
        -11    1    3    3    0    0  0.64758623619E+01 -0.21088985752E+01  0.11591209251E+02  0.13443971834E+02  0.51100000000E-03 0.  1.
        -12    1    3    3    0    0 -0.14329948611E+02  0.18239036053E+01  0.67973471778E+01  0.15964898378E+02  0.00000000000E+00 0.  1.
</event>
<event>
 7    1  0.5005325E-012  0.5052886E+02  0.7816164E-02  0.1300439E+00
        -11   -1    0    0    0    0  0.00000000000E+00  0.00000000000E+00  0.45593999997E+02  0.45594000000E+02  0.51100000000E-03 0. -1.
         11   -1    0    0    0    0 -0.00000000000E+00 -0.00000000000E+00 -0.45593999997E+02  0.45594000000E+02  0.51100000000E-03 0.  1.
    9900012    2    1    2    0    0 -0.37087871888E+02 -0.16649789169E+02 -0.66315417617E+00  0.50528862109E+02  0.30000006867E+02 0.  0.
         12    1    1    2    0    0  0.37087871888E+02  0.16649789169E+02  0.66315417617E+00  0.40659137891E+02  0.00000000000E+00 0. -1.
         11    1    3    3    0    0  0.14393826426E+01 -0.45729314810E+01  0.43315908574E+01  0.64611302679E+01  0.51100000000E-03 0. -1.
        -11    1    3    3    0    0 -0.18140752436E+02 -0.24319979817E+01  0.56134585412E+01  0.19144514363E+02  0.51100000000E-03 0.  1.
        -12    1    3    3    0    0 -0.20386502095E+02 -0.96448597066E+01 -0.10608203575E+02  0.24923217479E+02  0.00000000000E+00 0.  1.
</event>
<event>
 7    1  0.5005325E-012  0.5052887E+02  0.7816164E-02  0.1300439E+00
        -11   -1    0    0    0    0  0.00000000000E+00  0.00000000000E+00  0.45593999997E+02  0.45594000000E+02  0.51100000000E-03 0. -1.
         11   -1    0    0    0    0 -0.00000000000E+00 -0.00000000000E+00 -0.45593999997E+02  0.45594000000E+02  0.51100000000E-03 0.  1.
    9900012    2    1    2    0    0  0.26219698042E+02  0.20691202912E+02  0.23185471439E+02  0.50528873973E+02  0.30000042929E+02 0.  0.
        -12    1    1    2    0    0 -0.26219698042E+02 -0.20691202912E+02 -0.23185471439E+02  0.40659126027E+02  0.00000000000E+00 0.  1.
         11    1    3    3    0    0  0.13597554555E+02  0.50043089242E+01  0.11544354397E+02  0.18525893134E+02  0.51100000000E-03 0. -1.
        -11    1    3    3    0    0  0.13903436971E+02  0.98230436198E-01  0.76121257006E+01  0.15851172410E+02  0.51100000000E-03 0.  1.
         12    1    3    3    0    0 -0.12812934832E+01  0.15588663552E+02  0.40289913414E+01  0.16151808430E+02  0.00000000000E+00 0. -1.
</event>
<event>
 7    1  0.5005325E-012  0.5052886E+02  0.7816164E-02  0.1300439E+00
        -11   -1    0    0    0    0  0.00000000000E+00  0.00000000000E+00  0.45593999997E+02  0.45594000000E+02  0.51100000000E-03 0. -1.
         11   -1    0    0    0    0 -0.00000000000E+00 -0.00000000000E+00 -0.45593999997E+02  0.45594000000E+02  0.51100000000E-03 0.  1.
    9900012    2    1    2    0    0  0.33331579736E+02  0.67973683039E+01  0.22270329703E+02  0.50528855781E+02  0.29999987632E+02 0.  0.
        -12    1    1    2    0    0 -0.33331579736E+02 -0.67973683039E+01 -0.22270329703E+02  0.40659144219E+02  0.00000000000E+00 0.  1.
         11    1    3    3    0    0  0.10228599702E+02  0.75260531994E+01  0.69679521465E+01  0.14485098757E+02  0.51100000000E-03 0. -1.
        -11    1    3    3    0    0 -0.31820321393E+01  0.43509051234E+01  0.40241716374E+00  0.54053347504E+01  0.51100000000E-03 0.  1.
         12    1    3    3    0    0  0.26285012174E+02 -0.50795900189E+01  0.14899960393E+02  0.30638422274E+02  0.00000000000E+00 0. -1.
</event>
<event>
 7    1  0.5005325E-012  0.5052888E+02  0.7816164E-02  0.1300439E+00
        -11   -1    0    0    0    0  0.00000000000E+00  0.00000000000E+00  0.45593999997E+02  0.45594000000E+02  0.51100000000E-03 0. -1.
         11   -1    0    0    0    0 -0.00000000000E+00 -0.00000000000E+00 -0.45593999997E+02  0.45594000000E+02  0.51100000000E-03 0.  1.
    9900012    2    1    2    0    0  0.67278638009E+01 -0.61946476639E+01  0.39617250117E+02  0.50528876574E+02  0.30000050833E+02 0.  0.
        -12    1    1    2    0    0 -0.67278638009E+01  0.61946476639E+01 -0.39617250117E+02  0.40659123426E+02  0.00000000000E+00 0.  1.
         11    1    3    3    0    0  0.78586129363E+01 -0.13783710052E+02  0.13576493614E+02  0.20882280508E+02  0.51100000000E-03 0. -1.
        -11    1    3    3    0    0  0.11853703059E+00  0.98568521046E+00 -0.12181443707E+01  0.15714650269E+01  0.51100000000E-03 0.  1.
         12    1    3    3    0    0 -0.12492861660E+01  0.66033771773E+01  0.27258900873E+02  0.28075131039E+02  0.00000000000E+00 0. -1.
</event>
<event>
 7    1  0.5005325E-012  0.5052887E+02  0.7816164E-02  0.1300439E+00
        -11   -1    0    0    0    0  0.00000000000E+00  0.00000000000E+00  0.45593999997E+02  0.45594000000E+02  0.51100000000E-03 0. -1.
         11   -1    0    0    0    0 -0.00000000000E+00 -0.00000000000E+00 -0.45593999997E+02  0.45594000000E+02  0.51100000000E-03 0.  1.
    9900012    2    1    2    0    0  0.29420182750E+01 -0.26106798568E+02  0.31031349775E+02  0.50528867300E+02  0.30000022646E+02 0.  0.
        -12    1    1    2    0    0 -0.29420182750E+01  0.26106798568E+02 -0.31031349775E+02  0.40659132700E+02  0.00000000000E+00 0.  1.
         11    1    3    3    0    0  0.17460144450E+01 -0.10628756740E+02  0.10262300075E+02  0.14877292743E+02  0.51100000000E-03 0. -1.
        -11    1    3    3    0    0  0.54393208263E+01 -0.13214183664E+02 -0.44119360995E-01  0.14289954784E+02  0.51100000000E-03 0.  1.
         12    1    3    3    0    0 -0.42433169963E+01 -0.22638581639E+01  0.20813169062E+02  0.21361619773E+02  0.00000000000E+00 0. -1.
</event>
<event>
 7    1  0.5005325E-012  0.5052886E+02  0.7816164E-02  0.1300439E+00
        -11   -1    0    0    0    0  0.00000000000E+00  0.00000000000E+00  0.45593999997E+02  0.45594000000E+02  0.51100000000E-03 0. -1.
         11   -1    0    0    0    0 -0.00000000000E+00 -0.00000000000E+00 -0.45593999997E+02  0.45594000000E+02  0.51100000000E-03 0.  1.
    9900012    2    1    2    0    0  0.25456785081E+02 -0.74072604452E+01  0.30826127425E+02  0.50528861471E+02  0.30000004926E+02 0.  0.
        -12    1    1    2    0    0 -0.25456785081E+02  0.74072604452E+01 -0.30826127425E+02  0.40659138529E+02  0.00000000000E+00 0.  1.
         11    1    3    3    0    0  0.30236574161E+01  0.10775574887E+01  0.73160923919E+01  0.79892954920E+01  0.51100000000E-03 0. -1.
        -11    1    3    3    0    0  0.44337567141E+01 -0.49149588153E+01 -0.52333573354E+01  0.84381898542E+01  0.51100000000E-03 0.  1.
         12    1    3    3    0    0  0.17999370951E+02 -0.35698591186E+01  0.28743392368E+02  0.34101376124E+02  0.00000000000E+00 0. -1.
</event>
<event>
 7    1  0.5005325E-012  0.5052886E+02  0.7816164E-02  0.1300439E+00
        -11   -1    0    0    0    0  0.00000000000E+00  0.00000000000E+00  0.45593999997E+02  0.45594000000E+02  0.51100000000E-03 0. -1.
         11   -1    0    0    0    0 -0.00000000000E+00 -0.00000000000E+00 -0.45593999997E+02  0.45594000000E+02  0.51100000000E-03 0.  1.
    9900012    2    1    2    0    0 -0.36936822524E+02 -0.12571818888E+02  0.11436186000E+02  0.50528857872E+02  0.29999993989E+02 0.  0.
        -12    1    1    2    0    0  0.36936822524E+02  0.12571818888E+02 -0.11436186000E+02  0.40659142128E+02  0.00000000000E+00 0.  1.
         11    1    3    3    0    0 -0.28376417831E+01 -0.78914923913E-02 -0.58876780204E+01  0.65358263363E+01  0.51100000000E-03 0. -1.
        -11    1    3    3    0    0 -0.45186548823E+01 -0.20978048377E+01  0.10872016777E+02  0.11959087597E+02  0.51100000000E-03 0.  1.
         12    1    3    3    0    0 -0.29580525859E+02 -0.10466122558E+02  0.64518472433E+01  0.32033943939E+02  0.00000000000E+00 0. -1.
</event>
<event>
 7    1  0.5005325E-012  0.5052887E+02  0.7816164E-02  0.1300439E+00
        -11   -1    0    0    0    0  0.00000000000E+00  0.00000000000E+00  0.45593999997E+02  0.45594000000E+02  0.51100000000E-03 0. -1.
         11   -1    0    0    0    0 -0.00000000000E+00 -0.00000000000E+00 -0.45593999997E+02  0.45594000000E+02  0.51100000000E-03 0.  1.
    9900012    2    1    2    0    0  0.13968974088E+02  0.28895490832E+02  0.24961637889E+02  0.50528868263E+02  0.30000025572E+02 0.  0.
        -12    1    1    2    0    0 -0.13968974088E+02 -0.28895490832E+02 -0.24961637889E+02  0.40659131737E+02  0.00000000000E+00 0.  1.
         11    1    3    3    0    0 -0.39269698753E+01  0.15036682263E+01  0.46681610758E+01  0.62828209132E+01  0.51100000000E-03 0. -1.
        -11    1    3    3    0    0  0.88231778814E+01 -0.10036581337E+01  0.81655881665E+01  0.12063690478E+02  0.51100000000E-03 0.  1.
        -12    1    3    3    0    0  0.90727660823E+01  0.28395480740E+02  0.12127888647E+02  0.32182356872E+02  0.00000000000E+00 0.  1.
</event>
<event>
 7    1  0.5005325E-012  0.5052886E+02  0.7816164E-02  0.1300439E+00
        -11   -1    0    0    0    0  0.00000000000E+00  0.00000000000E+00  0.45593999997E+02  0.45594000000E+02  0.51100000000E-03 0. -1.
         11   -1    0    0    0    0 -0.00000000000E+00 -0.00000000000E+00 -0.45593999997E+02  0.45594000000E+02  0.51100000000E-03 0.  1.
    9900012    2    1    2    0    0 -0.25177699888E+02 -0.30338049149E+02 -0.99424274526E+01  0.50528860050E+02  0.30000000608E+02 0.  0.
         12    1    1    2    0    0  0.25177699888E+02  0.30338049149E+02  0.99424274526E+01  0.40659139950E+02  0.00000000000E+00 0. -1.
         11    1    3    3    0    0 -0.13717564875E+02 -0.10768480334E+02  0.19919869767E+01  0.17552770926E+02  0.51100000000E-03 0. -1.
        -11    1    3    3    0    0 -0.14748909858E+02 -0.93304695114E+01 -0.13557962964E+02  0.22099917721E+02  0.51100000000E-03 0.  1.
         12    1    3    3    0    0  0.32887748453E+01 -0.10239099303E+02  0.16235485345E+01  0.10876171402E+02  0.00000000000E+00 0. -1.
</event>
<event>
 7    1  0.5005325E-012  0.5052887E+02  0.7816164E-02  0.1300439E+00
        -11   -1    0    0    0    0  0.00000000000E+00  0.00000000000E+00  0.45593999997E+02  0.45594000000E+02  0.51100000000E-03 0.  1.
         11   -1    0    0    0    0 -0.00000000000E+00 -0.00000000000E+00 -0.45593999997E+02  0.45594000000E+02  0.51100000000E-03 0. -1.
    9900012    2    1    2    0    0  0.26237184139E+02 -0.29926885087E+02  0.83160544010E+01  0.50528867651E+02  0.30000023712E+02 0.  0.
        -12    1    1    2    0    0 -0.26237184139E+02  0.29926885087E+02 -0.83160544010E+01  0.40659132349E+02  0.00000000000E+00 0.  1.
         11    1    3    3    0    0  0.12999412374E+02 -0.28207890139E+02 -0.18186932524E+01  0.31112335714E+02  0.51100000000E-03 0.  1.
        -11    1    3    3    0    0  0.37038949742E+01 -0.43099661752E+01  0.70733397322E+01  0.90734106950E+01  0.51100000000E-03 0. -1.
        -12    1    3    3    0    0  0.95338767915E+01  0.25909712273E+01  0.30614079212E+01  0.10343121242E+02  0.00000000000E+00 0.  1.
</event>
<event>
 7    1  0.5005325E-012  0.5052884E+02  0.7816164E-02  0.1300439E+00
        -11   -1    0    0    0    0  0.00000000000E+00  0.00000000000E+00  0.45593999997E+02  0.45594000000E+02  0.51100000000E-03 0. -1.
         11   -1    0    0    0    0 -0.00000000000E+00 -0.00000000000E+00 -0.45593999997E+02  0.45594000000E+02  0.51100000000E-03 0.  1.
    9900012    2    1    2    0    0  0.26255492937E+02 -0.70843626713E+01  0.30226278134E+02  0.50528843667E+02  0.29999950811E+02 0.  0.
        -12    1    1    2    0    0 -0.26255492937E+02  0.70843626713E+01 -0.30226278134E+02  0.40659156333E+02  0.00000000000E+00 0.  1.
         11    1    3    3    0    0  0.21232079840E+02 -0.33471233243E+01  0.22419374063E+02  0.31058537998E+02  0.51100000000E-03 0.  1.
        -11    1    3    3    0    0  0.10042729146E+02 -0.48180834734E+01  0.88555557212E+01  0.14229940423E+02  0.51100000000E-03 0. -1.
        -12    1    3    3    0    0 -0.50193160495E+01  0.10808441264E+01 -0.10486516502E+01  0.52403652462E+01  0.00000000000E+00 0.  1.
</event>
<event>
 7    1  0.5005325E-012  0.5052887E+02  0.7816164E-02  0.1300439E+00
        -11   -1    0    0    0    0  0.00000000000E+00  0.00000000000E+00  0.45593999997E+02  0.45594000000E+02  0.51100000000E-03 0. -1.
         11   -1    0    0    0    0 -0.00000000000E+00 -0.00000000000E+00 -0.45593999997E+02  0.45594000000E+02  0.51100000000E-03 0.  1.
    9900012    2    1    2    0    0 -0.26162209395E+02 -0.13301082106E+02  0.28138666430E+02  0.50528873914E+02  0.30000042748E+02 0.  0.
        -12    1    1    2    0    0  0.26162209395E+02  0.13301082106E+02 -0.28138666430E+02  0.40659126086E+02  0.00000000000E+00 0.  1.
         11    1    3    3    0    0 -0.67571209684E+01 -0.31956774545E+01  0.20464654399E+01  0.77497780119E+01  0.51100000000E-03 0. -1.
        -11    1    3    3    0    0 -0.17646426934E+02  0.12758215927E-01  0.35391334872E+01  0.17997833547E+02  0.51100000000E-03 0.  1.
        -12    1    3    3    0    0 -0.17586614929E+01 -0.10118162868E+02  0.22553067503E+02  0.24781262354E+02  0.00000000000E+00 0.  1.
</event>
<event>
 7    1  0.5493666E-012  0.5052886E+02  0.7816164E-02  0.1300439E+00
        -11   -1    0    0    0    0  0.00000000000E+00  0.00000000000E+00  0.45593999997E+02  0.45594000000E+02  0.51100000000E-03 0. -1.
         11   -1    0    0    0    0 -0.00000000000E+00 -0.00000000000E+00 -0.45593999997E+02  0.45594000000E+02  0.51100000000E-03 0.  1.
    9900012    2    1    2    0    0 -0.16479335775E+02 -0.25090986362E+02  0.27423336563E+02  0.50528862129E+02  0.30000006927E+02 0.  0.
        -12    1    1    2    0    0  0.16479335775E+02  0.25090986362E+02 -0.27423336563E+02  0.40659137871E+02  0.00000000000E+00 0.  1.
         11    1    3    3    0    0 -0.58381351833E+01 -0.12906148996E+02  0.11329905866E+02  0.18138888376E+02  0.51100000000E-03 0. -1.
        -11    1    3    3    0    0  0.34427890225E+01 -0.10408633218E+02  0.43886764660E-01  0.10963319206E+02  0.51100000000E-03 0.  1.
        -12    1    3    3    0    0 -0.14083989614E+02 -0.17762041478E+01  0.16049543932E+02  0.21426654546E+02  0.00000000000E+00 0.  1.
</event>
<event>
 7    1  0.5005325E-012  0.5052886E+02  0.7816164E-02  0.1300439E+00
        -11   -1    0    0    0    0  0.00000000000E+00  0.00000000000E+00  0.45593999997E+02  0.45594000000E+02  0.51100000000E-03 0. -1.
         11   -1    0    0    0    0 -0.00000000000E+00 -0.00000000000E+00 -0.45593999997E+02  0.45594000000E+02  0.51100000000E-03 0.  1.
    9900012    2    1    2    0    0 -0.25987174427E+02 -0.50969688496E+01  0.30852121153E+02  0.50528859505E+02  0.29999998952E+02 0.  0.
        -12    1    1    2    0    0  0.25987174427E+02  0.50969688496E+01 -0.30852121153E+02  0.40659140495E+02  0.00000000000E+00 0.  1.
         11    1    3    3    0    0  0.28562177167E+01 -0.11759732456E+01  0.11303878513E+02  0.11718300321E+02  0.51100000000E-03 0. -1.
        -11    1    3    3    0    0 -0.20008825714E+01  0.60029139520E+00 -0.28678806005E+01  0.35480445633E+01  0.51100000000E-03 0.  1.
        -12    1    3    3    0    0 -0.26842509572E+02 -0.45212869993E+01  0.22416123241E+02  0.35262514621E+02  0.00000000000E+00 0.  1.
</event>
<event>
 7    1  0.5005325E-012  0.5052886E+02  0.7816164E-02  0.1300439E+00
        -11   -1    0    0    0    0  0.00000000000E+00  0.00000000000E+00  0.45593999997E+02  0.45594000000E+02  0.51100000000E-03 0.  1.
         11   -1    0    0    0    0 -0.00000000000E+00 -0.00000000000E+00 -0.45593999997E+02  0.45594000000E+02  0.51100000000E-03 0. -1.
    9900012    2    1    2    0    0 -0.23687191253E+02 -0.25506325159E+02  0.21012147004E+02  0.50528856203E+02  0.29999988915E+02 0.  0.
        -12    1    1    2    0    0  0.23687191253E+02  0.25506325159E+02 -0.21012147004E+02  0.40659143797E+02  0.00000000000E+00 0.  1.
         11    1    3    3    0    0 -0.82111502894E+01 -0.91764940544E-01  0.30028801368E+01  0.87434946822E+01  0.51100000000E-03 0. -1.
        -11    1    3    3    0    0  0.52540970391E+01 -0.79920300139E+01  0.92989870217E+01  0.13339761592E+02  0.51100000000E-03 0.  1.
         12    1    3    3    0    0 -0.20730138002E+02 -0.17422530205E+02  0.87102798452E+01  0.28445599929E+02  0.00000000000E+00 0. -1.
</event>
<event>
 7    1  0.5005325E-012  0.5052886E+02  0.7816164E-02  0.1300439E+00
        -11   -1    0    0    0    0  0.00000000000E+00  0.00000000000E+00  0.45593999997E+02  0.45594000000E+02  0.51100000000E-03 0.  1.
         11   -1    0    0    0    0 -0.00000000000E+00 -0.00000000000E+00 -0.45593999997E+02  0.45594000000E+02  0.51100000000E-03 0. -1.
    9900012    2    1    2    0    0 -0.35646340851E+02 -0.25579806612E+01  0.19389712294E+02  0.50528858052E+02  0.29999994534E+02 0.  0.
        -12    1    1    2    0    0  0.35646340851E+02  0.25579806612E+01 -0.19389712294E+02  0.40659141948E+02  0.00000000000E+00 0.  1.
         11    1    3    3    0    0 -0.12818526975E+02 -0.66094686606E+00  0.17168249023E+01  0.12949863805E+02  0.51100000000E-03 0. -1.
        -11    1    3    3    0    0 -0.24656938815E+02 -0.64288138049E+01  0.19779650638E+02  0.32257229551E+02  0.51100000000E-03 0.  1.
         12    1    3    3    0    0  0.18291249395E+01  0.45317800097E+01 -0.21067632460E+01  0.53217646956E+01  0.00000000000E+00 0. -1.
</event>
<event>
 7    1  0.5005325E-012  0.5052885E+02  0.7816164E-02  0.1300439E+00
        -11   -1    0    0    0    0  0.00000000000E+00  0.00000000000E+00  0.45593999997E+02  0.45594000000E+02  0.51100000000E-03 0. -1.
         11   -1    0    0    0    0 -0.00000000000E+00 -0.00000000000E+00 -0.45593999997E+02  0.45594000000E+02  0.51100000000E-03 0.  1.
    9900012    2    1    2    0    0 -0.32378693955E+02  0.10335387776E+02  0.22315156634E+02  0.50528852464E+02  0.29999977550E+02 0.  0.
        -12    1    1    2    0    0  0.32378693955E+02 -0.10335387776E+02 -0.22315156634E+02  0.40659147536E+02  0.00000000000E+00 0.  1.
         11    1    3    3    0    0 -0.12176619663E+02  0.13517083000E+02  0.37134138605E+01  0.18568011256E+02  0.51100000000E-03 0. -1.
        -11    1    3    3    0    0  0.14017614654E+01  0.29627263070E+01  0.10057934715E+01  0.34284549209E+01  0.51100000000E-03 0.  1.
         12    1    3    3    0    0 -0.21603835758E+02 -0.61444215313E+01  0.17595949302E+02  0.28532386287E+02  0.00000000000E+00 0. -1.
</event>
<event>
 7    1  0.5005325E-012  0.5052886E+02  0.7816164E-02  0.1300439E+00
        -11   -1    0    0    0    0  0.00000000000E+00  0.00000000000E+00  0.45593999997E+02  0.45594000000E+02  0.51100000000E-03 0. -1.
         11   -1    0    0    0    0 -0.00000000000E+00 -0.00000000000E+00 -0.45593999997E+02  0.45594000000E+02  0.51100000000E-03 0.  1.
    9900012    2    1    2    0    0 -0.31851049931E+02  0.25232430362E+02  0.14144194889E+01  0.50528861960E+02  0.30000006414E+02 0.  0.
        -12    1    1    2    0    0  0.31851049931E+02 -0.25232430362E+02 -0.14144194889E+01  0.40659138040E+02  0.00000000000E+00 0.  1.
         11    1    3    3    0    0  0.28656970348E+01  0.61731637173E+01 -0.65825968213E+01  0.94684080472E+01  0.51100000000E-03 0.  1.
        -11    1    3    3    0    0 -0.10338406158E+02  0.65899566743E+01  0.58779452521E+01  0.13596338165E+02  0.51100000000E-03 0. -1.
        -12    1    3    3    0    0 -0.24378340807E+02  0.12469309970E+02  0.21190710582E+01  0.27464115748E+02  0.00000000000E+00 0.  1.
</event>
<event>
 7    1  0.5005325E-012  0.5052873E+02  0.7816164E-02  0.1300439E+00
        -11   -1    0    0    0    0  0.00000000000E+00  0.00000000000E+00  0.45593999997E+02  0.45594000000E+02  0.51100000000E-03 0.  1.
         11   -1    0    0    0    0 -0.00000000000E+00 -0.00000000000E+00 -0.45593999997E+02  0.45594000000E+02  0.51100000000E-03 0. -1.
    9900012    2    1    2    0    0 -0.30450119508E+02  0.16569699192E+02  0.21246452391E+02  0.50528727398E+02  0.29999597396E+02 0.  0.
        -12    1    1    2    0    0  0.30450119508E+02 -0.16569699192E+02 -0.21246452391E+02  0.40659272602E+02  0.00000000000E+00 0.  1.
         11    1    3    3    0    0 -0.57462541071E+00 -0.20306978309E+01  0.74541237539E+01  0.77471213520E+01  0.51100000000E-03 0. -1.
        -11    1    3    3    0    0 -0.13079623746E+02  0.19081983994E+02  0.44572794020E+01  0.23559838930E+02  0.51100000000E-03 0.  1.
         12    1    3    3    0    0 -0.16795870351E+02 -0.48158697034E+00  0.93350492346E+01  0.19221767116E+02  0.00000000000E+00 0. -1.
</event>
<event>
 7    1  0.5005325E-012  0.5052886E+02  0.7816164E-02  0.1300439E+00
        -11   -1    0    0    0    0  0.00000000000E+00  0.00000000000E+00  0.45593999997E+02  0.45594000000E+02  0.51100000000E-03 0. -1.
         11   -1    0    0    0    0 -0.00000000000E+00 -0.00000000000E+00 -0.45593999997E+02  0.45594000000E+02  0.51100000000E-03 0.  1.
    9900012    2    1    2    0    0  0.31502224863E+02  0.18429141801E+02  0.17920435281E+02  0.50528862780E+02  0.30000008906E+02 0.  0.
        -12    1    1    2    0    0 -0.31502224863E+02 -0.18429141801E+02 -0.17920435281E+02  0.40659137220E+02  0.00000000000E+00 0.  1.
         11    1    3    3    0    0  0.62737283616E+00  0.19673795358E+01 -0.55861759161E+01  0.59556309943E+01  0.51100000000E-03 0. -1.
        -11    1    3    3    0    0  0.13813471444E+02  0.50017927089E+01  0.20027889377E+01  0.14827039065E+02  0.51100000000E-03 0.  1.
         12    1    3    3    0    0  0.17061380583E+02  0.11459969556E+02  0.21503822260E+02  0.29746192721E+02  0.00000000000E+00 0. -1.
</event>
<event>
 7    1  0.5005325E-012  0.5052886E+02  0.7816164E-02  0.1300439E+00
        -11   -1    0    0    0    0  0.00000000000E+00  0.00000000000E+00  0.45593999997E+02  0.45594000000E+02  0.51100000000E-03 0. -1.
         11   -1    0    0    0    0 -0.00000000000E+00 -0.00000000000E+00 -0.45593999997E+02  0.45594000000E+02  0.51100000000E-03 0.  1.
    9900012    2    1    2    0    0  0.34876854719E+01 -0.44604095225E+01  0.40262965420E+02  0.50528860960E+02  0.30000003373E+02 0.  0.
        -12    1    1    2    0    0 -0.34876854719E+01  0.44604095225E+01 -0.40262965420E+02  0.40659139040E+02  0.00000000000E+00 0.  1.
         11    1    3    3    0    0 -0.87768048445E+01 -0.33625798205E+01  0.18325992615E+02  0.20595660997E+02  0.51100000000E-03 0. -1.
        -11    1    3    3    0    0 -0.90659381556E+00  0.55305480847E+01  0.65880118891E+01  0.86493222495E+01  0.51100000000E-03 0.  1.
         12    1    3    3    0    0  0.13171084132E+02 -0.66283777867E+01  0.15348960916E+02  0.21283877713E+02  0.00000000000E+00 0. -1.
</event>
<event>
 7    1  0.5005325E-012  0.5052886E+02  0.7816164E-02  0.1300439E+00
        -11   -1    0    0    0    0  0.00000000000E+00  0.00000000000E+00  0.45593999997E+02  0.45594000000E+02  0.51100000000E-03 0. -1.
         11   -1    0    0    0    0 -0.00000000000E+00 -0.00000000000E+00 -0.45593999997E+02  0.45594000000E+02  0.51100000000E-03 0.  1.
    9900012    2    1    2    0    0  0.19199923441E+02  0.95994546244E+01 -0.34530845105E+02  0.50528857696E+02  0.29999993454E+02 0.  0.
         12    1    1    2    0    0 -0.19199923441E+02 -0.95994546244E+01  0.34530845105E+02  0.40659142304E+02  0.00000000000E+00 0. -1.
         11    1    3    3    0    0 -0.12169917511E+01  0.67082787229E+01 -0.15100117280E+02  0.16567909177E+02  0.51100000000E-03 0. -1.
        -11    1    3    3    0    0 -0.26568491027E+01 -0.28551497570E+01 -0.14959873541E+01  0.41771647938E+01  0.51100000000E-03 0.  1.
        -12    1    3    3    0    0  0.23073764294E+02  0.57463256585E+01 -0.17934740471E+02  0.29783783726E+02  0.00000000000E+00 0.  1.
</event>
<event>
 7    1  0.5005325E-012  0.5052886E+02  0.7816164E-02  0.1300439E+00
        -11   -1    0    0    0    0  0.00000000000E+00  0.00000000000E+00  0.45593999997E+02  0.45594000000E+02  0.51100000000E-03 0.  1.
         11   -1    0    0    0    0 -0.00000000000E+00 -0.00000000000E+00 -0.45593999997E+02  0.45594000000E+02  0.51100000000E-03 0. -1.
    9900012    2    1    2    0    0 -0.38775119426E+02 -0.11635253130E+02 -0.37784147055E+01  0.50528863025E+02  0.30000009651E+02 0.  0.
        -12    1    1    2    0    0  0.38775119426E+02  0.11635253130E+02  0.37784147055E+01  0.40659136975E+02  0.00000000000E+00 0.  1.
         11    1    3    3    0    0 -0.12648661648E+02 -0.78700851825E+00 -0.58698480930E+01  0.13966500663E+02  0.51100000000E-03 0. -1.
        -11    1    3    3    0    0 -0.16887817228E+02 -0.15113717294E+02 -0.61330574171E+01  0.23478441489E+02  0.51100000000E-03 0.  1.
        -12    1    3    3    0    0 -0.92386405496E+01  0.42654726828E+01  0.82244908047E+01  0.13083920873E+02  0.00000000000E+00 0.  1.
</event>
<event>
 7    1  0.5060774E-012  0.5052887E+02  0.7816164E-02  0.1300439E+00
        -11   -1    0    0    0    0  0.00000000000E+00  0.00000000000E+00  0.45593999997E+02  0.45594000000E+02  0.51100000000E-03 0. -1.
         11   -1    0    0    0    0 -0.00000000000E+00 -0.00000000000E+00 -0.45593999997E+02  0.45594000000E+02  0.51100000000E-03 0.  1.
    9900012    2    1    2    0    0  0.29912858951E+02 -0.38305679708E+01  0.27271098037E+02  0.50528866097E+02  0.30000018990E+02 0.  0.
        -12    1    1    2    0    0 -0.29912858951E+02  0.38305679708E+01 -0.27271098037E+02  0.40659133903E+02  0.00000000000E+00 0.  1.
         11    1    3    3    0    0  0.76077592275E+01 -0.37350581877E+00  0.19470849357E+02  0.20907689542E+02  0.51100000000E-03 0. -1.
        -11    1    3    3    0    0  0.10141450487E+02  0.71346910342E+01  0.25489227599E+01  0.12658982646E+02  0.51100000000E-03 0.  1.
        -12    1    3    3    0    0  0.12163649236E+02 -0.10591753186E+02  0.52513259201E+01  0.16962193909E+02  0.00000000000E+00 0.  1.
</event>
<event>
 7    1  0.5005325E-012  0.5052886E+02  0.7816164E-02  0.1300439E+00
        -11   -1    0    0    0    0  0.00000000000E+00  0.00000000000E+00  0.45593999997E+02  0.45594000000E+02  0.51100000000E-03 0. -1.
         11   -1    0    0    0    0 -0.00000000000E+00 -0.00000000000E+00 -0.45593999997E+02  0.45594000000E+02  0.51100000000E-03 0.  1.
    9900012    2    1    2    0    0  0.20918451584E+02  0.24566043501E+02 -0.24740526805E+02  0.50528858635E+02  0.29999996306E+02 0.  0.
         12    1    1    2    0    0 -0.20918451584E+02 -0.24566043501E+02  0.24740526805E+02  0.40659141365E+02  0.00000000000E+00 0. -1.
         11    1    3    3    0    0 -0.21920471635E+00 -0.13845672106E-01  0.45320613939E+01  0.45373806486E+01  0.51100000000E-03 0. -1.
        -11    1    3    3    0    0  0.11800814456E+02  0.97349367266E+01 -0.50965577644E+01  0.16124612126E+02  0.51100000000E-03 0.  1.
         12    1    3    3    0    0  0.93368418446E+01  0.14844952447E+02 -0.24176030434E+02  0.29866865861E+02  0.00000000000E+00 0. -1.
</event>
<event>
 7    1  0.5005325E-012  0.5052888E+02  0.7816164E-02  0.1300439E+00
        -11   -1    0    0    0    0  0.00000000000E+00  0.00000000000E+00  0.45593999997E+02  0.45594000000E+02  0.51100000000E-03 0. -1.
         11   -1    0    0    0    0 -0.00000000000E+00 -0.00000000000E+00 -0.45593999997E+02  0.45594000000E+02  0.51100000000E-03 0.  1.
    9900012    2    1    2    0    0  0.15336136451E+02 -0.24988975502E+02 -0.28169447592E+02  0.50528883488E+02  0.30000071851E+02 0.  0.
         12    1    1    2    0    0 -0.15336136451E+02  0.24988975502E+02  0.28169447592E+02  0.40659116512E+02  0.00000000000E+00 0. -1.
         11    1    3    3    0    0  0.26210822400E+01 -0.89096073233E+00  0.42053175258E+01  0.50347372214E+01  0.51100000000E-03 0. -1.
        -11    1    3    3    0    0 -0.38370728507E+01 -0.63424233987E+01 -0.10252909781E+02  0.12651941427E+02  0.51100000000E-03 0.  1.
         12    1    3    3    0    0  0.16552127062E+02 -0.17755591371E+02 -0.22121855337E+02  0.32842204840E+02  0.00000000000E+00 0. -1.
</event>
<event>
 7    1  0.5005325E-012  0.5052886E+02  0.7816164E-02  0.1300439E+00
        -11   -1    0    0    0    0  0.00000000000E+00  0.00000000000E+00  0.45593999997E+02  0.45594000000E+02  0.51100000000E-03 0. -1.
         11   -1    0    0    0    0 -0.00000000000E+00 -0.00000000000E+00 -0.45593999997E+02  0.45594000000E+02  0.51100000000E-03 0.  1.
    9900012    2    1    2    0    0 -0.25301064841E+02  0.24174162263E+02 -0.20703429647E+02  0.50528855858E+02  0.29999987866E+02 0.  0.
         12    1    1    2    0    0  0.25301064841E+02 -0.24174162263E+02  0.20703429647E+02  0.40659144142E+02  0.00000000000E+00 0. -1.
         11    1    3    3    0    0 -0.65020239010E+01  0.16639028854E+02  0.20346823714E+01  0.17979808916E+02  0.51100000000E-03 0. -1.
        -11    1    3    3    0    0 -0.10940253023E+02  0.10231819924E+02 -0.14420782274E+02  0.20792744812E+02  0.51100000000E-03 0.  1.
        -12    1    3    3    0    0 -0.78587879171E+01 -0.26966865157E+01 -0.83173297450E+01  0.11756302130E+02  0.00000000000E+00 0.  1.
</event>
<event>
 7    1  0.5005325E-012  0.5052886E+02  0.7816164E-02  0.1300439E+00
        -11   -1    0    0    0    0  0.00000000000E+00  0.00000000000E+00  0.45593999997E+02  0.45594000000E+02  0.51100000000E-03 0. -1.
         11   -1    0    0    0    0 -0.00000000000E+00 -0.00000000000E+00 -0.45593999997E+02  0.45594000000E+02  0.51100000000E-03 0.  1.
    9900012    2    1    2    0    0  0.16532041170E+02 -0.60400134964E+01  0.36652086234E+02  0.50528861131E+02  0.30000003893E+02 0.  0.
        -12    1    1    2    0    0 -0.16532041170E+02  0.60400134964E+01 -0.36652086234E+02  0.40659138869E+02  0.00000000000E+00 0.  1.
         11    1    3    3    0    0 -0.39067249518E+01 -0.80559653844E+00  0.33254983175E+01  0.51933057827E+01  0.51100000000E-03 0. -1.
        -11    1    3    3    0    0  0.15833144050E+02 -0.26775975763E+01  0.54378895407E+01  0.16953720011E+02  0.51100000000E-03 0.  1.
         12    1    3    3    0    0  0.46056220718E+01 -0.25568193817E+01  0.27888698376E+02  0.28381835337E+02  0.00000000000E+00 0. -1.
</event>
<event>
 7    1  0.5005325E-012  0.5052886E+02  0.7816164E-02  0.1300439E+00
        -11   -1    0    0    0    0  0.00000000000E+00  0.00000000000E+00  0.45593999997E+02  0.45594000000E+02  0.51100000000E-03 0. -1.
         11   -1    0    0    0    0 -0.00000000000E+00 -0.00000000000E+00 -0.45593999997E+02  0.45594000000E+02  0.51100000000E-03 0.  1.
    9900012    2    1    2    0    0 -0.31478908307E+02 -0.10186549989E+02 -0.23632137741E+02  0.50528863227E+02  0.30000010266E+02 0.  0.
         12    1    1    2    0    0  0.31478908307E+02  0.10186549989E+02  0.23632137741E+02  0.40659136773E+02  0.00000000000E+00 0. -1.
         11    1    3    3    0    0 -0.63030881967E+00 -0.20849860828E+01  0.29959096654E+01  0.37040425427E+01  0.51100000000E-03 0. -1.
        -11    1    3    3    0    0 -0.20130302326E+02 -0.10316411602E+02 -0.58872600779E+01  0.23373430462E+02  0.51100000000E-03 0.  1.
        -12    1    3    3    0    0 -0.10718297161E+02  0.22148476961E+01 -0.20740787329E+02  0.23451390222E+02  0.00000000000E+00 0.  1.
</event>
<event>
 7    1  0.5005325E-012  0.5052885E+02  0.7816164E-02  0.1300439E+00
        -11   -1    0    0    0    0  0.00000000000E+00  0.00000000000E+00  0.45593999997E+02  0.45594000000E+02  0.51100000000E-03 0.  1.
         11   -1    0    0    0    0 -0.00000000000E+00 -0.00000000000E+00 -0.45593999997E+02  0.45594000000E+02  0.51100000000E-03 0. -1.
    9900012    2    1    2    0    0 -0.18413976881E+02 -0.23220154485E+02 -0.27837323746E+02  0.50528847129E+02  0.29999961333E+02 0.  0.
         12    1    1    2    0    0  0.18413976881E+02  0.23220154485E+02  0.27837323746E+02  0.40659152871E+02  0.00000000000E+00 0. -1.
         11    1    3    3    0    0 -0.62808622657E+01  0.25144576532E+01 -0.12052328192E+02  0.13821372696E+02  0.51100000000E-03 0. -1.
        -11    1    3    3    0    0 -0.14440099730E+02 -0.10928504164E+02 -0.95988595583E+01  0.20496018846E+02  0.51100000000E-03 0.  1.
         12    1    3    3    0    0  0.23069851152E+01 -0.14806107975E+02 -0.61861359958E+01  0.16211455587E+02  0.00000000000E+00 0. -1.
</event>
<event>
 7    1  0.5005325E-012  0.5052886E+02  0.7816164E-02  0.1300439E+00
        -11   -1    0    0    0    0  0.00000000000E+00  0.00000000000E+00  0.45593999997E+02  0.45594000000E+02  0.51100000000E-03 0. -1.
         11   -1    0    0    0    0 -0.00000000000E+00 -0.00000000000E+00 -0.45593999997E+02  0.45594000000E+02  0.51100000000E-03 0.  1.
    9900012    2    1    2    0    0 -0.60195331441E+01 -0.29604810385E+02 -0.27211879712E+02  0.50528856199E+02  0.29999988902E+02 0.  0.
         12    1    1    2    0    0  0.60195331441E+01  0.29604810385E+02  0.27211879712E+02  0.40659143801E+02  0.00000000000E+00 0. -1.
         11    1    3    3    0    0 -0.46597775071E+01 -0.13964672814E+02 -0.22250584806E+02  0.26679845158E+02  0.51100000000E-03 0.  1.
        -11    1    3    3    0    0  0.70268106346E+01 -0.35518684813E+01 -0.46274045186E+01  0.91326179293E+01  0.51100000000E-03 0. -1.
        -12    1    3    3    0    0 -0.83865662715E+01 -0.12088269090E+02 -0.33389038718E+00  0.14716393111E+02  0.00000000000E+00 0.  1.
</event>
<event>
 7    1  0.5005325E-012  0.5052886E+02  0.7816164E-02  0.1300439E+00
        -11   -1    0    0    0    0  0.00000000000E+00  0.00000000000E+00  0.45593999997E+02  0.45594000000E+02  0.51100000000E-03 0. -1.
         11   -1    0    0    0    0 -0.00000000000E+00 -0.00000000000E+00 -0.45593999997E+02  0.45594000000E+02  0.51100000000E-03 0.  1.
    9900012    2    1    2    0    0 -0.33933910785E+01 -0.25637733357E+00 -0.40516471658E+02  0.50528864397E+02  0.30000013821E+02 0.  0.
         12    1    1    2    0    0  0.33933910785E+01  0.25637733357E+00  0.40516471658E+02  0.40659135603E+02  0.00000000000E+00 0. -1.
         11    1    3    3    0    0 -0.49206782975E+01 -0.10708488725E+02 -0.11633643275E+02  0.16559784473E+02  0.51100000000E-03 0. -1.
        -11    1    3    3    0    0 -0.48005946907E+01  0.80701025293E+01 -0.91534226342E+01  0.13113253235E+02  0.51100000000E-03 0.  1.
        -12    1    3    3    0    0  0.63278819098E+01  0.23820088621E+01 -0.19729405749E+02  0.20855826690E+02  0.00000000000E+00 0.  1.
</event>
<event>
 7    1  0.5005325E-012  0.5052883E+02  0.7816164E-02  0.1300439E+00
        -11   -1    0    0    0    0  0.00000000000E+00  0.00000000000E+00  0.45593999997E+02  0.45594000000E+02  0.51100000000E-03 0. -1.
         11   -1    0    0    0    0 -0.00000000000E+00 -0.00000000000E+00 -0.45593999997E+02  0.45594000000E+02  0.51100000000E-03 0.  1.
    9900012    2    1    2    0    0  0.88149595298E+01 -0.66607313458E+01  0.39129267387E+02  0.50528826129E+02  0.29999897503E+02 0.  0.
        -12    1    1    2    0    0 -0.88149595298E+01  0.66607313458E+01 -0.39129267387E+02  0.40659173871E+02  0.00000000000E+00 0.  1.
         11    1    3    3    0    0 -0.53761177902E+01  0.27189667246E+01  0.12177843239E+02  0.13586584882E+02  0.51100000000E-03 0. -1.
        -11    1    3    3    0    0  0.25871627934E+00 -0.27910870296E+01  0.19720172152E+02  0.19918390771E+02  0.51100000000E-03 0.  1.
        -12    1    3    3    0    0  0.13932361041E+02 -0.65886110408E+01  0.72312519957E+01  0.17023850476E+02  0.00000000000E+00 0.  1.
</event>
<event>
 7    1  0.5005325E-012  0.5052887E+02  0.7816164E-02  0.1300439E+00
        -11   -1    0    0    0    0  0.00000000000E+00  0.00000000000E+00  0.45593999997E+02  0.45594000000E+02  0.51100000000E-03 0. -1.
         11   -1    0    0    0    0 -0.00000000000E+00 -0.00000000000E+00 -0.45593999997E+02  0.45594000000E+02  0.51100000000E-03 0.  1.
    9900012    2    1    2    0    0  0.26950168468E+02  0.91981977967E+01  0.29021483956E+02  0.50528868748E+02  0.30000027047E+02 0.  0.
        -12    1    1    2    0    0 -0.26950168468E+02 -0.91981977967E+01 -0.29021483956E+02  0.40659131252E+02  0.00000000000E+00 0.  1.
         11    1    3    3    0    0  0.22725398763E+02 -0.19832184313E+01  0.21635778635E+02  0.31440162558E+02  0.51100000000E-03 0. -1.
        -11    1    3    3    0    0  0.58896074570E+00 -0.32101793191E-01  0.72761101025E+01  0.72999783403E+01  0.51100000000E-03 0.  1.
        -12    1    3    3    0    0  0.36358089597E+01  0.11213518021E+02  0.10959521810E+00  0.11788727850E+02  0.00000000000E+00 0.  1.
</event>
<event>
 7    1  0.5005325E-012  0.5052886E+02  0.7816164E-02  0.1300439E+00
        -11   -1    0    0    0    0  0.00000000000E+00  0.00000000000E+00  0.45593999997E+02  0.45594000000E+02  0.51100000000E-03 0. -1.
         11   -1    0    0    0    0 -0.00000000000E+00 -0.00000000000E+00 -0.45593999997E+02  0.45594000000E+02  0.51100000000E-03 0.  1.
    9900012    2    1    2    0    0  0.19277851518E+02  0.19262737852E+02 -0.30174114472E+02  0.50528858189E+02  0.29999994950E+02 0.  0.
         12    1    1    2    0    0 -0.19277851518E+02 -0.19262737852E+02  0.30174114472E+02  0.40659141811E+02  0.00000000000E+00 0. -1.
         11    1    3    3    0    0  0.49779046916E+01  0.14603112170E+02 -0.87263233355E+01  0.17725099136E+02  0.51100000000E-03 0. -1.
        -11    1    3    3    0    0  0.54165734648E+01  0.42741684251E+01 -0.22789731380E+02  0.23811334286E+02  0.51100000000E-03 0.  1.
         12    1    3    3    0    0  0.88833733612E+01  0.38545725667E+00  0.13419402436E+01  0.89924247669E+01  0.00000000000E+00 0. -1.
</event>
<event>
 7    1  0.5005325E-012  0.5052887E+02  0.7816164E-02  0.1300439E+00
        -11   -1    0    0    0    0  0.00000000000E+00  0.00000000000E+00  0.45593999997E+02  0.45594000000E+02  0.51100000000E-03 0. -1.
         11   -1    0    0    0    0 -0.00000000000E+00 -0.00000000000E+00 -0.45593999997E+02  0.45594000000E+02  0.51100000000E-03 0.  1.
    9900012    2    1    2    0    0  0.24261958402E+02  0.12370262829E+02 -0.30191042429E+02  0.50528867312E+02  0.30000022682E+02 0.  0.
         12    1    1    2    0    0 -0.24261958402E+02 -0.12370262829E+02  0.30191042429E+02  0.40659132688E+02  0.00000000000E+00 0. -1.
         11    1    3    3    0    0  0.21225079906E+01  0.81834824252E+01  0.20807766764E+01  0.87065525101E+01  0.51100000000E-03 0.  1.
        -11    1    3    3    0    0  0.10217879034E+02  0.88162065890E+01 -0.13342126633E+02  0.18977431174E+02  0.51100000000E-03 0. -1.
         12    1    3    3    0    0  0.11921571377E+02 -0.46294261855E+01 -0.18929692472E+02  0.22844883629E+02  0.00000000000E+00 0. -1.
</event>
<event>
 7    1  0.5005325E-012  0.5052887E+02  0.7816164E-02  0.1300439E+00
        -11   -1    0    0    0    0  0.00000000000E+00  0.00000000000E+00  0.45593999997E+02  0.45594000000E+02  0.51100000000E-03 0. -1.
         11   -1    0    0    0    0 -0.00000000000E+00 -0.00000000000E+00 -0.45593999997E+02  0.45594000000E+02  0.51100000000E-03 0.  1.
    9900012    2    1    2    0    0  0.22939992245E+01 -0.62109284924E+01  0.40116417783E+02  0.50528867681E+02  0.30000023803E+02 0.  0.
        -12    1    1    2    0    0 -0.22939992245E+01  0.62109284924E+01 -0.40116417783E+02  0.40659132319E+02  0.00000000000E+00 0.  1.
         11    1    3    3    0    0 -0.30567076684E+00  0.64808892212E+01  0.95159097234E+01  0.11517286913E+02  0.51100000000E-03 0. -1.
        -11    1    3    3    0    0  0.60913667749E+01 -0.81400035380E+01  0.26887371705E+01  0.10516354626E+02  0.51100000000E-03 0.  1.
         12    1    3    3    0    0 -0.34916967835E+01 -0.45518141757E+01  0.27911770889E+02  0.28495226142E+02  0.00000000000E+00 0. -1.
</event>
<event>
 7    1  0.5005325E-012  0.5052886E+02  0.7816164E-02  0.1300439E+00
        -11   -1    0    0    0    0  0.00000000000E+00  0.00000000000E+00  0.45593999997E+02  0.45594000000E+02  0.51100000000E-03 0. -1.
         11   -1    0    0    0    0 -0.00000000000E+00 -0.00000000000E+00 -0.45593999997E+02  0.45594000000E+02  0.51100000000E-03 0.  1.
    9900012    2    1    2    0    0 -0.53656387188E+01  0.26952468856E+02  0.29965641814E+02  0.50528863934E+02  0.30000012415E+02 0.  0.
        -12    1    1    2    0    0  0.53656387188E+01 -0.26952468856E+02 -0.29965641814E+02  0.40659136066E+02  0.00000000000E+00 0.  1.
         11    1    3    3    0    0  0.46048396485E+01  0.34269536308E+01 -0.67553328009E+00  0.57796976435E+01  0.51100000000E-03 0. -1.
        -11    1    3    3    0    0  0.17423399143E+01  0.18950866074E+02  0.23669624025E+02  0.30371403904E+02  0.51100000000E-03 0.  1.
        -12    1    3    3    0    0 -0.11712818282E+02  0.45746491508E+01  0.69715510691E+01  0.14377762387E+02  0.00000000000E+00 0.  1.
</event>
<event>
 7    1  0.5005325E-012  0.5052887E+02  0.7816164E-02  0.1300439E+00
        -11   -1    0    0    0    0  0.00000000000E+00  0.00000000000E+00  0.45593999997E+02  0.45594000000E+02  0.51100000000E-03 0. -1.
         11   -1    0    0    0    0 -0.00000000000E+00 -0.00000000000E+00 -0.45593999997E+02  0.45594000000E+02  0.51100000000E-03 0.  1.
    9900012    2    1    2    0    0 -0.98270223422E+01  0.36422380656E+01  0.39285219057E+02  0.50528871842E+02  0.30000036451E+02 0.  0.
        -12    1    1    2    0    0  0.98270223422E+01 -0.36422380656E+01 -0.39285219057E+02  0.40659128158E+02  0.00000000000E+00 0.  1.
         11    1    3    3    0    0 -0.34685901225E+01 -0.80353454416E+01  0.34293250327E+01  0.93999023529E+01  0.51100000000E-03 0. -1.
        -11    1    3    3    0    0 -0.75871691667E+01 -0.38637350710E-01  0.87975165818E+01  0.11617354565E+02  0.51100000000E-03 0.  1.
         12    1    3    3    0    0  0.12287369469E+01  0.11716220858E+02  0.27058377442E+02  0.29511614925E+02  0.00000000000E+00 0. -1.
</event>
<event>
 7    1  0.5005325E-012  0.5052887E+02  0.7816164E-02  0.1300439E+00
        -11   -1    0    0    0    0  0.00000000000E+00  0.00000000000E+00  0.45593999997E+02  0.45594000000E+02  0.51100000000E-03 0.  1.
         11   -1    0    0    0    0 -0.00000000000E+00 -0.00000000000E+00 -0.45593999997E+02  0.45594000000E+02  0.51100000000E-03 0. -1.
    9900012    2    1    2    0    0  0.35840299219E+02 -0.92128255157E+01 -0.16845229767E+02  0.50528868578E+02  0.30000026529E+02 0.  0.
        -12    1    1    2    0    0 -0.35840299219E+02  0.92128255157E+01  0.16845229767E+02  0.40659131422E+02  0.00000000000E+00 0.  1.
         11    1    3    3    0    0  0.11121513802E+02  0.80539447096E+00 -0.63336023253E+01  0.12823854653E+02  0.51100000000E-03 0. -1.
        -11    1    3    3    0    0  0.11052553385E+02  0.59628838103E+01 -0.10966135935E+02  0.16672464043E+02  0.51100000000E-03 0.  1.
        -12    1    3    3    0    0  0.13666232033E+02 -0.15981103797E+02  0.45450849325E+00  0.21032549881E+02  0.00000000000E+00 0.  1.
</event>
<event>
 7    1  0.5005325E-012  0.5052887E+02  0.7816164E-02  0.1300439E+00
        -11   -1    0    0    0    0  0.00000000000E+00  0.00000000000E+00  0.45593999997E+02  0.45594000000E+02  0.51100000000E-03 0.  1.
         11   -1    0    0    0    0 -0.00000000000E+00 -0.00000000000E+00 -0.45593999997E+02  0.45594000000E+02  0.51100000000E-03 0. -1.
    9900012    2    1    2    0    0 -0.40148685560E+02  0.48976320210E+01 -0.41546775522E+01  0.50528866989E+02  0.30000021701E+02 0.  0.
        -12    1    1    2    0    0  0.40148685560E+02 -0.48976320210E+01  0.41546775522E+01  0.40659133011E+02  0.00000000000E+00 0.  1.
         11    1    3    3    0    0 -0.12426606376E+02 -0.32228713086E+01  0.65451372913E+00  0.12854409126E+02  0.51100000000E-03 0. -1.
        -11    1    3    3    0    0 -0.70216627464E+01 -0.40620080690E+01 -0.10225291790E+02  0.13052212446E+02  0.51100000000E-03 0.  1.
        -12    1    3    3    0    0 -0.20700416437E+02  0.12182511399E+02  0.54161005091E+01  0.24622245417E+02  0.00000000000E+00 0.  1.
</event>
<event>
 7    1  0.5005325E-012  0.5052886E+02  0.7816164E-02  0.1300439E+00
        -11   -1    0    0    0    0  0.00000000000E+00  0.00000000000E+00  0.45593999997E+02  0.45594000000E+02  0.51100000000E-03 0. -1.
         11   -1    0    0    0    0 -0.00000000000E+00 -0.00000000000E+00 -0.45593999997E+02  0.45594000000E+02  0.51100000000E-03 0.  1.
    9900012    2    1    2    0    0 -0.15465080375E+02 -0.82195420931E+01  0.36693816287E+02  0.50528859122E+02  0.29999997786E+02 0.  0.
        -12    1    1    2    0    0  0.15465080375E+02  0.82195420931E+01 -0.36693816287E+02  0.40659140878E+02  0.00000000000E+00 0.  1.
         11    1    3    3    0    0 -0.10249430453E+02 -0.48189695355E+01  0.38712224818E+02  0.40334967989E+02  0.51100000000E-03 0. -1.
        -11    1    3    3    0    0  0.11307505542E+01 -0.34011147079E+01 -0.12746146587E+01  0.38040532149E+01  0.51100000000E-03 0.  1.
        -12    1    3    3    0    0 -0.63464004759E+01  0.54215036038E-03 -0.74379387222E+00  0.63898379181E+01  0.00000000000E+00 0.  1.
</event>
<event>
 7    1  0.5005325E-012  0.5052885E+02  0.7816164E-02  0.1300439E+00
        -11   -1    0    0    0    0  0.00000000000E+00  0.00000000000E+00  0.45593999997E+02  0.45594000000E+02  0.51100000000E-03 0. -1.
         11   -1    0    0    0    0 -0.00000000000E+00 -0.00000000000E+00 -0.45593999997E+02  0.45594000000E+02  0.51100000000E-03 0.  1.
    9900012    2    1    2    0    0  0.22012626246E+02  0.15751767101E+02 -0.30339624102E+02  0.50528847627E+02  0.29999962847E+02 0.  0.
         12    1    1    2    0    0 -0.22012626246E+02 -0.15751767101E+02  0.30339624102E+02  0.40659152373E+02  0.00000000000E+00 0. -1.
         11    1    3    3    0    0  0.54061066507E+01 -0.31170077155E+01 -0.78614323273E+01  0.10037123329E+02  0.51100000000E-03 0. -1.
        -11    1    3    3    0    0  0.18608722051E+02  0.97283055184E+01 -0.65105377227E+01  0.21984348212E+02  0.51100000000E-03 0.  1.
        -12    1    3    3    0    0 -0.20022024558E+01  0.91404692984E+01 -0.15967654052E+02  0.18507376086E+02  0.00000000000E+00 0.  1.
</event>
<event>
 7    1  0.5005325E-012  0.5052885E+02  0.7816164E-02  0.1300439E+00
        -11   -1    0    0    0    0  0.00000000000E+00  0.00000000000E+00  0.45593999997E+02  0.45594000000E+02  0.51100000000E-03 0. -1.
         11   -1    0    0    0    0 -0.00000000000E+00 -0.00000000000E+00 -0.45593999997E+02  0.45594000000E+02  0.51100000000E-03 0.  1.
    9900012    2    1    2    0    0 -0.31010989903E+02  0.73468944159E+01 -0.25248917796E+02  0.50528853400E+02  0.29999980395E+02 0.  0.
         12    1    1    2    0    0  0.31010989903E+02 -0.73468944159E+01  0.25248917796E+02  0.40659146600E+02  0.00000000000E+00 0. -1.
         11    1    3    3    0    0  0.24912358209E+01 -0.31309315224E+01 -0.95171076892E+00  0.41127535499E+01  0.51100000000E-03 0. -1.
        -11    1    3    3    0    0 -0.67966222365E+01 -0.50361469026E+01 -0.72381921990E+01  0.11133206008E+02  0.51100000000E-03 0.  1.
         12    1    3    3    0    0 -0.26705603488E+02  0.15513972841E+02 -0.17059014828E+02  0.35282893842E+02  0.00000000000E+00 0. -1.
</event>
<event>
 7    1  0.5005325E-012  0.5052887E+02  0.7816164E-02  0.1300439E+00
        -11   -1    0    0    0    0  0.00000000000E+00  0.00000000000E+00  0.45593999997E+02  0.45594000000E+02  0.51100000000E-03 0. -1.
         11   -1    0    0    0    0 -0.00000000000E+00 -0.00000000000E+00 -0.45593999997E+02  0.45594000000E+02  0.51100000000E-03 0.  1.
    9900012    2    1    2    0    0 -0.17177789556E+02 -0.90252314903E+01  0.35730009207E+02  0.50528870454E+02  0.30000032232E+02 0.  0.
        -12    1    1    2    0    0  0.17177789556E+02  0.90252314903E+01 -0.35730009207E+02  0.40659129546E+02  0.00000000000E+00 0.  1.
         11    1    3    3    0    0 -0.62061467869E+01 -0.45781710810E+01  0.14340008450E+01  0.78442505743E+01  0.51100000000E-03 0. -1.
        -11    1    3    3    0    0 -0.54669724412E+01  0.74689564392E+01  0.48592692869E+01  0.10453975140E+02  0.51100000000E-03 0.  1.
         12    1    3    3    0    0 -0.55046703278E+01 -0.11916016849E+02  0.29436739075E+02  0.32230644740E+02  0.00000000000E+00 0. -1.
</event>
<event>
 7    1  0.5005325E-012  0.5052886E+02  0.7816164E-02  0.1300439E+00
        -11   -1    0    0    0    0  0.00000000000E+00  0.00000000000E+00  0.45593999997E+02  0.45594000000E+02  0.51100000000E-03 0. -1.
         11   -1    0    0    0    0 -0.00000000000E+00 -0.00000000000E+00 -0.45593999997E+02  0.45594000000E+02  0.51100000000E-03 0.  1.
    9900012    2    1    2    0    0 -0.62318154677E+01 -0.14433367932E+02 -0.37496774552E+02  0.50528859138E+02  0.29999997836E+02 0.  0.
         12    1    1    2    0    0  0.62318154677E+01  0.14433367932E+02  0.37496774552E+02  0.40659140862E+02  0.00000000000E+00 0. -1.
         11    1    3    3    0    0  0.55621531768E+01 -0.19215125923E+02 -0.21673586193E+02  0.29494117226E+02  0.51100000000E-03 0.  1.
        -11    1    3    3    0    0 -0.56650078803E+01 -0.39534103768E+00 -0.50285394354E+01  0.75851709232E+01  0.51100000000E-03 0. -1.
        -12    1    3    3    0    0 -0.61289607642E+01  0.51770990293E+01 -0.10794648923E+02  0.13449570989E+02  0.00000000000E+00 0.  1.
</event>
<event>
 7    1  0.5005325E-012  0.5052886E+02  0.7816164E-02  0.1300439E+00
        -11   -1    0    0    0    0  0.00000000000E+00  0.00000000000E+00  0.45593999997E+02  0.45594000000E+02  0.51100000000E-03 0. -1.
         11   -1    0    0    0    0 -0.00000000000E+00 -0.00000000000E+00 -0.45593999997E+02  0.45594000000E+02  0.51100000000E-03 0.  1.
    9900012    2    1    2    0    0 -0.14585006279E+02  0.14984374636E+02  0.34869926229E+02  0.50528860232E+02  0.30000001163E+02 0.  0.
        -12    1    1    2    0    0  0.14585006279E+02 -0.14984374636E+02 -0.34869926229E+02  0.40659139768E+02  0.00000000000E+00 0.  1.
         11    1    3    3    0    0 -0.21563148177E+01  0.13341701154E+00 -0.29510260543E+01  0.36573280857E+01  0.51100000000E-03 0. -1.
        -11    1    3    3    0    0 -0.34010006003E+01 -0.47885884525E+01  0.10533897753E+02  0.12060695941E+02  0.51100000000E-03 0.  1.
         12    1    3    3    0    0 -0.90276908612E+01  0.19639546077E+02  0.27287054531E+02  0.34810836206E+02  0.00000000000E+00 0. -1.
</event>
<event>
 7    1  0.5005325E-012  0.5052887E+02  0.7816164E-02  0.1300439E+00
        -11   -1    0    0    0    0  0.00000000000E+00  0.00000000000E+00  0.45593999997E+02  0.45594000000E+02  0.51100000000E-03 0. -1.
         11   -1    0    0    0    0 -0.00000000000E+00 -0.00000000000E+00 -0.45593999997E+02  0.45594000000E+02  0.51100000000E-03 0.  1.
    9900012    2    1    2    0    0  0.28171719755E+01  0.17876847130E+02 -0.36409434231E+02  0.50528867910E+02  0.30000024500E+02 0.  0.
         12    1    1    2    0    0 -0.28171719755E+01 -0.17876847130E+02  0.36409434231E+02  0.40659132090E+02  0.00000000000E+00 0. -1.
         11    1    3    3    0    0  0.37019627183E+00 -0.35524566794E+01 -0.17135274306E+00  0.35758014154E+01  0.51100000000E-03 0. -1.
        -11    1    3    3    0    0  0.32519313987E+01  0.20304949379E+02 -0.14478077557E+02  0.25149170108E+02  0.51100000000E-03 0.  1.
        -12    1    3    3    0    0 -0.80495569498E+00  0.11243544300E+01 -0.21760003931E+02  0.21803896387E+02  0.00000000000E+00 0.  1.
</event>
<event>
 7    1  0.5005325E-012  0.5052886E+02  0.7816164E-02  0.1300439E+00
        -11   -1    0    0    0    0  0.00000000000E+00  0.00000000000E+00  0.45593999997E+02  0.45594000000E+02  0.51100000000E-03 0.  1.
         11   -1    0    0    0    0 -0.00000000000E+00 -0.00000000000E+00 -0.45593999997E+02  0.45594000000E+02  0.51100000000E-03 0. -1.
    9900012    2    1    2    0    0 -0.72530542192E+01 -0.33300743114E+02 -0.22172498580E+02  0.50528856124E+02  0.29999988675E+02 0.  0.
         12    1    1    2    0    0  0.72530542192E+01  0.33300743114E+02  0.22172498580E+02  0.40659143876E+02  0.00000000000E+00 0. -1.
         11    1    3    3    0    0  0.14575665128E+01 -0.63635606120E+00  0.23461046672E+01  0.28343705732E+01  0.51100000000E-03 0. -1.
        -11    1    3    3    0    0  0.39543300105E+01 -0.23657094513E+02 -0.86881745741E+01  0.25510374837E+02  0.51100000000E-03 0.  1.
         12    1    3    3    0    0 -0.12664950742E+02 -0.90072925392E+01 -0.15830428673E+02  0.22184110714E+02  0.00000000000E+00 0. -1.
</event>
<event>
 7    1  0.5005325E-012  0.5052884E+02  0.7816164E-02  0.1300439E+00
        -11   -1    0    0    0    0  0.00000000000E+00  0.00000000000E+00  0.45593999997E+02  0.45594000000E+02  0.51100000000E-03 0. -1.
         11   -1    0    0    0    0 -0.00000000000E+00 -0.00000000000E+00 -0.45593999997E+02  0.45594000000E+02  0.51100000000E-03 0.  1.
    9900012    2    1    2    0    0  0.65731222861E+01 -0.88059795894E+01 -0.39146087161E+02  0.50528839247E+02  0.29999937374E+02 0.  0.
         12    1    1    2    0    0 -0.65731222861E+01  0.88059795894E+01  0.39146087161E+02  0.40659160753E+02  0.00000000000E+00 0. -1.
         11    1    3    3    0    0 -0.27244117967E+00 -0.87409389543E+00 -0.56845968917E+01  0.57578560608E+01  0.51100000000E-03 0. -1.
        -11    1    3    3    0    0  0.55993737970E+01  0.13658025269E+00 -0.35834008435E+02  0.36269102578E+02  0.51100000000E-03 0.  1.
         12    1    3    3    0    0  0.12461896688E+01 -0.80684659467E+01  0.23725181650E+01  0.85018806076E+01  0.00000000000E+00 0. -1.
</event>
<event>
 7    1  0.5005325E-012  0.5052882E+02  0.7816164E-02  0.1300439E+00
        -11   -1    0    0    0    0  0.00000000000E+00  0.00000000000E+00  0.45593999997E+02  0.45594000000E+02  0.51100000000E-03 0. -1.
         11   -1    0    0    0    0 -0.00000000000E+00 -0.00000000000E+00 -0.45593999997E+02  0.45594000000E+02  0.51100000000E-03 0.  1.
    9900012    2    1    2    0    0  0.21901270717E+02  0.29061148236E+02 -0.18137053163E+02  0.50528822767E+02  0.29999887281E+02 0.  0.
         12    1    1    2    0    0 -0.21901270717E+02 -0.29061148236E+02  0.18137053163E+02  0.40659177233E+02  0.00000000000E+00 0. -1.
         11    1    3    3    0    0 -0.29563483987E+01  0.12835048546E+02 -0.22462724012E+01  0.13361295109E+02  0.51100000000E-03 0. -1.
        -11    1    3    3    0    0  0.76639183445E+01 -0.25924374012E+01 -0.33081608195E+01  0.87407267627E+01  0.51100000000E-03 0.  1.
        -12    1    3    3    0    0  0.17193700771E+02  0.18818537092E+02 -0.12582619943E+02  0.28426800895E+02  0.00000000000E+00 0.  1.
</event>
<event>
 7    1  0.5005325E-012  0.5052886E+02  0.7816164E-02  0.1300439E+00
        -11   -1    0    0    0    0  0.00000000000E+00  0.00000000000E+00  0.45593999997E+02  0.45594000000E+02  0.51100000000E-03 0. -1.
         11   -1    0    0    0    0 -0.00000000000E+00 -0.00000000000E+00 -0.45593999997E+02  0.45594000000E+02  0.51100000000E-03 0.  1.
    9900012    2    1    2    0    0  0.31948691196E+02  0.24297567205E+02 -0.64865342995E+01  0.50528858735E+02  0.29999996610E+02 0.  0.
        -12    1    1    2    0    0 -0.31948691196E+02 -0.24297567205E+02  0.64865342995E+01  0.40659141265E+02  0.00000000000E+00 0.  1.
         11    1    3    3    0    0  0.93979239546E+01  0.65302108939E+01 -0.42961722461E+01  0.12223817947E+02  0.51100000000E-03 0. -1.
        -11    1    3    3    0    0  0.60060502478E+01  0.20590774581E+02 -0.80226135564E+00  0.21463836120E+02  0.51100000000E-03 0.  1.
        -12    1    3    3    0    0  0.16544716993E+02 -0.28234182701E+01 -0.13881006977E+01  0.16841204668E+02  0.00000000000E+00 0.  1.
</event>
<event>
 7    1  0.5005325E-012  0.5052885E+02  0.7816164E-02  0.1300439E+00
        -11   -1    0    0    0    0  0.00000000000E+00  0.00000000000E+00  0.45593999997E+02  0.45594000000E+02  0.51100000000E-03 0. -1.
         11   -1    0    0    0    0 -0.00000000000E+00 -0.00000000000E+00 -0.45593999997E+02  0.45594000000E+02  0.51100000000E-03 0.  1.
    9900012    2    1    2    0    0 -0.73979640380E+00  0.15901358990E+01 -0.40621303142E+02  0.50528854659E+02  0.29999984221E+02 0.  0.
         12    1    1    2    0    0  0.73979640380E+00 -0.15901358990E+01  0.40621303142E+02  0.40659145341E+02  0.00000000000E+00 0. -1.
         11    1    3    3    0    0  0.16750297467E+01  0.69590234143E+01 -0.11255188149E+01  0.72457245598E+01  0.51100000000E-03 0. -1.
        -11    1    3    3    0    0  0.54861316400E+01  0.72400603696E+00 -0.25509311681E+02  0.26102620708E+02  0.51100000000E-03 0.  1.
         12    1    3    3    0    0 -0.79009577905E+01 -0.60928935523E+01 -0.13986472646E+02  0.17180509391E+02  0.00000000000E+00 0. -1.
</event>
<event>
 7    1  0.5005325E-012  0.5052886E+02  0.7816164E-02  0.1300439E+00
        -11   -1    0    0    0    0  0.00000000000E+00  0.00000000000E+00  0.45593999997E+02  0.45594000000E+02  0.51100000000E-03 0. -1.
         11   -1    0    0    0    0 -0.00000000000E+00 -0.00000000000E+00 -0.45593999997E+02  0.45594000000E+02  0.51100000000E-03 0.  1.
    9900012    2    1    2    0    0  0.72855531811E+01 -0.19053485739E+02  0.35171739512E+02  0.50528857557E+02  0.29999993029E+02 0.  0.
        -12    1    1    2    0    0 -0.72855531811E+01  0.19053485739E+02 -0.35171739512E+02  0.40659142443E+02  0.00000000000E+00 0.  1.
         11    1    3    3    0    0 -0.51442135089E+01 -0.58720306435E+01  0.29662286705E+02  0.30672380562E+02  0.51100000000E-03 0. -1.
        -11    1    3    3    0    0 -0.21533954975E-01 -0.27635964439E+01  0.18073274593E+00  0.27695836515E+01  0.51100000000E-03 0.  1.
         12    1    3    3    0    0  0.12451300645E+02 -0.10417858651E+02  0.53287200609E+01  0.17086893343E+02  0.00000000000E+00 0. -1.
</event>
<event>
 7    1  0.5005325E-012  0.5052886E+02  0.7816164E-02  0.1300439E+00
        -11   -1    0    0    0    0  0.00000000000E+00  0.00000000000E+00  0.45593999997E+02  0.45594000000E+02  0.51100000000E-03 0.  1.
         11   -1    0    0    0    0 -0.00000000000E+00 -0.00000000000E+00 -0.45593999997E+02  0.45594000000E+02  0.51100000000E-03 0. -1.
    9900012    2    1    2    0    0 -0.25210324642E+02  0.31042814729E+02  0.73449636173E+01  0.50528864429E+02  0.30000013918E+02 0.  0.
        -12    1    1    2    0    0  0.25210324642E+02 -0.31042814729E+02 -0.73449636173E+01  0.40659135571E+02  0.00000000000E+00 0.  1.
         11    1    3    3    0    0 -0.13131746500E+02  0.92570895478E+01  0.29203719021E+01  0.16329881976E+02  0.51100000000E-03 0. -1.
        -11    1    3    3    0    0 -0.12805927324E+02  0.17882606322E+02 -0.62038657802E+01  0.22853169023E+02  0.51100000000E-03 0.  1.
        -12    1    3    3    0    0  0.72734918163E+00  0.39031188587E+01  0.10628457495E+02  0.11345813430E+02  0.00000000000E+00 0.  1.
</event>
<event>
 7    1  0.5005325E-012  0.5052886E+02  0.7816164E-02  0.1300439E+00
        -11   -1    0    0    0    0  0.00000000000E+00  0.00000000000E+00  0.45593999997E+02  0.45594000000E+02  0.51100000000E-03 0. -1.
         11   -1    0    0    0    0 -0.00000000000E+00 -0.00000000000E+00 -0.45593999997E+02  0.45594000000E+02  0.51100000000E-03 0.  1.
    9900012    2    1    2    0    0 -0.25166620991E+02 -0.26913839734E+02  0.17188717008E+02  0.50528861129E+02  0.30000003888E+02 0.  0.
        -12    1    1    2    0    0  0.25166620991E+02  0.26913839734E+02 -0.17188717008E+02  0.40659138871E+02  0.00000000000E+00 0.  1.
         11    1    3    3    0    0 -0.29062766427E+01 -0.45358441268E+01  0.17308323653E+02  0.18127283133E+02  0.51100000000E-03 0. -1.
        -11    1    3    3    0    0 -0.48850207955E+01 -0.66772819771E+01  0.29486846326E+01  0.87831807506E+01  0.51100000000E-03 0.  1.
        -12    1    3    3    0    0 -0.17375323553E+02 -0.15700713630E+02 -0.30682912775E+01  0.23618397245E+02  0.00000000000E+00 0.  1.
</event>
<event>
 7    1  0.5005325E-012  0.5052886E+02  0.7816164E-02  0.1300439E+00
        -11   -1    0    0    0    0  0.00000000000E+00  0.00000000000E+00  0.45593999997E+02  0.45594000000E+02  0.51100000000E-03 0. -1.
         11   -1    0    0    0    0 -0.00000000000E+00 -0.00000000000E+00 -0.45593999997E+02  0.45594000000E+02  0.51100000000E-03 0.  1.
    9900012    2    1    2    0    0 -0.19918952685E+02  0.31294221225E+02  0.16645491842E+02  0.50528863797E+02  0.30000011997E+02 0.  0.
        -12    1    1    2    0    0  0.19918952685E+02 -0.31294221225E+02 -0.16645491842E+02  0.40659136203E+02  0.00000000000E+00 0.  1.
         11    1    3    3    0    0 -0.44524243314E+01  0.13109248189E+02 -0.46804140627E+01  0.14614470451E+02  0.51100000000E-03 0.  1.
        -11    1    3    3    0    0 -0.11061409046E+02  0.16823993548E+02  0.77460446078E+01  0.21573194856E+02  0.51100000000E-03 0. -1.
         12    1    3    3    0    0 -0.44051193073E+01  0.13609794883E+01  0.13579861297E+02  0.14341198490E+02  0.00000000000E+00 0. -1.
</event>
<event>
 7    1  0.5005325E-012  0.5052885E+02  0.7816164E-02  0.1300439E+00
        -11   -1    0    0    0    0  0.00000000000E+00  0.00000000000E+00  0.45593999997E+02  0.45594000000E+02  0.51100000000E-03 0. -1.
         11   -1    0    0    0    0 -0.00000000000E+00 -0.00000000000E+00 -0.45593999997E+02  0.45594000000E+02  0.51100000000E-03 0.  1.
    9900012    2    1    2    0    0  0.16566242312E+02  0.22736391552E+02 -0.29356130099E+02  0.50528852695E+02  0.29999978252E+02 0.  0.
         12    1    1    2    0    0 -0.16566242312E+02 -0.22736391552E+02  0.29356130099E+02  0.40659147305E+02  0.00000000000E+00 0. -1.
         11    1    3    3    0    0  0.58213977489E+01  0.15296804176E+02 -0.13829275414E+02  0.21427313143E+02  0.51100000000E-03 0. -1.
        -11    1    3    3    0    0  0.24608854221E+01  0.93148440424E+01  0.18034751629E+01  0.98017753249E+01  0.51100000000E-03 0.  1.
        -12    1    3    3    0    0  0.82839591410E+01 -0.18752566667E+01 -0.17330329848E+02  0.19299764228E+02  0.00000000000E+00 0.  1.
</event>
<event>
 7    1  0.5005325E-012  0.5052887E+02  0.7816164E-02  0.1300439E+00
        -11   -1    0    0    0    0  0.00000000000E+00  0.00000000000E+00  0.45593999997E+02  0.45594000000E+02  0.51100000000E-03 0. -1.
         11   -1    0    0    0    0 -0.00000000000E+00 -0.00000000000E+00 -0.45593999997E+02  0.45594000000E+02  0.51100000000E-03 0.  1.
    9900012    2    1    2    0    0 -0.18857289040E+02 -0.10338832600E+02  0.34506179791E+02  0.50528865070E+02  0.30000015867E+02 0.  0.
        -12    1    1    2    0    0  0.18857289040E+02  0.10338832600E+02 -0.34506179791E+02  0.40659134930E+02  0.00000000000E+00 0.  1.
         11    1    3    3    0    0  0.22232383661E+01 -0.50231350022E+01  0.82999218729E+01  0.99530586977E+01  0.51100000000E-03 0. -1.
        -11    1    3    3    0    0  0.17514442615E+01 -0.77236874245E+01  0.53420401487E+01  0.95530255754E+01  0.51100000000E-03 0.  1.
         12    1    3    3    0    0 -0.22831971668E+02  0.24079898271E+01  0.20864217770E+02  0.31022780797E+02  0.00000000000E+00 0. -1.
</event>
<event>
 7    1  0.5005325E-012  0.5052886E+02  0.7816164E-02  0.1300439E+00
        -11   -1    0    0    0    0  0.00000000000E+00  0.00000000000E+00  0.45593999997E+02  0.45594000000E+02  0.51100000000E-03 0. -1.
         11   -1    0    0    0    0 -0.00000000000E+00 -0.00000000000E+00 -0.45593999997E+02  0.45594000000E+02  0.51100000000E-03 0.  1.
    9900012    2    1    2    0    0 -0.12256135592E+02 -0.12161870483E+02 -0.36810890686E+02  0.50528860481E+02  0.30000001919E+02 0.  0.
         12    1    1    2    0    0  0.12256135592E+02  0.12161870483E+02  0.36810890686E+02  0.40659139519E+02  0.00000000000E+00 0. -1.
         11    1    3    3    0    0 -0.61343558500E+00  0.56480368823E+01 -0.22923157063E+02  0.23616683803E+02  0.51100000000E-03 0. -1.
        -11    1    3    3    0    0 -0.20577715773E+01 -0.66297115228E+01 -0.90620133597E+01  0.11415234782E+02  0.51100000000E-03 0.  1.
        -12    1    3    3    0    0 -0.95849284293E+01 -0.11180195842E+02 -0.48257202631E+01  0.15496941896E+02  0.00000000000E+00 0.  1.
</event>
<event>
 7    1  0.5005325E-012  0.5052886E+02  0.7816164E-02  0.1300439E+00
        -11   -1    0    0    0    0  0.00000000000E+00  0.00000000000E+00  0.45593999997E+02  0.45594000000E+02  0.51100000000E-03 0.  1.
         11   -1    0    0    0    0 -0.00000000000E+00 -0.00000000000E+00 -0.45593999997E+02  0.45594000000E+02  0.51100000000E-03 0. -1.
    9900012    2    1    2    0    0 -0.31701516900E+02  0.25358849633E+02 -0.22600715459E+01  0.50528863857E+02  0.30000012180E+02 0.  0.
        -12    1    1    2    0    0  0.31701516900E+02 -0.25358849633E+02  0.22600715459E+01  0.40659136143E+02  0.00000000000E+00 0.  1.
         11    1    3    3    0    0 -0.19181904117E+02  0.19025244787E+02 -0.38256882205E+01  0.27286283649E+02  0.51100000000E-03 0. -1.
        -11    1    3    3    0    0 -0.96012029180E+01  0.10421683962E+02  0.70318487702E+01  0.15819023088E+02  0.51100000000E-03 0.  1.
         12    1    3    3    0    0 -0.29184098650E+01 -0.40880791154E+01 -0.54662320955E+01  0.74235571202E+01  0.00000000000E+00 0. -1.
</event>
<event>
 7    1  0.5005325E-012  0.5052885E+02  0.7816164E-02  0.1300439E+00
        -11   -1    0    0    0    0  0.00000000000E+00  0.00000000000E+00  0.45593999997E+02  0.45594000000E+02  0.51100000000E-03 0. -1.
         11   -1    0    0    0    0 -0.00000000000E+00 -0.00000000000E+00 -0.45593999997E+02  0.45594000000E+02  0.51100000000E-03 0.  1.
    9900012    2    1    2    0    0 -0.23651249842E+02  0.25887204357E+01 -0.32970946825E+02  0.50528850634E+02  0.29999971988E+02 0.  0.
         12    1    1    2    0    0  0.23651249842E+02 -0.25887204357E+01  0.32970946825E+02  0.40659149366E+02  0.00000000000E+00 0. -1.
         11    1    3    3    0    0 -0.15187987475E+02 -0.11155596262E+02 -0.26456565523E+02  0.32481874192E+02  0.51100000000E-03 0.  1.
        -11    1    3    3    0    0 -0.12478754172E+01  0.63385214314E+01 -0.19801267927E+01  0.67568446312E+01  0.51100000000E-03 0. -1.
        -12    1    3    3    0    0 -0.72153869493E+01  0.74057952658E+01 -0.45342545097E+01  0.11290131811E+02  0.00000000000E+00 0.  1.
</event>
<event>
 7    1  0.5005325E-012  0.5052885E+02  0.7816164E-02  0.1300439E+00
        -11   -1    0    0    0    0  0.00000000000E+00  0.00000000000E+00  0.45593999997E+02  0.45594000000E+02  0.51100000000E-03 0. -1.
         11   -1    0    0    0    0 -0.00000000000E+00 -0.00000000000E+00 -0.45593999997E+02  0.45594000000E+02  0.51100000000E-03 0.  1.
    9900012    2    1    2    0    0 -0.17833740589E+02  0.15970923179E+02 -0.32864172646E+02  0.50528849316E+02  0.29999967981E+02 0.  0.
         12    1    1    2    0    0  0.17833740589E+02 -0.15970923179E+02  0.32864172646E+02  0.40659150684E+02  0.00000000000E+00 0. -1.
         11    1    3    3    0    0 -0.10179635447E+02  0.49919863652E+01 -0.96680030104E+00  0.11378910703E+02  0.51100000000E-03 0. -1.
        -11    1    3    3    0    0 -0.13321099940E+02  0.10592879379E+02 -0.23859677854E+02  0.29307763898E+02  0.51100000000E-03 0.  1.
        -12    1    3    3    0    0  0.56669947979E+01  0.38605743489E+00 -0.80376944915E+01  0.98421747150E+01  0.00000000000E+00 0.  1.
</event>
<event>
 7    1  0.5005325E-012  0.5052886E+02  0.7816164E-02  0.1300439E+00
        -11   -1    0    0    0    0  0.00000000000E+00  0.00000000000E+00  0.45593999997E+02  0.45594000000E+02  0.51100000000E-03 0. -1.
         11   -1    0    0    0    0 -0.00000000000E+00 -0.00000000000E+00 -0.45593999997E+02  0.45594000000E+02  0.51100000000E-03 0.  1.
    9900012    2    1    2    0    0  0.80273293693E+00  0.58093690390E+00  0.40647066924E+02  0.50528856903E+02  0.29999991043E+02 0.  0.
        -12    1    1    2    0    0 -0.80273293693E+00 -0.58093690390E+00 -0.40647066924E+02  0.40659143097E+02  0.00000000000E+00 0.  1.
         11    1    3    3    0    0  0.57710908675E+01 -0.38665096267E+01  0.37857004723E+02  0.38489065894E+02  0.51100000000E-03 0. -1.
        -11    1    3    3    0    0  0.21462223451E+01 -0.13224692947E+01  0.24629073845E+00  0.25329537656E+01  0.51100000000E-03 0.  1.
        -12    1    3    3    0    0 -0.71145802757E+01  0.57699158253E+01  0.25437714618E+01  0.95068372438E+01  0.00000000000E+00 0.  1.
</event>
<event>
 7    1  0.5005325E-012  0.5052885E+02  0.7816164E-02  0.1300439E+00
        -11   -1    0    0    0    0  0.00000000000E+00  0.00000000000E+00  0.45593999997E+02  0.45594000000E+02  0.51100000000E-03 0. -1.
         11   -1    0    0    0    0 -0.00000000000E+00 -0.00000000000E+00 -0.45593999997E+02  0.45594000000E+02  0.51100000000E-03 0.  1.
    9900012    2    1    2    0    0 -0.30005316671E+02  0.33408826866E+01  0.27233908992E+02  0.50528851895E+02  0.29999975819E+02 0.  0.
        -12    1    1    2    0    0  0.30005316671E+02 -0.33408826866E+01 -0.27233908992E+02  0.40659148105E+02  0.00000000000E+00 0.  1.
         11    1    3    3    0    0 -0.14080713376E+02 -0.59548418387E+01  0.11969324495E+02  0.19416265337E+02  0.51100000000E-03 0. -1.
        -11    1    3    3    0    0 -0.20337143556E+02  0.56902063279E+01  0.10046552251E+02  0.23386129831E+02  0.51100000000E-03 0.  1.
         12    1    3    3    0    0  0.44125402611E+01  0.36055181974E+01  0.52180322461E+01  0.77264567266E+01  0.00000000000E+00 0. -1.
</event>
<event>
 7    1  0.5005325E-012  0.5052886E+02  0.7816164E-02  0.1300439E+00
        -11   -1    0    0    0    0  0.00000000000E+00  0.00000000000E+00  0.45593999997E+02  0.45594000000E+02  0.51100000000E-03 0. -1.
         11   -1    0    0    0    0 -0.00000000000E+00 -0.00000000000E+00 -0.45593999997E+02  0.45594000000E+02  0.51100000000E-03 0.  1.
    9900012    2    1    2    0    0  0.88094080281E+01  0.81355886342E+00  0.39684982054E+02  0.50528863900E+02  0.30000012309E+02 0.  0.
        -12    1    1    2    0    0 -0.88094080281E+01 -0.81355886342E+00 -0.39684982054E+02  0.40659136100E+02  0.00000000000E+00 0.  1.
         11    1    3    3    0    0  0.18004329196E+01  0.49301591051E+00  0.19899190220E+02  0.19986555358E+02  0.51100000000E-03 0. -1.
        -11    1    3    3    0    0  0.74275098174E+01 -0.91913248451E+01  0.16846286611E+02  0.20577796950E+02  0.51100000000E-03 0.  1.
         12    1    3    3    0    0 -0.41853470889E+00  0.95118677980E+01  0.29395052230E+01  0.99645115919E+01  0.00000000000E+00 0. -1.
</event>
<event>
 7    1  0.5005325E-012  0.5052890E+02  0.7816164E-02  0.1300439E+00
        -11   -1    0    0    0    0  0.00000000000E+00  0.00000000000E+00  0.45593999997E+02  0.45594000000E+02  0.51100000000E-03 0. -1.
         11   -1    0    0    0    0 -0.00000000000E+00 -0.00000000000E+00 -0.45593999997E+02  0.45594000000E+02  0.51100000000E-03 0.  1.
    9900012    2    1    2    0    0  0.98704123942E+01 -0.18079879462E+02 -0.35055037177E+02  0.50528896300E+02  0.30000110793E+02 0.  0.
         12    1    1    2    0    0 -0.98704123942E+01  0.18079879462E+02  0.35055037177E+02  0.40659103700E+02  0.00000000000E+00 0. -1.
         11    1    3    3    0    0 -0.41508601085E+01 -0.62654009947E+01 -0.13685262879E+01  0.76392246809E+01  0.51100000000E-03 0. -1.
        -11    1    3    3    0    0 -0.25948214735E+01 -0.14313156343E+01  0.93580247496E+00  0.31076501504E+01  0.51100000000E-03 0.  1.
        -12    1    3    3    0    0  0.16616093976E+02 -0.10383162833E+02 -0.34622313364E+02  0.39782021469E+02  0.00000000000E+00 0.  1.
</event>
<event>
 7    1  0.5005325E-012  0.5052885E+02  0.7816164E-02  0.1300439E+00
        -11   -1    0    0    0    0  0.00000000000E+00  0.00000000000E+00  0.45593999997E+02  0.45594000000E+02  0.51100000000E-03 0. -1.
         11   -1    0    0    0    0 -0.00000000000E+00 -0.00000000000E+00 -0.45593999997E+02  0.45594000000E+02  0.51100000000E-03 0.  1.
    9900012    2    1    2    0    0  0.24262750892E+02 -0.19626073502E+02  0.26063428227E+02  0.50528854253E+02  0.29999982987E+02 0.  0.
        -12    1    1    2    0    0 -0.24262750892E+02  0.19626073502E+02 -0.26063428227E+02  0.40659145747E+02  0.00000000000E+00 0.  1.
         11    1    3    3    0    0  0.37635625419E+01 -0.98927128505E+01  0.46737081257E+01  0.11570381085E+02  0.51100000000E-03 0. -1.
        -11    1    3    3    0    0  0.51639915773E+01  0.72256774571E+01  0.10130191839E+02  0.13472119755E+02  0.51100000000E-03 0.  1.
        -12    1    3    3    0    0  0.15335196772E+02 -0.16959038109E+02  0.11259528262E+02  0.25486353413E+02  0.00000000000E+00 0.  1.
</event>
<event>
 7    1  0.5005325E-012  0.5052886E+02  0.7816164E-02  0.1300439E+00
        -11   -1    0    0    0    0  0.00000000000E+00  0.00000000000E+00  0.45593999997E+02  0.45594000000E+02  0.51100000000E-03 0. -1.
         11   -1    0    0    0    0 -0.00000000000E+00 -0.00000000000E+00 -0.45593999997E+02  0.45594000000E+02  0.51100000000E-03 0.  1.
    9900012    2    1    2    0    0 -0.22632721734E+02  0.23686841569E+02 -0.24080257908E+02  0.50528863541E+02  0.30000011221E+02 0.  0.
         12    1    1    2    0    0  0.22632721734E+02 -0.23686841569E+02  0.24080257908E+02  0.40659136459E+02  0.00000000000E+00 0. -1.
         11    1    3    3    0    0 -0.32369982249E+01 -0.10807135705E+01  0.21770373750E+01  0.40479119707E+01  0.51100000000E-03 0.  1.
        -11    1    3    3    0    0  0.40101707605E+01  0.96089325119E+01 -0.60379704221E+01  0.12036201254E+02  0.51100000000E-03 0. -1.
        -12    1    3    3    0    0 -0.23405894270E+02  0.15158622628E+02 -0.20219324861E+02  0.34444750317E+02  0.00000000000E+00 0.  1.
</event>
<event>
 7    1  0.5005325E-012  0.5052886E+02  0.7816164E-02  0.1300439E+00
        -11   -1    0    0    0    0  0.00000000000E+00  0.00000000000E+00  0.45593999997E+02  0.45594000000E+02  0.51100000000E-03 0. -1.
         11   -1    0    0    0    0 -0.00000000000E+00 -0.00000000000E+00 -0.45593999997E+02  0.45594000000E+02  0.51100000000E-03 0.  1.
    9900012    2    1    2    0    0  0.19186401629E+02 -0.84495804660E+01  0.34837508403E+02  0.50528863152E+02  0.30000010038E+02 0.  0.
        -12    1    1    2    0    0 -0.19186401629E+02  0.84495804660E+01 -0.34837508403E+02  0.40659136848E+02  0.00000000000E+00 0.  1.
         11    1    3    3    0    0  0.88869976656E+01  0.36892204655E+01  0.47696512070E+01  0.10739583234E+02  0.51100000000E-03 0. -1.
        -11    1    3    3    0    0  0.12047592514E+02 -0.12082986937E+02  0.10271892693E+02  0.19916195381E+02  0.51100000000E-03 0.  1.
        -12    1    3    3    0    0 -0.17481885511E+01 -0.55813994258E-01  0.19795964502E+02  0.19873084536E+02  0.00000000000E+00 0.  1.
</event>
<event>
 7    1  0.5005325E-012  0.5052886E+02  0.7816164E-02  0.1300439E+00
        -11   -1    0    0    0    0  0.00000000000E+00  0.00000000000E+00  0.45593999997E+02  0.45594000000E+02  0.51100000000E-03 0. -1.
         11   -1    0    0    0    0 -0.00000000000E+00 -0.00000000000E+00 -0.45593999997E+02  0.45594000000E+02  0.51100000000E-03 0.  1.
    9900012    2    1    2    0    0  0.12448351935E+02 -0.42956661424E+01 -0.38467540038E+02  0.50528857731E+02  0.29999993559E+02 0.  0.
         12    1    1    2    0    0 -0.12448351935E+02  0.42956661424E+01  0.38467540038E+02  0.40659142269E+02  0.00000000000E+00 0. -1.
         11    1    3    3    0    0 -0.38575708527E+01 -0.79808115138E+00 -0.43163721635E+01  0.58437021932E+01  0.51100000000E-03 0.  1.
        -11    1    3    3    0    0  0.86682369027E+01 -0.89004816018E+01 -0.39021601258E+01  0.13022432862E+02  0.51100000000E-03 0. -1.
        -12    1    3    3    0    0  0.76376858852E+01  0.54028966108E+01 -0.30249007748E+02  0.31662722675E+02  0.00000000000E+00 0.  1.
</event>
<event>
 7    1  0.5005325E-012  0.5052885E+02  0.7816164E-02  0.1300439E+00
        -11   -1    0    0    0    0  0.00000000000E+00  0.00000000000E+00  0.45593999997E+02  0.45594000000E+02  0.51100000000E-03 0. -1.
         11   -1    0    0    0    0 -0.00000000000E+00 -0.00000000000E+00 -0.45593999997E+02  0.45594000000E+02  0.51100000000E-03 0.  1.
    9900012    2    1    2    0    0 -0.19396302182E+02 -0.12266733906E+02 -0.33563034682E+02  0.50528848556E+02  0.29999965672E+02 0.  0.
         12    1    1    2    0    0  0.19396302182E+02  0.12266733906E+02  0.33563034682E+02  0.40659151444E+02  0.00000000000E+00 0. -1.
         11    1    3    3    0    0  0.51007707791E+00 -0.92703592770E+01 -0.31459460020E+00  0.92897098865E+01  0.51100000000E-03 0. -1.
        -11    1    3    3    0    0 -0.62631521091E+01 -0.51418874634E+01 -0.21941627611E+02  0.23390192464E+02  0.51100000000E-03 0.  1.
        -12    1    3    3    0    0 -0.13643227151E+02  0.21455128342E+01 -0.11306812470E+02  0.17848946206E+02  0.00000000000E+00 0.  1.
</event>
<event>
 7    1  0.5005325E-012  0.5052887E+02  0.7816164E-02  0.1300439E+00
        -11   -1    0    0    0    0  0.00000000000E+00  0.00000000000E+00  0.45593999997E+02  0.45594000000E+02  0.51100000000E-03 0.  1.
         11   -1    0    0    0    0 -0.00000000000E+00 -0.00000000000E+00 -0.45593999997E+02  0.45594000000E+02  0.51100000000E-03 0. -1.
    9900012    2    1    2    0    0  0.28360459606E+02  0.26930129117E+02  0.11118338521E+02  0.50528868494E+02  0.30000026275E+02 0.  0.
        -12    1    1    2    0    0 -0.28360459606E+02 -0.26930129117E+02 -0.11118338521E+02  0.40659131506E+02  0.00000000000E+00 0.  1.
         11    1    3    3    0    0  0.16636785257E+02  0.73424330876E+01  0.14758388195E+02  0.23420161607E+02  0.51100000000E-03 0. -1.
        -11    1    3    3    0    0  0.31921745863E+00 -0.22109394289E+01 -0.64676920665E+00  0.23256103740E+01  0.51100000000E-03 0.  1.
         12    1    3    3    0    0  0.11404456891E+02  0.21798635458E+02 -0.29932804674E+01  0.24783096513E+02  0.00000000000E+00 0. -1.
</event>
<event>
 7    1  0.5005325E-012  0.5052886E+02  0.7816164E-02  0.1300439E+00
        -11   -1    0    0    0    0  0.00000000000E+00  0.00000000000E+00  0.45593999997E+02  0.45594000000E+02  0.51100000000E-03 0. -1.
         11   -1    0    0    0    0 -0.00000000000E+00 -0.00000000000E+00 -0.45593999997E+02  0.45594000000E+02  0.51100000000E-03 0.  1.
    9900012    2    1    2    0    0 -0.13097156027E+02 -0.11241124457E+02  0.36813953682E+02  0.50528861289E+02  0.30000004374E+02 0.  0.
        -12    1    1    2    0    0  0.13097156027E+02  0.11241124457E+02 -0.36813953682E+02  0.40659138711E+02  0.00000000000E+00 0.  1.
         11    1    3    3    0    0 -0.65787359963E+01  0.71239619713E+01  0.74631752892E+01  0.12236404175E+02  0.51100000000E-03 0. -1.
        -11    1    3    3    0    0 -0.33839510386E+01 -0.60737088454E+01  0.73532944742E+00  0.69915501448E+01  0.51100000000E-03 0.  1.
        -12    1    3    3    0    0 -0.31344689921E+01 -0.12291377583E+02  0.28615448945E+02  0.31300906969E+02  0.00000000000E+00 0.  1.
</event>
<event>
 7    1  0.5005325E-012  0.5052885E+02  0.7816164E-02  0.1300439E+00
        -11   -1    0    0    0    0  0.00000000000E+00  0.00000000000E+00  0.45593999997E+02  0.45594000000E+02  0.51100000000E-03 0. -1.
         11   -1    0    0    0    0 -0.00000000000E+00 -0.00000000000E+00 -0.45593999997E+02  0.45594000000E+02  0.51100000000E-03 0.  1.
    9900012    2    1    2    0    0  0.14786506036E+02 -0.63638413138E+01  0.37336670685E+02  0.50528853245E+02  0.29999979923E+02 0.  0.
        -12    1    1    2    0    0 -0.14786506036E+02  0.63638413138E+01 -0.37336670685E+02  0.40659146755E+02  0.00000000000E+00 0.  1.
         11    1    3    3    0    0  0.49133695968E+01  0.69580771506E+00  0.95621585384E+01  0.10773125143E+02  0.51100000000E-03 0. -1.
        -11    1    3    3    0    0  0.12150265040E+02 -0.15070133637E+02  0.14925617839E+02  0.24444057284E+02  0.51100000000E-03 0.  1.
         12    1    3    3    0    0 -0.22771286009E+01  0.80104846078E+01  0.12848894307E+02  0.15311670818E+02  0.00000000000E+00 0. -1.
</event>
<event>
 7    1  0.5005325E-012  0.5052886E+02  0.7816164E-02  0.1300439E+00
        -11   -1    0    0    0    0  0.00000000000E+00  0.00000000000E+00  0.45593999997E+02  0.45594000000E+02  0.51100000000E-03 0. -1.
         11   -1    0    0    0    0 -0.00000000000E+00 -0.00000000000E+00 -0.45593999997E+02  0.45594000000E+02  0.51100000000E-03 0.  1.
    9900012    2    1    2    0    0 -0.11547454831E+02 -0.69776062923E+01  0.38355379772E+02  0.50528857608E+02  0.29999993184E+02 0.  0.
        -12    1    1    2    0    0  0.11547454831E+02  0.69776062923E+01 -0.38355379772E+02  0.40659142392E+02  0.00000000000E+00 0.  1.
         11    1    3    3    0    0 -0.92185233526E+01  0.57583909693E+01  0.89081359924E+01  0.14053295929E+02  0.51100000000E-03 0. -1.
        -11    1    3    3    0    0 -0.94635889672E+01 -0.81122280406E+01  0.13307126147E+02  0.18233139238E+02  0.51100000000E-03 0.  1.
         12    1    3    3    0    0  0.71346574889E+01 -0.46237692209E+01  0.16140117632E+02  0.18242422440E+02  0.00000000000E+00 0. -1.
</event>
<event>
 7    1  0.5005325E-012  0.5052883E+02  0.7816164E-02  0.1300439E+00
        -11   -1    0    0    0    0  0.00000000000E+00  0.00000000000E+00  0.45593999997E+02  0.45594000000E+02  0.51100000000E-03 0. -1.
         11   -1    0    0    0    0 -0.00000000000E+00 -0.00000000000E+00 -0.45593999997E+02  0.45594000000E+02  0.51100000000E-03 0.  1.
    9900012    2    1    2    0    0 -0.20080486504E+02 -0.16758331747E+02  0.31130378342E+02  0.50528830346E+02  0.29999910320E+02 0.  0.
        -12    1    1    2    0    0  0.20080486504E+02  0.16758331747E+02 -0.31130378342E+02  0.40659169654E+02  0.00000000000E+00 0.  1.
         11    1    3    3    0    0 -0.18444409909E+02 -0.12616233802E+02  0.25914684154E+02  0.34218948951E+02  0.51100000000E-03 0. -1.
        -11    1    3    3    0    0  0.31837811729E+01 -0.83939648967E+01  0.23986719444E+01  0.92924020900E+01  0.51100000000E-03 0.  1.
        -12    1    3    3    0    0 -0.48198577682E+01  0.42518669514E+01  0.28170222441E+01  0.70174793054E+01  0.00000000000E+00 0.  1.
</event>
<event>
 7    1  0.5005325E-012  0.5052885E+02  0.7816164E-02  0.1300439E+00
        -11   -1    0    0    0    0  0.00000000000E+00  0.00000000000E+00  0.45593999997E+02  0.45594000000E+02  0.51100000000E-03 0. -1.
         11   -1    0    0    0    0 -0.00000000000E+00 -0.00000000000E+00 -0.45593999997E+02  0.45594000000E+02  0.51100000000E-03 0.  1.
    9900012    2    1    2    0    0 -0.25604510775E+02  0.16503996316E+02 -0.26929416235E+02  0.50528851888E+02  0.29999975800E+02 0.  0.
         12    1    1    2    0    0  0.25604510775E+02 -0.16503996316E+02  0.26929416235E+02  0.40659148112E+02  0.00000000000E+00 0. -1.
         11    1    3    3    0    0 -0.47375720013E+01  0.74820293116E+01  0.29994983506E+01  0.93499915349E+01  0.51100000000E-03 0. -1.
        -11    1    3    3    0    0 -0.11907936376E+02 -0.23969875454E+01 -0.69341617145E+01  0.13986675694E+02  0.51100000000E-03 0.  1.
         12    1    3    3    0    0 -0.89590023977E+01  0.11418954550E+02 -0.22994752871E+02  0.27192184660E+02  0.00000000000E+00 0. -1.
</event>
<event>
 7    1  0.5005325E-012  0.5052885E+02  0.7816164E-02  0.1300439E+00
        -11   -1    0    0    0    0  0.00000000000E+00  0.00000000000E+00  0.45593999997E+02  0.45594000000E+02  0.51100000000E-03 0.  1.
         11   -1    0    0    0    0 -0.00000000000E+00 -0.00000000000E+00 -0.45593999997E+02  0.45594000000E+02  0.51100000000E-03 0. -1.
    9900012    2    1    2    0    0  0.13279340287E+02 -0.29764585785E+02  0.24308324785E+02  0.50528854666E+02  0.29999984244E+02 0.  0.
        -12    1    1    2    0    0 -0.13279340287E+02  0.29764585785E+02 -0.24308324785E+02  0.40659145334E+02  0.00000000000E+00 0.  1.
         11    1    3    3    0    0  0.83666605037E+01 -0.14691601799E+02  0.16413631655E+02  0.23563774651E+02  0.51100000000E-03 0. -1.
        -11    1    3    3    0    0 -0.12182159870E+01  0.10895233274E+01  0.94673991324E+01  0.96074324283E+01  0.51100000000E-03 0.  1.
         12    1    3    3    0    0  0.61308957704E+01 -0.16162507313E+02 -0.15727060027E+01  0.17357647587E+02  0.00000000000E+00 0. -1.
</event>
<event>
 7    1  0.5005325E-012  0.5052872E+02  0.7816164E-02  0.1300439E+00
        -11   -1    0    0    0    0  0.00000000000E+00  0.00000000000E+00  0.45593999997E+02  0.45594000000E+02  0.51100000000E-03 0. -1.
         11   -1    0    0    0    0 -0.00000000000E+00 -0.00000000000E+00 -0.45593999997E+02  0.45594000000E+02  0.51100000000E-03 0.  1.
    9900012    2    1    2    0    0  0.14708191533E+02  0.24481730508E+02  0.28939430498E+02  0.50528724744E+02  0.29999589328E+02 0.  0.
        -12    1    1    2    0    0 -0.14708191533E+02 -0.24481730508E+02 -0.28939430498E+02  0.40659275256E+02  0.00000000000E+00 0.  1.
         11    1    3    3    0    0  0.12121989525E+01 -0.16508090795E+01 -0.93951355207E+00  0.22532826927E+01  0.51100000000E-03 0. -1.
        -11    1    3    3    0    0 -0.25429934560E+01 -0.34387077200E+01  0.33238951041E+01  0.54166230647E+01  0.51100000000E-03 0.  1.
         12    1    3    3    0    0  0.16038986036E+02  0.29571247308E+02  0.26555048946E+02  0.42858818986E+02  0.00000000000E+00 0. -1.
</event>
<event>
 7    1  0.5005325E-012  0.5052877E+02  0.7816164E-02  0.1300439E+00
        -11   -1    0    0    0    0  0.00000000000E+00  0.00000000000E+00  0.45593999997E+02  0.45594000000E+02  0.51100000000E-03 0. -1.
         11   -1    0    0    0    0 -0.00000000000E+00 -0.00000000000E+00 -0.45593999997E+02  0.45594000000E+02  0.51100000000E-03 0.  1.
    9900012    2    1    2    0    0 -0.28766937883E+02 -0.11780064619E+01 -0.28709723840E+02  0.50528774019E+02  0.29999739106E+02 0.  0.
         12    1    1    2    0    0  0.28766937883E+02  0.11780064619E+01  0.28709723840E+02  0.40659225981E+02  0.00000000000E+00 0. -1.
         11    1    3    3    0    0 -0.20021457114E+02  0.59612252639E+01 -0.13682025056E+02  0.24971839370E+02  0.51100000000E-03 0. -1.
        -11    1    3    3    0    0 -0.67252614487E+01 -0.32206421486E+00 -0.16910562868E+02  0.18201648378E+02  0.51100000000E-03 0.  1.
         12    1    3    3    0    0 -0.20202193205E+01 -0.68171675110E+01  0.18828640830E+01  0.73552862711E+01  0.00000000000E+00 0. -1.
</event>
<event>
 7    1  0.5005325E-012  0.5052888E+02  0.7816164E-02  0.1300439E+00
        -11   -1    0    0    0    0  0.00000000000E+00  0.00000000000E+00  0.45593999997E+02  0.45594000000E+02  0.51100000000E-03 0. -1.
         11   -1    0    0    0    0 -0.00000000000E+00 -0.00000000000E+00 -0.45593999997E+02  0.45594000000E+02  0.51100000000E-03 0.  1.
    9900012    2    1    2    0    0  0.98485407234E+01  0.16056554222E+02  0.36032727350E+02  0.50528878906E+02  0.30000057922E+02 0.  0.
        -12    1    1    2    0    0 -0.98485407234E+01 -0.16056554222E+02 -0.36032727350E+02  0.40659121094E+02  0.00000000000E+00 0.  1.
         11    1    3    3    0    0  0.67883935998E+01  0.65499536561E+01  0.13039787374E+02  0.16094105616E+02  0.51100000000E-03 0. -1.
        -11    1    3    3    0    0  0.59474360569E+01  0.13551544696E+02  0.47739644160E+01  0.15550147775E+02  0.51100000000E-03 0.  1.
         12    1    3    3    0    0 -0.28872889333E+01 -0.40449441300E+01  0.18218975560E+02  0.18884625515E+02  0.00000000000E+00 0. -1.
</event>
<event>
 7    1  0.5005325E-012  0.5052886E+02  0.7816164E-02  0.1300439E+00
        -11   -1    0    0    0    0  0.00000000000E+00  0.00000000000E+00  0.45593999997E+02  0.45594000000E+02  0.51100000000E-03 0. -1.
         11   -1    0    0    0    0 -0.00000000000E+00 -0.00000000000E+00 -0.45593999997E+02  0.45594000000E+02  0.51100000000E-03 0.  1.
    9900012    2    1    2    0    0  0.16336050492E+02  0.11540814006E+02 -0.35399273947E+02  0.50528861672E+02  0.30000005538E+02 0.  0.
         12    1    1    2    0    0 -0.16336050492E+02 -0.11540814006E+02  0.35399273947E+02  0.40659138328E+02  0.00000000000E+00 0. -1.
         11    1    3    3    0    0  0.12871010167E+01 -0.20128706070E+01  0.20433471180E+01  0.31438105563E+01  0.51100000000E-03 0. -1.
        -11    1    3    3    0    0  0.10690819204E+01  0.97477488182E+01 -0.33855711657E+01  0.10374181199E+02  0.51100000000E-03 0.  1.
        -12    1    3    3    0    0  0.13979867555E+02  0.38059357945E+01 -0.34057049899E+02  0.37010869916E+02  0.00000000000E+00 0.  1.
</event>
<event>
 7    1  0.5005325E-012  0.5052886E+02  0.7816164E-02  0.1300439E+00
        -11   -1    0    0    0    0  0.00000000000E+00  0.00000000000E+00  0.45593999997E+02  0.45594000000E+02  0.51100000000E-03 0. -1.
         11   -1    0    0    0    0 -0.00000000000E+00 -0.00000000000E+00 -0.45593999997E+02  0.45594000000E+02  0.51100000000E-03 0.  1.
    9900012    2    1    2    0    0  0.64649226439E+01  0.33247361318E+02  0.22494079343E+02  0.50528857549E+02  0.29999993006E+02 0.  0.
        -12    1    1    2    0    0 -0.64649226439E+01 -0.33247361318E+02 -0.22494079343E+02  0.40659142451E+02  0.00000000000E+00 0.  1.
         11    1    3    3    0    0  0.25031050657E+01  0.97422393877E+01  0.94922136429E+01  0.13830360927E+02  0.51100000000E-03 0. -1.
        -11    1    3    3    0    0 -0.30916910679E+00 -0.49558750810E+01  0.44691905378E+01  0.66805649222E+01  0.51100000000E-03 0.  1.
         12    1    3    3    0    0  0.42709866850E+01  0.28460997011E+02  0.85326751619E+01  0.30017931700E+02  0.00000000000E+00 0. -1.
</event>
<event>
 7    1  0.5005325E-012  0.5052886E+02  0.7816164E-02  0.1300439E+00
        -11   -1    0    0    0    0  0.00000000000E+00  0.00000000000E+00  0.45593999997E+02  0.45594000000E+02  0.51100000000E-03 0.  1.
         11   -1    0    0    0    0 -0.00000000000E+00 -0.00000000000E+00 -0.45593999997E+02  0.45594000000E+02  0.51100000000E-03 0. -1.
    9900012    2    1    2    0    0 -0.39854675836E+02  0.13164755549E+01  0.79395925058E+01  0.50528862982E+02  0.30000009521E+02 0.  0.
         12    1    1    2    0    0  0.39854675836E+02 -0.13164755549E+01 -0.79395925058E+01  0.40659137018E+02  0.00000000000E+00 0. -1.
         11    1    3    3    0    0 -0.28891764195E+02 -0.93513857420E+01  0.14242602505E+02  0.33541529184E+02  0.51100000000E-03 0.  1.
        -11    1    3    3    0    0 -0.77332032350E+01  0.52887420459E+01 -0.26904015670E+01  0.97473835235E+01  0.51100000000E-03 0. -1.
        -12    1    3    3    0    0 -0.32297084055E+01  0.53791192511E+01 -0.36126084321E+01  0.72399502751E+01  0.00000000000E+00 0.  1.
</event>
<event>
 7    1  0.5005325E-012  0.5052886E+02  0.7816164E-02  0.1300439E+00
        -11   -1    0    0    0    0  0.00000000000E+00  0.00000000000E+00  0.45593999997E+02  0.45594000000E+02  0.51100000000E-03 0. -1.
         11   -1    0    0    0    0 -0.00000000000E+00 -0.00000000000E+00 -0.45593999997E+02  0.45594000000E+02  0.51100000000E-03 0.  1.
    9900012    2    1    2    0    0 -0.18069505611E+02 -0.85895975848E+01 -0.35396009286E+02  0.50528859661E+02  0.29999999427E+02 0.  0.
         12    1    1    2    0    0  0.18069505611E+02  0.85895975848E+01  0.35396009286E+02  0.40659140339E+02  0.00000000000E+00 0. -1.
         11    1    3    3    0    0 -0.18444211226E+02 -0.39479361367E+01 -0.33600243125E+02  0.38532472874E+02  0.51100000000E-03 0. -1.
        -11    1    3    3    0    0 -0.18969988013E+01  0.24958289727E+01 -0.30823156280E+01  0.43964117875E+01  0.51100000000E-03 0.  1.
         12    1    3    3    0    0  0.22717044160E+01 -0.71374904208E+01  0.12865494674E+01  0.75999749995E+01  0.00000000000E+00 0. -1.
</event>
<event>
 7    1  0.7971781E-012  0.5052884E+02  0.7816164E-02  0.1300439E+00
        -11   -1    0    0    0    0  0.00000000000E+00  0.00000000000E+00  0.45593999997E+02  0.45594000000E+02  0.51100000000E-03 0. -1.
         11   -1    0    0    0    0 -0.00000000000E+00 -0.00000000000E+00 -0.45593999997E+02  0.45594000000E+02  0.51100000000E-03 0.  1.
    9900012    2    1    2    0    0  0.99695944075E+01 -0.18888826362E+02  0.34597499393E+02  0.50528836971E+02  0.29999930457E+02 0.  0.
        -12    1    1    2    0    0 -0.99695944075E+01  0.18888826362E+02 -0.34597499393E+02  0.40659163029E+02  0.00000000000E+00 0.  1.
         11    1    3    3    0    0  0.12510104049E+02 -0.17719758330E+02  0.20460064423E+02  0.29817893538E+02  0.51100000000E-03 0. -1.
        -11    1    3    3    0    0 -0.60232519417E+01 -0.56089495212E+01  0.12255163029E+02  0.14762415108E+02  0.51100000000E-03 0.  1.
        -12    1    3    3    0    0  0.34827423003E+01  0.44398814901E+01  0.18822719412E+01  0.59485283253E+01  0.00000000000E+00 0.  1.
</event>
<event>
 7    1  0.5005325E-012  0.5052888E+02  0.7816164E-02  0.1300439E+00
        -11   -1    0    0    0    0  0.00000000000E+00  0.00000000000E+00  0.45593999997E+02  0.45594000000E+02  0.51100000000E-03 0. -1.
         11   -1    0    0    0    0 -0.00000000000E+00 -0.00000000000E+00 -0.45593999997E+02  0.45594000000E+02  0.51100000000E-03 0.  1.
    9900012    2    1    2    0    0  0.36327255153E+02 -0.34198254116E+01 -0.17938763952E+02  0.50528881405E+02  0.30000065517E+02 0.  0.
         12    1    1    2    0    0 -0.36327255153E+02  0.34198254116E+01  0.17938763952E+02  0.40659118595E+02  0.00000000000E+00 0. -1.
         11    1    3    3    0    0  0.14461609545E+02  0.77305638443E+00 -0.10900384399E+02  0.18126062648E+02  0.51100000000E-03 0.  1.
        -11    1    3    3    0    0  0.22139106849E+02 -0.16741046656E+01  0.26764499125E+01  0.22363051287E+02  0.51100000000E-03 0. -1.
         12    1    3    3    0    0 -0.27346124075E+00 -0.25187771305E+01 -0.97148294657E+01  0.10039767469E+02  0.00000000000E+00 0. -1.
</event>
<event>
 7    1  0.5005325E-012  0.5052886E+02  0.7816164E-02  0.1300439E+00
        -11   -1    0    0    0    0  0.00000000000E+00  0.00000000000E+00  0.45593999997E+02  0.45594000000E+02  0.51100000000E-03 0. -1.
         11   -1    0    0    0    0 -0.00000000000E+00 -0.00000000000E+00 -0.45593999997E+02  0.45594000000E+02  0.51100000000E-03 0.  1.
    9900012    2    1    2    0    0  0.17404366339E+02 -0.19394283281E+02  0.31210828028E+02  0.50528856160E+02  0.29999988783E+02 0.  0.
        -12    1    1    2    0    0 -0.17404366339E+02  0.19394283281E+02 -0.31210828028E+02  0.40659143840E+02  0.00000000000E+00 0.  1.
         11    1    3    3    0    0  0.58886606730E+01  0.59323863262E+01  0.85369204029E+01  0.11947742141E+02  0.51100000000E-03 0. -1.
        -11    1    3    3    0    0  0.77513964617E+01 -0.99953617547E+01  0.23812257388E+01  0.12870961114E+02  0.51100000000E-03 0.  1.
         12    1    3    3    0    0  0.37643092043E+01 -0.15331307853E+02  0.20292681886E+02  0.25710152905E+02  0.00000000000E+00 0. -1.
</event>
<event>
 7    1  0.5005325E-012  0.5052886E+02  0.7816164E-02  0.1300439E+00
        -11   -1    0    0    0    0  0.00000000000E+00  0.00000000000E+00  0.45593999997E+02  0.45594000000E+02  0.51100000000E-03 0. -1.
         11   -1    0    0    0    0 -0.00000000000E+00 -0.00000000000E+00 -0.45593999997E+02  0.45594000000E+02  0.51100000000E-03 0.  1.
    9900012    2    1    2    0    0  0.22371433350E+02  0.41647248949E+01  0.33694802770E+02  0.50528859610E+02  0.29999999269E+02 0.  0.
        -12    1    1    2    0    0 -0.22371433350E+02 -0.41647248949E+01 -0.33694802770E+02  0.40659140390E+02  0.00000000000E+00 0.  1.
         11    1    3    3    0    0  0.11897750308E+02  0.65519423913E+01  0.15297622323E+02  0.20457313130E+02  0.51100000000E-03 0. -1.
        -11    1    3    3    0    0  0.15662460696E+02 -0.53614005968E+01  0.17384301217E+02  0.24005649762E+02  0.51100000000E-03 0.  1.
        -12    1    3    3    0    0 -0.51887776542E+01  0.29741831004E+01  0.10128792298E+01  0.60658967180E+01  0.00000000000E+00 0.  1.
</event>
<event>
 7    1  0.5005325E-012  0.5052886E+02  0.7816164E-02  0.1300439E+00
        -11   -1    0    0    0    0  0.00000000000E+00  0.00000000000E+00  0.45593999997E+02  0.45594000000E+02  0.51100000000E-03 0.  1.
         11   -1    0    0    0    0 -0.00000000000E+00 -0.00000000000E+00 -0.45593999997E+02  0.45594000000E+02  0.51100000000E-03 0. -1.
    9900012    2    1    2    0    0 -0.37107736650E+02  0.15036231807E+02 -0.70776470553E+01  0.50528862354E+02  0.30000007612E+02 0.  0.
         12    1    1    2    0    0  0.37107736650E+02 -0.15036231807E+02  0.70776470553E+01  0.40659137646E+02  0.00000000000E+00 0. -1.
         11    1    3    3    0    0 -0.16309265605E+02  0.74335972531E+00  0.78860998288E+00  0.16345232768E+02  0.51100000000E-03 0. -1.
        -11    1    3    3    0    0 -0.25221763119E+02  0.12547155759E+02 -0.84060065216E+01  0.29397778800E+02  0.51100000000E-03 0.  1.
         12    1    3    3    0    0  0.44232920737E+01  0.17457163229E+01  0.53974948340E+00  0.47858507869E+01  0.00000000000E+00 0. -1.
</event>
<event>
 7    1  0.5005325E-012  0.5052881E+02  0.7816164E-02  0.1300439E+00
        -11   -1    0    0    0    0  0.00000000000E+00  0.00000000000E+00  0.45593999997E+02  0.45594000000E+02  0.51100000000E-03 0. -1.
         11   -1    0    0    0    0 -0.00000000000E+00 -0.00000000000E+00 -0.45593999997E+02  0.45594000000E+02  0.51100000000E-03 0.  1.
    9900012    2    1    2    0    0  0.26769621842E+02  0.85961242186E+00  0.30591145062E+02  0.50528809855E+02  0.29999848034E+02 0.  0.
        -12    1    1    2    0    0 -0.26769621842E+02 -0.85961242186E+00 -0.30591145062E+02  0.40659190145E+02  0.00000000000E+00 0.  1.
         11    1    3    3    0    0  0.50647185898E+01 -0.10333975096E+02  0.98816940342E+01  0.15168727465E+02  0.51100000000E-03 0. -1.
        -11    1    3    3    0    0  0.17732997906E+02  0.22878440745E+01  0.17689633272E+02  0.25151870125E+02  0.51100000000E-03 0.  1.
        -12    1    3    3    0    0  0.39719053465E+01  0.89057434429E+01  0.30198177559E+01  0.10208212264E+02  0.00000000000E+00 0.  1.
</event>
<event>
 7    1  0.5005325E-012  0.5052886E+02  0.7816164E-02  0.1300439E+00
        -11   -1    0    0    0    0  0.00000000000E+00  0.00000000000E+00  0.45593999997E+02  0.45594000000E+02  0.51100000000E-03 0. -1.
         11   -1    0    0    0    0 -0.00000000000E+00 -0.00000000000E+00 -0.45593999997E+02  0.45594000000E+02  0.51100000000E-03 0.  1.
    9900012    2    1    2    0    0  0.98004111241E+01  0.27780750593E+02 -0.28024053238E+02  0.50528859310E+02  0.29999998360E+02 0.  0.
         12    1    1    2    0    0 -0.98004111241E+01 -0.27780750593E+02  0.28024053238E+02  0.40659140690E+02  0.00000000000E+00 0. -1.
         11    1    3    3    0    0 -0.22348092747E+01  0.46464172487E+01 -0.19054031233E+02  0.19739292597E+02  0.51100000000E-03 0. -1.
        -11    1    3    3    0    0  0.11139350837E+01 -0.16005153838E+01 -0.21530274028E+01  0.29048284154E+01  0.51100000000E-03 0.  1.
        -12    1    3    3    0    0  0.10921285315E+02  0.24734848728E+02 -0.68169946028E+01  0.27884738298E+02  0.00000000000E+00 0.  1.
</event>
<event>
 7    1  0.5005325E-012  0.5052886E+02  0.7816164E-02  0.1300439E+00
        -11   -1    0    0    0    0  0.00000000000E+00  0.00000000000E+00  0.45593999997E+02  0.45594000000E+02  0.51100000000E-03 0. -1.
         11   -1    0    0    0    0 -0.00000000000E+00 -0.00000000000E+00 -0.45593999997E+02  0.45594000000E+02  0.51100000000E-03 0.  1.
    9900012    2    1    2    0    0 -0.29871107362E+02  0.16127298889E+02 -0.22378399390E+02  0.50528861006E+02  0.30000003513E+02 0.  0.
         12    1    1    2    0    0  0.29871107362E+02 -0.16127298889E+02  0.22378399390E+02  0.40659138994E+02  0.00000000000E+00 0. -1.
         11    1    3    3    0    0  0.22175820463E+01  0.33375980117E+01 -0.14352775745E+01  0.42564366079E+01  0.51100000000E-03 0.  1.
        -11    1    3    3    0    0 -0.10227769771E+02  0.39355515645E+01  0.42569934182E+01  0.11756608092E+02  0.51100000000E-03 0. -1.
        -12    1    3    3    0    0 -0.21860919637E+02  0.88541493130E+01 -0.25200115234E+02  0.34515816305E+02  0.00000000000E+00 0.  1.
</event>
<event>
 7    1  0.5005325E-012  0.5052892E+02  0.7816164E-02  0.1300439E+00
        -11   -1    0    0    0    0  0.00000000000E+00  0.00000000000E+00  0.45593999997E+02  0.45594000000E+02  0.51100000000E-03 0. -1.
         11   -1    0    0    0    0 -0.00000000000E+00 -0.00000000000E+00 -0.45593999997E+02  0.45594000000E+02  0.51100000000E-03 0.  1.
    9900012    2    1    2    0    0  0.88730093831E+00 -0.37451656605E+02 -0.15803372932E+02  0.50528923751E+02  0.30000194232E+02 0.  0.
         12    1    1    2    0    0 -0.88730093831E+00  0.37451656605E+02  0.15803372932E+02  0.40659076249E+02  0.00000000000E+00 0. -1.
         11    1    3    3    0    0 -0.25980350737E+01 -0.57404112228E+01 -0.62697350116E+01  0.88888517047E+01  0.51100000000E-03 0. -1.
        -11    1    3    3    0    0 -0.38955725111E+01 -0.28242659316E+02 -0.14608350923E+02  0.32034781213E+02  0.51100000000E-03 0.  1.
         12    1    3    3    0    0  0.73809085231E+01 -0.34685860668E+01  0.50747130027E+01  0.96052908332E+01  0.00000000000E+00 0. -1.
</event>
<event>
 7    1  0.5005325E-012  0.5052887E+02  0.7816164E-02  0.1300439E+00
        -11   -1    0    0    0    0  0.00000000000E+00  0.00000000000E+00  0.45593999997E+02  0.45594000000E+02  0.51100000000E-03 0. -1.
         11   -1    0    0    0    0 -0.00000000000E+00 -0.00000000000E+00 -0.45593999997E+02  0.45594000000E+02  0.51100000000E-03 0.  1.
    9900012    2    1    2    0    0 -0.69567918381E+01 -0.91905908109E+01 -0.38991033622E+02  0.50528872918E+02  0.30000039723E+02 0.  0.
         12    1    1    2    0    0  0.69567918381E+01  0.91905908109E+01  0.38991033622E+02  0.40659127082E+02  0.00000000000E+00 0. -1.
         11    1    3    3    0    0  0.62512432439E+01 -0.97107837332E+01 -0.12471969022E+02  0.16997863817E+02  0.51100000000E-03 0.  1.
        -11    1    3    3    0    0 -0.12370490842E+02 -0.18983771613E+01 -0.80394771340E+01  0.14875015037E+02  0.51100000000E-03 0. -1.
         12    1    3    3    0    0 -0.83754424046E+00  0.24185700836E+01 -0.18479587466E+02  0.18655994064E+02  0.00000000000E+00 0. -1.
</event>
<event>
 7    1  0.5005325E-012  0.5052886E+02  0.7816164E-02  0.1300439E+00
        -11   -1    0    0    0    0  0.00000000000E+00  0.00000000000E+00  0.45593999997E+02  0.45594000000E+02  0.51100000000E-03 0. -1.
         11   -1    0    0    0    0 -0.00000000000E+00 -0.00000000000E+00 -0.45593999997E+02  0.45594000000E+02  0.51100000000E-03 0.  1.
    9900012    2    1    2    0    0 -0.55701214007E-01  0.11308126529E+02  0.39054947069E+02  0.50528859346E+02  0.29999998468E+02 0.  0.
        -12    1    1    2    0    0  0.55701214007E-01 -0.11308126529E+02 -0.39054947069E+02  0.40659140654E+02  0.00000000000E+00 0.  1.
         11    1    3    3    0    0  0.49450353613E+01  0.11108389673E+02  0.14081535789E+02  0.18604820513E+02  0.51100000000E-03 0. -1.
        -11    1    3    3    0    0  0.28387969110E+01 -0.43435135930E+01 -0.17628400345E+00  0.51919124170E+01  0.51100000000E-03 0.  1.
         12    1    3    3    0    0 -0.78395334863E+01  0.45432504482E+01  0.25149695283E+02  0.26732126416E+02  0.00000000000E+00 0. -1.
</event>
<event>
 7    1  0.5005325E-012  0.5052887E+02  0.7816164E-02  0.1300439E+00
        -11   -1    0    0    0    0  0.00000000000E+00  0.00000000000E+00  0.45593999997E+02  0.45594000000E+02  0.51100000000E-03 0.  1.
         11   -1    0    0    0    0 -0.00000000000E+00 -0.00000000000E+00 -0.45593999997E+02  0.45594000000E+02  0.51100000000E-03 0. -1.
    9900012    2    1    2    0    0  0.26601872750E+02 -0.30210957344E+02  0.57274359337E+01  0.50528866957E+02  0.30000021603E+02 0.  0.
         12    1    1    2    0    0 -0.26601872750E+02  0.30210957344E+02 -0.57274359337E+01  0.40659133043E+02  0.00000000000E+00 0. -1.
         11    1    3    3    0    0  0.25003503060E+01 -0.60366322091E+01  0.47655541488E+01  0.80872236698E+01  0.51100000000E-03 0. -1.
        -11    1    3    3    0    0 -0.24042884810E+01  0.21455599362E+01  0.37975755469E+01  0.49805231487E+01  0.51100000000E-03 0.  1.
        -12    1    3    3    0    0  0.26505810925E+02 -0.26319885071E+02 -0.28356937619E+01  0.37461120139E+02  0.00000000000E+00 0.  1.
</event>
<event>
 7    1  0.5005325E-012  0.5052887E+02  0.7816164E-02  0.1300439E+00
        -11   -1    0    0    0    0  0.00000000000E+00  0.00000000000E+00  0.45593999997E+02  0.45594000000E+02  0.51100000000E-03 0. -1.
         11   -1    0    0    0    0 -0.00000000000E+00 -0.00000000000E+00 -0.45593999997E+02  0.45594000000E+02  0.51100000000E-03 0.  1.
    9900012    2    1    2    0    0  0.12217555757E+00 -0.33274365582E+01  0.40522567216E+02  0.50528865544E+02  0.30000017308E+02 0.  0.
        -12    1    1    2    0    0 -0.12217555757E+00  0.33274365582E+01 -0.40522567216E+02  0.40659134456E+02  0.00000000000E+00 0.  1.
         11    1    3    3    0    0 -0.80337434411E+01  0.39442276530E+01  0.72107370142E+01  0.11493158574E+02  0.51100000000E-03 0. -1.
        -11    1    3    3    0    0  0.26854405169E+01  0.57821532011E-01 -0.14765710680E+01  0.30651584754E+01  0.51100000000E-03 0.  1.
         12    1    3    3    0    0  0.54704784818E+01 -0.73294857432E+01  0.34788401270E+02  0.35970548495E+02  0.00000000000E+00 0. -1.
</event>
<event>
 7    1  0.5005325E-012  0.5052885E+02  0.7816164E-02  0.1300439E+00
        -11   -1    0    0    0    0  0.00000000000E+00  0.00000000000E+00  0.45593999997E+02  0.45594000000E+02  0.51100000000E-03 0. -1.
         11   -1    0    0    0    0 -0.00000000000E+00 -0.00000000000E+00 -0.45593999997E+02  0.45594000000E+02  0.51100000000E-03 0.  1.
    9900012    2    1    2    0    0 -0.29368019631E+02  0.53425776706E+01 -0.27606926074E+02  0.50528854897E+02  0.29999984946E+02 0.  0.
         12    1    1    2    0    0  0.29368019631E+02 -0.53425776706E+01  0.27606926074E+02  0.40659145103E+02  0.00000000000E+00 0. -1.
         11    1    3    3    0    0 -0.14862703096E+02  0.50447787599E+01 -0.19697306094E+02  0.25185980300E+02  0.51100000000E-03 0.  1.
        -11    1    3    3    0    0 -0.18832274003E+01  0.42201444155E+01  0.50406975547E+01  0.68384791020E+01  0.51100000000E-03 0. -1.
         12    1    3    3    0    0 -0.12622089135E+02 -0.39223455048E+01 -0.12950317535E+02  0.18504395496E+02  0.00000000000E+00 0. -1.
</event>
<event>
 7    1  0.5005325E-012  0.5052884E+02  0.7816164E-02  0.1300439E+00
        -11   -1    0    0    0    0  0.00000000000E+00  0.00000000000E+00  0.45593999997E+02  0.45594000000E+02  0.51100000000E-03 0. -1.
         11   -1    0    0    0    0 -0.00000000000E+00 -0.00000000000E+00 -0.45593999997E+02  0.45594000000E+02  0.51100000000E-03 0.  1.
    9900012    2    1    2    0    0 -0.19884118821E+02  0.21534362997E+02 -0.28179080640E+02  0.50528836743E+02  0.29999929765E+02 0.  0.
         12    1    1    2    0    0  0.19884118821E+02 -0.21534362997E+02  0.28179080640E+02  0.40659163257E+02  0.00000000000E+00 0. -1.
         11    1    3    3    0    0  0.74766840231E+00 -0.37150179128E+01 -0.57711106813E+01  0.69040629262E+01  0.51100000000E-03 0. -1.
        -11    1    3    3    0    0 -0.44562844883E+01 -0.19703891854E+01 -0.66860251138E+01  0.82730790559E+01  0.51100000000E-03 0.  1.
        -12    1    3    3    0    0 -0.16175502735E+02  0.27219770095E+02 -0.15721944845E+02  0.35351694761E+02  0.00000000000E+00 0.  1.
</event>
<event>
 7    1  0.5005325E-012  0.5052886E+02  0.7816164E-02  0.1300439E+00
        -11   -1    0    0    0    0  0.00000000000E+00  0.00000000000E+00  0.45593999997E+02  0.45594000000E+02  0.51100000000E-03 0. -1.
         11   -1    0    0    0    0 -0.00000000000E+00 -0.00000000000E+00 -0.45593999997E+02  0.45594000000E+02  0.51100000000E-03 0.  1.
    9900012    2    1    2    0    0 -0.15741286269E+02 -0.10690938264E+01 -0.37473123167E+02  0.50528855704E+02  0.29999987398E+02 0.  0.
         12    1    1    2    0    0  0.15741286269E+02  0.10690938264E+01  0.37473123167E+02  0.40659144296E+02  0.00000000000E+00 0. -1.
         11    1    3    3    0    0  0.55856174495E+00 -0.21202319643E+01  0.12110653187E+01  0.25048062345E+01  0.51100000000E-03 0. -1.
        -11    1    3    3    0    0 -0.11845456369E+02  0.94280504375E+01 -0.10873725669E+02  0.18639766142E+02  0.51100000000E-03 0.  1.
        -12    1    3    3    0    0 -0.44543916447E+01 -0.83769122997E+01 -0.27810462817E+02  0.29384283327E+02  0.00000000000E+00 0.  1.
</event>
<event>
 7    1  0.5005325E-012  0.5052886E+02  0.7816164E-02  0.1300439E+00
        -11   -1    0    0    0    0  0.00000000000E+00  0.00000000000E+00  0.45593999997E+02  0.45594000000E+02  0.51100000000E-03 0. -1.
         11   -1    0    0    0    0 -0.00000000000E+00 -0.00000000000E+00 -0.45593999997E+02  0.45594000000E+02  0.51100000000E-03 0.  1.
    9900012    2    1    2    0    0  0.16230355728E+02  0.18538925090E+02 -0.32342692378E+02  0.50528856615E+02  0.29999990166E+02 0.  0.
         12    1    1    2    0    0 -0.16230355728E+02 -0.18538925090E+02  0.32342692378E+02  0.40659143385E+02  0.00000000000E+00 0. -1.
         11    1    3    3    0    0 -0.72606193383E+01  0.77843684140E+01 -0.16588484962E+02  0.19710170430E+02  0.51100000000E-03 0. -1.
        -11    1    3    3    0    0  0.43985000005E+01  0.13488463037E+01 -0.55690693660E+01  0.72236225310E+01  0.51100000000E-03 0.  1.
         12    1    3    3    0    0  0.19092475065E+02  0.94057103723E+01 -0.10185138051E+02  0.23595063654E+02  0.00000000000E+00 0. -1.
</event>
<event>
 7    1  0.5005325E-012  0.5052886E+02  0.7816164E-02  0.1300439E+00
        -11   -1    0    0    0    0  0.00000000000E+00  0.00000000000E+00  0.45593999997E+02  0.45594000000E+02  0.51100000000E-03 0. -1.
         11   -1    0    0    0    0 -0.00000000000E+00 -0.00000000000E+00 -0.45593999997E+02  0.45594000000E+02  0.51100000000E-03 0.  1.
    9900012    2    1    2    0    0  0.15517404445E+02 -0.23818158654E+02  0.29070101208E+02  0.50528864414E+02  0.30000013872E+02 0.  0.
        -12    1    1    2    0    0 -0.15517404445E+02  0.23818158654E+02 -0.29070101208E+02  0.40659135586E+02  0.00000000000E+00 0.  1.
         11    1    3    3    0    0  0.16321373686E+02 -0.14220727815E+02  0.14683359843E+02  0.26157549487E+02  0.51100000000E-03 0. -1.
        -11    1    3    3    0    0  0.59815977280E+01 -0.16487805146E+01 -0.45251025455E+00  0.62211537801E+01  0.51100000000E-03 0.  1.
         12    1    3    3    0    0 -0.67855669686E+01 -0.79486503243E+01  0.14839251619E+02  0.18150161147E+02  0.00000000000E+00 0. -1.
</event>
<event>
 7    1  0.5005325E-012  0.5052882E+02  0.7816164E-02  0.1300439E+00
        -11   -1    0    0    0    0  0.00000000000E+00  0.00000000000E+00  0.45593999997E+02  0.45594000000E+02  0.51100000000E-03 0. -1.
         11   -1    0    0    0    0 -0.00000000000E+00 -0.00000000000E+00 -0.45593999997E+02  0.45594000000E+02  0.51100000000E-03 0.  1.
    9900012    2    1    2    0    0 -0.13564120592E+02 -0.64552914895E+01 -0.37782442980E+02  0.50528817112E+02  0.29999870092E+02 0.  0.
         12    1    1    2    0    0  0.13564120592E+02  0.64552914895E+01  0.37782442980E+02  0.40659182888E+02  0.00000000000E+00 0. -1.
         11    1    3    3    0    0  0.55779131472E+01  0.11516053798E+01 -0.45553040998E+01  0.72931547173E+01  0.51100000000E-03 0. -1.
        -11    1    3    3    0    0 -0.10345237805E+01 -0.26898150460E+01 -0.20173580433E+02  0.20378387870E+02  0.51100000000E-03 0.  1.
         12    1    3    3    0    0 -0.18107509958E+02 -0.49170818233E+01 -0.13053558447E+02  0.22857274524E+02  0.00000000000E+00 0. -1.
</event>
<event>
 7    1  0.5005325E-012  0.5052886E+02  0.7816164E-02  0.1300439E+00
        -11   -1    0    0    0    0  0.00000000000E+00  0.00000000000E+00  0.45593999997E+02  0.45594000000E+02  0.51100000000E-03 0. -1.
         11   -1    0    0    0    0 -0.00000000000E+00 -0.00000000000E+00 -0.45593999997E+02  0.45594000000E+02  0.51100000000E-03 0.  1.
    9900012    2    1    2    0    0  0.45471585864E+01 -0.25071675114E+02 -0.31684386015E+02  0.50528857591E+02  0.29999993134E+02 0.  0.
         12    1    1    2    0    0 -0.45471585864E+01  0.25071675114E+02  0.31684386015E+02  0.40659142409E+02  0.00000000000E+00 0. -1.
         11    1    3    3    0    0  0.24874281129E+01 -0.14279189501E+02 -0.97258835897E+00  0.14526819328E+02  0.51100000000E-03 0. -1.
        -11    1    3    3    0    0 -0.35483351461E+01  0.15681122789E+01 -0.13701050988E+02  0.14239678959E+02  0.51100000000E-03 0.  1.
         12    1    3    3    0    0  0.56080656196E+01 -0.12360597893E+02 -0.17010746668E+02  0.21762359304E+02  0.00000000000E+00 0. -1.
</event>
<event>
 7    1  0.5005325E-012  0.5052887E+02  0.7816164E-02  0.1300439E+00
        -11   -1    0    0    0    0  0.00000000000E+00  0.00000000000E+00  0.45593999997E+02  0.45594000000E+02  0.51100000000E-03 0. -1.
         11   -1    0    0    0    0 -0.00000000000E+00 -0.00000000000E+00 -0.45593999997E+02  0.45594000000E+02  0.51100000000E-03 0.  1.
    9900012    2    1    2    0    0 -0.34997945687E+02  0.49514825519E+01  0.20094571709E+02  0.50528865799E+02  0.30000018084E+02 0.  0.
        -12    1    1    2    0    0  0.34997945687E+02 -0.49514825519E+01 -0.20094571709E+02  0.40659134201E+02  0.00000000000E+00 0.  1.
         11    1    3    3    0    0 -0.40244597405E+01  0.59191415217E+01  0.55444806755E+01  0.90539371977E+01  0.51100000000E-03 0. -1.
        -11    1    3    3    0    0  0.32729485514E+01 -0.27077248760E+01  0.59380842730E-01  0.42482340531E+01  0.51100000000E-03 0.  1.
         12    1    3    3    0    0 -0.34246434498E+02  0.17400659062E+01  0.14490710191E+02  0.37226694549E+02  0.00000000000E+00 0. -1.
</event>
<event>
 7    1  0.5005325E-012  0.5052887E+02  0.7816164E-02  0.1300439E+00
        -11   -1    0    0    0    0  0.00000000000E+00  0.00000000000E+00  0.45593999997E+02  0.45594000000E+02  0.51100000000E-03 0. -1.
         11   -1    0    0    0    0 -0.00000000000E+00 -0.00000000000E+00 -0.45593999997E+02  0.45594000000E+02  0.51100000000E-03 0.  1.
    9900012    2    1    2    0    0  0.14656239716E+02 -0.27408717708E+02  0.26213006678E+02  0.50528869560E+02  0.30000029516E+02 0.  0.
        -12    1    1    2    0    0 -0.14656239716E+02  0.27408717708E+02 -0.26213006678E+02  0.40659130440E+02  0.00000000000E+00 0.  1.
         11    1    3    3    0    0 -0.53957793224E+01 -0.99107168003E+01  0.12767495829E+02  0.17039533210E+02  0.51100000000E-03 0. -1.
        -11    1    3    3    0    0  0.56729533495E+00 -0.42301845170E+01 -0.25777634875E+01  0.49860956573E+01  0.51100000000E-03 0.  1.
        -12    1    3    3    0    0  0.19484723703E+02 -0.13267816391E+02  0.16023274336E+02  0.28503240693E+02  0.00000000000E+00 0.  1.
</event>
<event>
 7    1  0.5005325E-012  0.5052887E+02  0.7816164E-02  0.1300439E+00
        -11   -1    0    0    0    0  0.00000000000E+00  0.00000000000E+00  0.45593999997E+02  0.45594000000E+02  0.51100000000E-03 0. -1.
         11   -1    0    0    0    0 -0.00000000000E+00 -0.00000000000E+00 -0.45593999997E+02  0.45594000000E+02  0.51100000000E-03 0.  1.
    9900012    2    1    2    0    0 -0.15675315717E+01  0.54235544056E+01 -0.40265276494E+02  0.50528873242E+02  0.30000040705E+02 0.  0.
         12    1    1    2    0    0  0.15675315717E+01 -0.54235544056E+01  0.40265276494E+02  0.40659126758E+02  0.00000000000E+00 0. -1.
         11    1    3    3    0    0 -0.55361295543E+01  0.11693651319E+02 -0.10917836438E+02  0.16928950480E+02  0.51100000000E-03 0. -1.
        -11    1    3    3    0    0 -0.53910648804E+01 -0.80134262528E+00 -0.11331235543E+02  0.12573886819E+02  0.51100000000E-03 0.  1.
         12    1    3    3    0    0  0.93596628630E+01 -0.54687542885E+01 -0.18016204513E+02  0.21026035942E+02  0.00000000000E+00 0. -1.
</event>
<event>
 7    1  0.5005325E-012  0.5052879E+02  0.7816164E-02  0.1300439E+00
        -11   -1    0    0    0    0  0.00000000000E+00  0.00000000000E+00  0.45593999997E+02  0.45594000000E+02  0.51100000000E-03 0. -1.
         11   -1    0    0    0    0 -0.00000000000E+00 -0.00000000000E+00 -0.45593999997E+02  0.45594000000E+02  0.51100000000E-03 0.  1.
    9900012    2    1    2    0    0  0.20906897922E+02  0.28477738843E+02 -0.20126888583E+02  0.50528786599E+02  0.29999777347E+02 0.  0.
         12    1    1    2    0    0 -0.20906897922E+02 -0.28477738843E+02  0.20126888583E+02  0.40659213401E+02  0.00000000000E+00 0. -1.
         11    1    3    3    0    0 -0.99295103027E+00  0.38249662540E+01  0.22738657393E+00  0.39582854253E+01  0.51100000000E-03 0. -1.
        -11    1    3    3    0    0  0.21441558170E+02  0.18449754029E+02 -0.33743243463E+01  0.28487188446E+02  0.51100000000E-03 0.  1.
        -12    1    3    3    0    0  0.45829078225E+00  0.62030185595E+01 -0.16979950811E+02  0.18083312728E+02  0.00000000000E+00 0.  1.
</event>
<event>
 7    1  0.5005325E-012  0.5052885E+02  0.7816164E-02  0.1300439E+00
        -11   -1    0    0    0    0  0.00000000000E+00  0.00000000000E+00  0.45593999997E+02  0.45594000000E+02  0.51100000000E-03 0. -1.
         11   -1    0    0    0    0 -0.00000000000E+00 -0.00000000000E+00 -0.45593999997E+02  0.45594000000E+02  0.51100000000E-03 0.  1.
    9900012    2    1    2    0    0  0.87710693355E+00 -0.50044257541E+01  0.40340460833E+02  0.50528851289E+02  0.29999973979E+02 0.  0.
        -12    1    1    2    0    0 -0.87710693355E+00  0.50044257541E+01 -0.40340460833E+02  0.40659148711E+02  0.00000000000E+00 0.  1.
         11    1    3    3    0    0 -0.76684047857E+01  0.36321039557E+01  0.13861150015E+02  0.16252018062E+02  0.51100000000E-03 0. -1.
        -11    1    3    3    0    0  0.60640341529E+00  0.46747072881E+00  0.20997997304E+02  0.21011952433E+02  0.51100000000E-03 0.  1.
        -12    1    3    3    0    0  0.79391083040E+01 -0.91040004386E+01  0.54813135132E+01  0.13264880794E+02  0.00000000000E+00 0.  1.
</event>
<event>
 7    1  0.5005325E-012  0.5052886E+02  0.7816164E-02  0.1300439E+00
        -11   -1    0    0    0    0  0.00000000000E+00  0.00000000000E+00  0.45593999997E+02  0.45594000000E+02  0.51100000000E-03 0. -1.
         11   -1    0    0    0    0 -0.00000000000E+00 -0.00000000000E+00 -0.45593999997E+02  0.45594000000E+02  0.51100000000E-03 0.  1.
    9900012    2    1    2    0    0  0.12277443866E+02  0.26554296913E+02 -0.28236486211E+02  0.50528862454E+02  0.30000007916E+02 0.  0.
         12    1    1    2    0    0 -0.12277443866E+02 -0.26554296913E+02  0.28236486211E+02  0.40659137546E+02  0.00000000000E+00 0. -1.
         11    1    3    3    0    0  0.12015630985E+02  0.21472215154E+00 -0.59318853568E+01  0.13401819195E+02  0.51100000000E-03 0. -1.
        -11    1    3    3    0    0  0.69572087741E+01  0.14199449776E+02 -0.12190967351E+02  0.19966141668E+02  0.51100000000E-03 0.  1.
        -12    1    3    3    0    0 -0.66953958928E+01  0.12140124985E+02 -0.10113633502E+02  0.17160901592E+02  0.00000000000E+00 0.  1.
</event>
<event>
 7    1  0.5005325E-012  0.5052886E+02  0.7816164E-02  0.1300439E+00
        -11   -1    0    0    0    0  0.00000000000E+00  0.00000000000E+00  0.45593999997E+02  0.45594000000E+02  0.51100000000E-03 0. -1.
         11   -1    0    0    0    0 -0.00000000000E+00 -0.00000000000E+00 -0.45593999997E+02  0.45594000000E+02  0.51100000000E-03 0.  1.
    9900012    2    1    2    0    0  0.66918069308E+01  0.25137006231E+02  0.31249260889E+02  0.50528859965E+02  0.30000000349E+02 0.  0.
        -12    1    1    2    0    0 -0.66918069308E+01 -0.25137006231E+02 -0.31249260889E+02  0.40659140035E+02  0.00000000000E+00 0.  1.
         11    1    3    3    0    0 -0.19912295191E+01  0.60309719276E+01  0.23572456494E+02  0.24413076882E+02  0.51100000000E-03 0. -1.
        -11    1    3    3    0    0 -0.89841613077E+00 -0.12247581646E+01 -0.12152592026E+01  0.19452607271E+01  0.51100000000E-03 0.  1.
         12    1    3    3    0    0  0.95814525806E+01  0.20330792468E+02  0.88920635975E+01  0.24170522356E+02  0.00000000000E+00 0. -1.
</event>
<event>
 7    1  0.5005325E-012  0.5052887E+02  0.7816164E-02  0.1300439E+00
        -11   -1    0    0    0    0  0.00000000000E+00  0.00000000000E+00  0.45593999997E+02  0.45594000000E+02  0.51100000000E-03 0. -1.
         11   -1    0    0    0    0 -0.00000000000E+00 -0.00000000000E+00 -0.45593999997E+02  0.45594000000E+02  0.51100000000E-03 0.  1.
    9900012    2    1    2    0    0  0.20543427021E+01  0.22809803913E+01 -0.40543081191E+02  0.50528872759E+02  0.30000039240E+02 0.  0.
         12    1    1    2    0    0 -0.20543427021E+01 -0.22809803913E+01  0.40543081191E+02  0.40659127241E+02  0.00000000000E+00 0. -1.
         11    1    3    3    0    0 -0.39843164930E+01  0.61358508600E+00 -0.66506816095E+01  0.77770708307E+01  0.51100000000E-03 0. -1.
        -11    1    3    3    0    0 -0.58230012569E+01  0.31105565833E+01 -0.29162801738E+02  0.29900700851E+02  0.51100000000E-03 0.  1.
         12    1    3    3    0    0  0.11861660452E+02 -0.14431612780E+01 -0.47295978438E+01  0.12851101078E+02  0.00000000000E+00 0. -1.
</event>
<event>
 7    1  0.5005325E-012  0.5052886E+02  0.7816164E-02  0.1300439E+00
        -11   -1    0    0    0    0  0.00000000000E+00  0.00000000000E+00  0.45593999997E+02  0.45594000000E+02  0.51100000000E-03 0.  1.
         11   -1    0    0    0    0 -0.00000000000E+00 -0.00000000000E+00 -0.45593999997E+02  0.45594000000E+02  0.51100000000E-03 0. -1.
    9900012    2    1    2    0    0 -0.38558907466E+02  0.78294551705E+01  0.10250666901E+02  0.50528857299E+02  0.29999992247E+02 0.  0.
        -12    1    1    2    0    0  0.38558907466E+02 -0.78294551705E+01 -0.10250666901E+02  0.40659142701E+02  0.00000000000E+00 0.  1.
         11    1    3    3    0    0 -0.15119304163E+01 -0.54555869805E+01  0.19156525669E+01  0.59765448132E+01  0.51100000000E-03 0. -1.
        -11    1    3    3    0    0 -0.29849268697E+01  0.74166142369E+01  0.58359727260E+01  0.98982085791E+01  0.51100000000E-03 0.  1.
         12    1    3    3    0    0 -0.34062050180E+02  0.58684279141E+01  0.24990416085E+01  0.34654103907E+02  0.00000000000E+00 0. -1.
</event>
<event>
 7    1  0.5005325E-012  0.5052890E+02  0.7816164E-02  0.1300439E+00
        -11   -1    0    0    0    0  0.00000000000E+00  0.00000000000E+00  0.45593999997E+02  0.45594000000E+02  0.51100000000E-03 0.  1.
         11   -1    0    0    0    0 -0.00000000000E+00 -0.00000000000E+00 -0.45593999997E+02  0.45594000000E+02  0.51100000000E-03 0. -1.
    9900012    2    1    2    0    0 -0.15021400923E+02 -0.33630464922E+02  0.17219523577E+02  0.50528897098E+02  0.30000113220E+02 0.  0.
        -12    1    1    2    0    0  0.15021400923E+02  0.33630464922E+02 -0.17219523577E+02  0.40659102902E+02  0.00000000000E+00 0.  1.
         11    1    3    3    0    0  0.19590167108E+01 -0.99576929505E+01  0.67947413080E+01  0.12213185705E+02  0.51100000000E-03 0. -1.
        -11    1    3    3    0    0 -0.24090727224E+01 -0.42050851201E+00 -0.58996594680E+01  0.63864263003E+01  0.51100000000E-03 0.  1.
         12    1    3    3    0    0 -0.14571344911E+02 -0.23252263459E+02  0.16324441737E+02  0.31929285093E+02  0.00000000000E+00 0. -1.
</event>
<event>
 7    1  0.5005325E-012  0.5052887E+02  0.7816164E-02  0.1300439E+00
        -11   -1    0    0    0    0  0.00000000000E+00  0.00000000000E+00  0.45593999997E+02  0.45594000000E+02  0.51100000000E-03 0.  1.
         11   -1    0    0    0    0 -0.00000000000E+00 -0.00000000000E+00 -0.45593999997E+02  0.45594000000E+02  0.51100000000E-03 0. -1.
    9900012    2    1    2    0    0  0.18545453276E+02  0.20856761799E+01 -0.36123136366E+02  0.50528869866E+02  0.30000030445E+02 0.  0.
         12    1    1    2    0    0 -0.18545453276E+02 -0.20856761799E+01  0.36123136366E+02  0.40659130134E+02  0.00000000000E+00 0. -1.
         11    1    3    3    0    0  0.79797668381E+01 -0.59064802208E+01 -0.18922617663E+02  0.21368870978E+02  0.51100000000E-03 0. -1.
        -11    1    3    3    0    0  0.15471283136E+02  0.32119761969E+01 -0.15430164559E+02  0.22085456109E+02  0.51100000000E-03 0.  1.
         12    1    3    3    0    0 -0.49055966982E+01  0.47801802038E+01 -0.17703541440E+01  0.70745427797E+01  0.00000000000E+00 0. -1.
</event>
<event>
 7    1  0.5005325E-012  0.5052883E+02  0.7816164E-02  0.1300439E+00
        -11   -1    0    0    0    0  0.00000000000E+00  0.00000000000E+00  0.45593999997E+02  0.45594000000E+02  0.51100000000E-03 0. -1.
         11   -1    0    0    0    0 -0.00000000000E+00 -0.00000000000E+00 -0.45593999997E+02  0.45594000000E+02  0.51100000000E-03 0.  1.
    9900012    2    1    2    0    0 -0.29365097006E+02  0.19081065993E+02 -0.20658461046E+02  0.50528831116E+02  0.29999912659E+02 0.  0.
         12    1    1    2    0    0  0.29365097006E+02 -0.19081065993E+02  0.20658461046E+02  0.40659168884E+02  0.00000000000E+00 0. -1.
         11    1    3    3    0    0  0.17279206491E+01  0.57283645410E+01 -0.44680695599E+01  0.74674973008E+01  0.51100000000E-03 0. -1.
        -11    1    3    3    0    0 -0.15328414460E+02  0.13295251713E+02 -0.18088150225E+02  0.27182810502E+02  0.51100000000E-03 0.  1.
         12    1    3    3    0    0 -0.15764603195E+02  0.57449738170E-01  0.18977587389E+01  0.15878523312E+02  0.00000000000E+00 0. -1.
</event>
<event>
 7    1  0.5005325E-012  0.5052884E+02  0.7816164E-02  0.1300439E+00
        -11   -1    0    0    0    0  0.00000000000E+00  0.00000000000E+00  0.45593999997E+02  0.45594000000E+02  0.51100000000E-03 0. -1.
         11   -1    0    0    0    0 -0.00000000000E+00 -0.00000000000E+00 -0.45593999997E+02  0.45594000000E+02  0.51100000000E-03 0.  1.
    9900012    2    1    2    0    0 -0.28460431832E+02 -0.19215078564E+01 -0.28973759039E+02  0.50528842540E+02  0.29999947385E+02 0.  0.
         12    1    1    2    0    0  0.28460431832E+02  0.19215078564E+01  0.28973759039E+02  0.40659157460E+02  0.00000000000E+00 0. -1.
         11    1    3    3    0    0 -0.16026726895E+02 -0.29232714631E+01  0.13230601826E+01  0.16344784474E+02  0.51100000000E-03 0.  1.
        -11    1    3    3    0    0 -0.86271476895E+01 -0.39687713974E+01 -0.16602097347E+02  0.19126119843E+02  0.51100000000E-03 0. -1.
        -12    1    3    3    0    0 -0.38065572474E+01  0.49705350041E+01 -0.13694721875E+02  0.15057938223E+02  0.00000000000E+00 0.  1.
</event>
<event>
 7    1  0.5005325E-012  0.5052878E+02  0.7816164E-02  0.1300439E+00
        -11   -1    0    0    0    0  0.00000000000E+00  0.00000000000E+00  0.45593999997E+02  0.45594000000E+02  0.51100000000E-03 0. -1.
         11   -1    0    0    0    0 -0.00000000000E+00 -0.00000000000E+00 -0.45593999997E+02  0.45594000000E+02  0.51100000000E-03 0.  1.
    9900012    2    1    2    0    0 -0.26298347902E+02 -0.12614879747E+02 -0.28327270190E+02  0.50528775587E+02  0.29999743874E+02 0.  0.
         12    1    1    2    0    0  0.26298347902E+02  0.12614879747E+02  0.28327270190E+02  0.40659224413E+02  0.00000000000E+00 0. -1.
         11    1    3    3    0    0 -0.17956624762E+02 -0.13909313675E+02 -0.83772411665E+01  0.24209245126E+02  0.51100000000E-03 0. -1.
        -11    1    3    3    0    0 -0.87455182397E+01 -0.50904062481E+01 -0.15558471489E+02  0.18559697206E+02  0.51100000000E-03 0.  1.
        -12    1    3    3    0    0  0.40379509975E+00  0.63848401765E+01 -0.43915575351E+01  0.77598332551E+01  0.00000000000E+00 0.  1.
</event>
<event>
 7    1  0.5005325E-012  0.5052886E+02  0.7816164E-02  0.1300439E+00
        -11   -1    0    0    0    0  0.00000000000E+00  0.00000000000E+00  0.45593999997E+02  0.45594000000E+02  0.51100000000E-03 0. -1.
         11   -1    0    0    0    0 -0.00000000000E+00 -0.00000000000E+00 -0.45593999997E+02  0.45594000000E+02  0.51100000000E-03 0.  1.
    9900012    2    1    2    0    0 -0.36210591260E+02  0.55222838982E+01 -0.17648307884E+02  0.50528864372E+02  0.30000013744E+02 0.  0.
         12    1    1    2    0    0  0.36210591260E+02 -0.55222838982E+01  0.17648307884E+02  0.40659135628E+02  0.00000000000E+00 0. -1.
         11    1    3    3    0    0 -0.10246934617E+02  0.12697570651E+01  0.41368925021E+01  0.11123211402E+02  0.51100000000E-03 0. -1.
        -11    1    3    3    0    0 -0.10289217383E+02 -0.75406316452E+01 -0.54213290145E+01  0.13860733332E+02  0.51100000000E-03 0.  1.
        -12    1    3    3    0    0 -0.15674439260E+02  0.11793158478E+02 -0.16363871372E+02  0.25544919638E+02  0.00000000000E+00 0.  1.
</event>
<event>
 7    1  0.5005325E-012  0.5052885E+02  0.7816164E-02  0.1300439E+00
        -11   -1    0    0    0    0  0.00000000000E+00  0.00000000000E+00  0.45593999997E+02  0.45594000000E+02  0.51100000000E-03 0. -1.
         11   -1    0    0    0    0 -0.00000000000E+00 -0.00000000000E+00 -0.45593999997E+02  0.45594000000E+02  0.51100000000E-03 0.  1.
    9900012    2    1    2    0    0  0.18716901582E+02 -0.39701253245E+01  0.35875927651E+02  0.50528849926E+02  0.29999969834E+02 0.  0.
        -12    1    1    2    0    0 -0.18716901582E+02  0.39701253245E+01 -0.35875927651E+02  0.40659150074E+02  0.00000000000E+00 0.  1.
         11    1    3    3    0    0  0.20023151511E+02 -0.46776851103E+00  0.19539443318E+02  0.27980980134E+02  0.51100000000E-03 0. -1.
        -11    1    3    3    0    0  0.42310515626E+01 -0.59117140025E+01  0.14525887605E+02  0.16243508572E+02  0.51100000000E-03 0.  1.
         12    1    3    3    0    0 -0.55373014914E+01  0.24093571890E+01  0.18105967283E+01  0.63043612193E+01  0.00000000000E+00 0. -1.
</event>
<event>
 7    1  0.6014013E-012  0.5052890E+02  0.7816164E-02  0.1300439E+00
        -11   -1    0    0    0    0  0.00000000000E+00  0.00000000000E+00  0.45593999997E+02  0.45594000000E+02  0.51100000000E-03 0. -1.
         11   -1    0    0    0    0 -0.00000000000E+00 -0.00000000000E+00 -0.45593999997E+02  0.45594000000E+02  0.51100000000E-03 0.  1.
    9900012    2    1    2    0    0 -0.16132883046E+02 -0.19627173464E+02  0.31743763994E+02  0.50528900083E+02  0.30000122291E+02 0.  0.
        -12    1    1    2    0    0  0.16132883046E+02  0.19627173464E+02 -0.31743763994E+02  0.40659099917E+02  0.00000000000E+00 0.  1.
         11    1    3    3    0    0 -0.12449654371E+02 -0.21130248901E+02  0.18731416990E+02  0.30860124680E+02  0.51100000000E-03 0. -1.
        -11    1    3    3    0    0 -0.11545768539E+01  0.63529366090E+00  0.15771752863E+02  0.15826712684E+02  0.51100000000E-03 0.  1.
        -12    1    3    3    0    0 -0.25286518211E+01  0.86778177606E+00 -0.27594058581E+01  0.38420627185E+01  0.00000000000E+00 0.  1.
</event>
<event>
 7    1  0.5005325E-012  0.5052886E+02  0.7816164E-02  0.1300439E+00
        -11   -1    0    0    0    0  0.00000000000E+00  0.00000000000E+00  0.45593999997E+02  0.45594000000E+02  0.51100000000E-03 0. -1.
         11   -1    0    0    0    0 -0.00000000000E+00 -0.00000000000E+00 -0.45593999997E+02  0.45594000000E+02  0.51100000000E-03 0.  1.
    9900012    2    1    2    0    0  0.23616831355E+01  0.58843333781E+01  0.40161704658E+02  0.50528862680E+02  0.30000008602E+02 0.  0.
        -12    1    1    2    0    0 -0.23616831355E+01 -0.58843333781E+01 -0.40161704658E+02  0.40659137320E+02  0.00000000000E+00 0.  1.
         11    1    3    3    0    0 -0.35578570904E+01  0.10777864613E+02  0.30194703648E+02  0.32257415292E+02  0.51100000000E-03 0. -1.
        -11    1    3    3    0    0  0.58323527123E+01  0.34948823422E+01  0.33101127760E+01  0.75622342993E+01  0.51100000000E-03 0.  1.
         12    1    3    3    0    0  0.87187513626E-01 -0.83884135773E+01  0.66568882343E+01  0.10709213088E+02  0.00000000000E+00 0. -1.
</event>
<event>
 7    1  0.5005325E-012  0.5052893E+02  0.7816164E-02  0.1300439E+00
        -11   -1    0    0    0    0  0.00000000000E+00  0.00000000000E+00  0.45593999997E+02  0.45594000000E+02  0.51100000000E-03 0. -1.
         11   -1    0    0    0    0 -0.00000000000E+00 -0.00000000000E+00 -0.45593999997E+02  0.45594000000E+02  0.51100000000E-03 0.  1.
    9900012    2    1    2    0    0  0.10768689157E+02  0.77967328530E+01  0.38424037315E+02  0.50528925331E+02  0.30000199037E+02 0.  0.
        -12    1    1    2    0    0 -0.10768689157E+02 -0.77967328530E+01 -0.38424037315E+02  0.40659074669E+02  0.00000000000E+00 0.  1.
         11    1    3    3    0    0 -0.23587055701E+01 -0.44722411193E+00  0.43449202240E+01  0.49640541281E+01  0.51100000000E-03 0. -1.
        -11    1    3    3    0    0  0.42796472747E+01  0.13502514071E+02  0.55103115441E+01  0.15198578901E+02  0.51100000000E-03 0.  1.
         12    1    3    3    0    0  0.88477474528E+01 -0.52585571062E+01  0.28568805547E+02  0.30366292302E+02  0.00000000000E+00 0. -1.
</event>
<event>
 7    1  0.5005325E-012  0.5052886E+02  0.7816164E-02  0.1300439E+00
        -11   -1    0    0    0    0  0.00000000000E+00  0.00000000000E+00  0.45593999997E+02  0.45594000000E+02  0.51100000000E-03 0. -1.
         11   -1    0    0    0    0 -0.00000000000E+00 -0.00000000000E+00 -0.45593999997E+02  0.45594000000E+02  0.51100000000E-03 0.  1.
    9900012    2    1    2    0    0  0.35093403964E+02 -0.97701271809E+01 -0.18059986526E+02  0.50528862033E+02  0.30000006635E+02 0.  0.
         12    1    1    2    0    0 -0.35093403964E+02  0.97701271809E+01  0.18059986526E+02  0.40659137967E+02  0.00000000000E+00 0. -1.
         11    1    3    3    0    0  0.14708095040E+01 -0.39078698541E+01 -0.11023197342E+01  0.43185456408E+01  0.51100000000E-03 0. -1.
        -11    1    3    3    0    0  0.34312594771E+02 -0.12954138551E+01 -0.67330902832E+01  0.34990952573E+02  0.51100000000E-03 0.  1.
         12    1    3    3    0    0 -0.69000031064E+00 -0.45668434716E+01 -0.10224576509E+02  0.11219363819E+02  0.00000000000E+00 0. -1.
</event>
<event>
 7    1  0.5005325E-012  0.5052886E+02  0.7816164E-02  0.1300439E+00
        -11   -1    0    0    0    0  0.00000000000E+00  0.00000000000E+00  0.45593999997E+02  0.45594000000E+02  0.51100000000E-03 0. -1.
         11   -1    0    0    0    0 -0.00000000000E+00 -0.00000000000E+00 -0.45593999997E+02  0.45594000000E+02  0.51100000000E-03 0.  1.
    9900012    2    1    2    0    0  0.59910294507E+01 -0.33394130074E+02 -0.22407707672E+02  0.50528859326E+02  0.29999998406E+02 0.  0.
         12    1    1    2    0    0 -0.59910294507E+01  0.33394130074E+02  0.22407707672E+02  0.40659140674E+02  0.00000000000E+00 0. -1.
         11    1    3    3    0    0  0.82494296560E+01 -0.69281454428E+01 -0.46437281694E+01  0.11731005946E+02  0.51100000000E-03 0. -1.
        -11    1    3    3    0    0  0.47521846881E+01 -0.20881374863E+02 -0.20274163023E+02  0.29489943404E+02  0.51100000000E-03 0.  1.
         12    1    3    3    0    0 -0.70105848934E+01 -0.55846097680E+01  0.25101835198E+01  0.93079099755E+01  0.00000000000E+00 0. -1.
</event>
<event>
 7    1  0.5005325E-012  0.5052886E+02  0.7816164E-02  0.1300439E+00
        -11   -1    0    0    0    0  0.00000000000E+00  0.00000000000E+00  0.45593999997E+02  0.45594000000E+02  0.51100000000E-03 0. -1.
         11   -1    0    0    0    0 -0.00000000000E+00 -0.00000000000E+00 -0.45593999997E+02  0.45594000000E+02  0.51100000000E-03 0.  1.
    9900012    2    1    2    0    0  0.16382514790E+02  0.29948194967E+02 -0.22088111335E+02  0.50528857916E+02  0.29999994122E+02 0.  0.
         12    1    1    2    0    0 -0.16382514790E+02 -0.29948194967E+02  0.22088111335E+02  0.40659142084E+02  0.00000000000E+00 0. -1.
         11    1    3    3    0    0 -0.20405405675E+01 -0.15366784734E+01 -0.87152547239E+01  0.90818969220E+01  0.51100000000E-03 0. -1.
        -11    1    3    3    0    0  0.89116926461E+01  0.10610741104E+02  0.17572337901E+01  0.13967604070E+02  0.51100000000E-03 0.  1.
        -12    1    3    3    0    0  0.95113627112E+01  0.20874132336E+02 -0.15130090401E+02  0.27479356924E+02  0.00000000000E+00 0.  1.
</event>
<event>
 7    1  0.5005325E-012  0.5052876E+02  0.7816164E-02  0.1300439E+00
        -11   -1    0    0    0    0  0.00000000000E+00  0.00000000000E+00  0.45593999997E+02  0.45594000000E+02  0.51100000000E-03 0. -1.
         11   -1    0    0    0    0 -0.00000000000E+00 -0.00000000000E+00 -0.45593999997E+02  0.45594000000E+02  0.51100000000E-03 0.  1.
    9900012    2    1    2    0    0  0.85117110632E+01 -0.40332329845E+01 -0.39553222077E+02  0.50528762794E+02  0.29999704986E+02 0.  0.
         12    1    1    2    0    0 -0.85117110632E+01  0.40332329845E+01  0.39553222077E+02  0.40659237206E+02  0.00000000000E+00 0. -1.
         11    1    3    3    0    0 -0.30920667277E+01 -0.65252147052E+01 -0.81190832853E+01  0.10865487437E+02  0.51100000000E-03 0. -1.
        -11    1    3    3    0    0 -0.35344372340E+01 -0.51240261007E+01 -0.39420621964E+01  0.73680217605E+01  0.51100000000E-03 0.  1.
        -12    1    3    3    0    0  0.15138215025E+02  0.76160078214E+01 -0.27492076595E+02  0.32295253596E+02  0.00000000000E+00 0.  1.
</event>
<event>
 7    1  0.5005325E-012  0.5052886E+02  0.7816164E-02  0.1300439E+00
        -11   -1    0    0    0    0  0.00000000000E+00  0.00000000000E+00  0.45593999997E+02  0.45594000000E+02  0.51100000000E-03 0. -1.
         11   -1    0    0    0    0 -0.00000000000E+00 -0.00000000000E+00 -0.45593999997E+02  0.45594000000E+02  0.51100000000E-03 0.  1.
    9900012    2    1    2    0    0 -0.18466344104E+02 -0.97129132752E+01 -0.34897269664E+02  0.50528856147E+02  0.29999988746E+02 0.  0.
         12    1    1    2    0    0  0.18466344104E+02  0.97129132752E+01  0.34897269664E+02  0.40659143853E+02  0.00000000000E+00 0. -1.
         11    1    3    3    0    0  0.38312381166E+00 -0.70600928604E+01 -0.12305505250E+02  0.14192151168E+02  0.51100000000E-03 0. -1.
        -11    1    3    3    0    0 -0.16047189822E+02 -0.53927989708E+01 -0.26078143282E+02  0.31091222865E+02  0.51100000000E-03 0.  1.
         12    1    3    3    0    0 -0.28022780934E+01  0.27399785560E+01  0.34863788686E+01  0.52454821147E+01  0.00000000000E+00 0. -1.
</event>
<event>
 7    1  0.6205384E-012  0.5052885E+02  0.7816164E-02  0.1300439E+00
        -11   -1    0    0    0    0  0.00000000000E+00  0.00000000000E+00  0.45593999997E+02  0.45594000000E+02  0.51100000000E-03 0. -1.
         11   -1    0    0    0    0 -0.00000000000E+00 -0.00000000000E+00 -0.45593999997E+02  0.45594000000E+02  0.51100000000E-03 0.  1.
    9900012    2    1    2    0    0  0.12886103555E+01  0.25924447983E+02  0.31295828980E+02  0.50528850582E+02  0.29999971829E+02 0.  0.
        -12    1    1    2    0    0 -0.12886103555E+01 -0.25924447983E+02 -0.31295828980E+02  0.40659149418E+02  0.00000000000E+00 0.  1.
         11    1    3    3    0    0  0.36767296104E+00  0.20868984730E+02  0.19263254107E+02  0.28402863696E+02  0.51100000000E-03 0. -1.
        -11    1    3    3    0    0 -0.68861905366E+01  0.61167312891E+01  0.10728561719E+02  0.14139874773E+02  0.51100000000E-03 0.  1.
        -12    1    3    3    0    0  0.78071279310E+01 -0.10612680360E+01  0.13040131530E+01  0.79861121128E+01  0.00000000000E+00 0.  1.
</event>
<event>
 7    1  0.5005325E-012  0.5052886E+02  0.7816164E-02  0.1300439E+00
        -11   -1    0    0    0    0  0.00000000000E+00  0.00000000000E+00  0.45593999997E+02  0.45594000000E+02  0.51100000000E-03 0. -1.
         11   -1    0    0    0    0 -0.00000000000E+00 -0.00000000000E+00 -0.45593999997E+02  0.45594000000E+02  0.51100000000E-03 0.  1.
    9900012    2    1    2    0    0 -0.17580800470E+02  0.34319025268E+01 -0.36500728251E+02  0.50528860032E+02  0.30000000553E+02 0.  0.
         12    1    1    2    0    0  0.17580800470E+02 -0.34319025268E+01  0.36500728251E+02  0.40659139968E+02  0.00000000000E+00 0. -1.
         11    1    3    3    0    0  0.25716546639E+00  0.78458193804E+01  0.75027106370E+00  0.78858051432E+01  0.51100000000E-03 0. -1.
        -11    1    3    3    0    0 -0.66712351110E+01  0.69893775962E+00 -0.57585576395E+01  0.88405247721E+01  0.51100000000E-03 0.  1.
        -12    1    3    3    0    0 -0.11166730826E+02 -0.51128546132E+01 -0.31492441675E+02  0.33802530116E+02  0.00000000000E+00 0.  1.
</event>
<event>
 7    1  0.5005325E-012  0.5052886E+02  0.7816164E-02  0.1300439E+00
        -11   -1    0    0    0    0  0.00000000000E+00  0.00000000000E+00  0.45593999997E+02  0.45594000000E+02  0.51100000000E-03 0. -1.
         11   -1    0    0    0    0 -0.00000000000E+00 -0.00000000000E+00 -0.45593999997E+02  0.45594000000E+02  0.51100000000E-03 0.  1.
    9900012    2    1    2    0    0  0.28060577901E+02 -0.11872964833E+02 -0.26922149213E+02  0.50528862721E+02  0.30000008727E+02 0.  0.
         12    1    1    2    0    0 -0.28060577901E+02  0.11872964833E+02  0.26922149213E+02  0.40659137279E+02  0.00000000000E+00 0. -1.
         11    1    3    3    0    0 -0.51694525957E+00 -0.21731455226E+01  0.72336556252E+00  0.23479888973E+01  0.51100000000E-03 0. -1.
        -11    1    3    3    0    0  0.23649872576E+02 -0.10716229211E+02 -0.32220747155E+02  0.41380316442E+02  0.51100000000E-03 0.  1.
         12    1    3    3    0    0  0.49276505848E+01  0.10164099011E+01  0.45752323798E+01  0.68005573818E+01  0.00000000000E+00 0. -1.
</event>
<event>
 7    1  0.5005325E-012  0.5052886E+02  0.7816164E-02  0.1300439E+00
        -11   -1    0    0    0    0  0.00000000000E+00  0.00000000000E+00  0.45593999997E+02  0.45594000000E+02  0.51100000000E-03 0. -1.
         11   -1    0    0    0    0 -0.00000000000E+00 -0.00000000000E+00 -0.45593999997E+02  0.45594000000E+02  0.51100000000E-03 0.  1.
    9900012    2    1    2    0    0 -0.10527150480E+02  0.13359238335E+02 -0.36930683706E+02  0.50528861481E+02  0.30000004957E+02 0.  0.
         12    1    1    2    0    0  0.10527150480E+02 -0.13359238335E+02  0.36930683706E+02  0.40659138519E+02  0.00000000000E+00 0. -1.
         11    1    3    3    0    0  0.50869282437E+01  0.36991948594E+01 -0.12806190695E+02  0.14267424503E+02  0.51100000000E-03 0. -1.
        -11    1    3    3    0    0 -0.51794031306E+01  0.63872492659E+01 -0.23951853110E+02  0.25324186811E+02  0.51100000000E-03 0.  1.
         12    1    3    3    0    0 -0.10434675593E+02  0.32727942097E+01 -0.17263990128E+00  0.10937250167E+02  0.00000000000E+00 0. -1.
</event>
<event>
 7    1  0.5005325E-012  0.5052886E+02  0.7816164E-02  0.1300439E+00
        -11   -1    0    0    0    0  0.00000000000E+00  0.00000000000E+00  0.45593999997E+02  0.45594000000E+02  0.51100000000E-03 0. -1.
         11   -1    0    0    0    0 -0.00000000000E+00 -0.00000000000E+00 -0.45593999997E+02  0.45594000000E+02  0.51100000000E-03 0.  1.
    9900012    2    1    2    0    0  0.42222372991E+01  0.13345467753E+02 -0.38173775060E+02  0.50528857121E+02  0.29999991705E+02 0.  0.
         12    1    1    2    0    0 -0.42222372991E+01 -0.13345467753E+02  0.38173775060E+02  0.40659142879E+02  0.00000000000E+00 0. -1.
         11    1    3    3    0    0  0.38280797282E+01 -0.75590157936E+01 -0.74020655474E+01  0.11250932797E+02  0.51100000000E-03 0. -1.
        -11    1    3    3    0    0  0.49573063538E+01  0.31981409502E+01 -0.99484870037E+01  0.11566130976E+02  0.51100000000E-03 0.  1.
         12    1    3    3    0    0 -0.45631487828E+01  0.17706342596E+02 -0.20823222509E+02  0.27711793348E+02  0.00000000000E+00 0. -1.
</event>
<event>
 7    1  0.5005325E-012  0.5052886E+02  0.7816164E-02  0.1300439E+00
        -11   -1    0    0    0    0  0.00000000000E+00  0.00000000000E+00  0.45593999997E+02  0.45594000000E+02  0.51100000000E-03 0. -1.
         11   -1    0    0    0    0 -0.00000000000E+00 -0.00000000000E+00 -0.45593999997E+02  0.45594000000E+02  0.51100000000E-03 0.  1.
    9900012    2    1    2    0    0 -0.23837986755E+02 -0.81561712566E+01  0.31912273027E+02  0.50528856971E+02  0.29999991250E+02 0.  0.
        -12    1    1    2    0    0  0.23837986755E+02  0.81561712566E+01 -0.31912273027E+02  0.40659143029E+02  0.00000000000E+00 0.  1.
         11    1    3    3    0    0 -0.21880682505E+02 -0.63795561411E+01  0.16363204266E+02  0.28057395773E+02  0.51100000000E-03 0. -1.
        -11    1    3    3    0    0 -0.75077269330E+01  0.12842221659E+01  0.25895710653E+01  0.80449405737E+01  0.51100000000E-03 0.  1.
        -12    1    3    3    0    0  0.55504226831E+01 -0.30608372814E+01  0.12959497695E+02  0.14426520625E+02  0.00000000000E+00 0.  1.
</event>
<event>
 7    1  0.5005325E-012  0.5052873E+02  0.7816164E-02  0.1300439E+00
        -11   -1    0    0    0    0  0.00000000000E+00  0.00000000000E+00  0.45593999997E+02  0.45594000000E+02  0.51100000000E-03 0. -1.
         11   -1    0    0    0    0 -0.00000000000E+00 -0.00000000000E+00 -0.45593999997E+02  0.45594000000E+02  0.51100000000E-03 0.  1.
    9900012    2    1    2    0    0  0.18805157117E+02 -0.62000904622E+01  0.35511985261E+02  0.50528731031E+02  0.29999608440E+02 0.  0.
        -12    1    1    2    0    0 -0.18805157117E+02  0.62000904622E+01 -0.35511985261E+02  0.40659268969E+02  0.00000000000E+00 0.  1.
         11    1    3    3    0    0  0.26065021633E-01 -0.62321861080E+01  0.11340926794E+01  0.63345867693E+01  0.51100000000E-03 0. -1.
        -11    1    3    3    0    0  0.11945012162E+02  0.57323068761E+01  0.61694742615E+01  0.14615234196E+02  0.51100000000E-03 0.  1.
         12    1    3    3    0    0  0.68340799331E+01 -0.57002112303E+01  0.28208418320E+02  0.29578910066E+02  0.00000000000E+00 0. -1.
</event>
<event>
 7    1  0.5005325E-012  0.5052885E+02  0.7816164E-02  0.1300439E+00
        -11   -1    0    0    0    0  0.00000000000E+00  0.00000000000E+00  0.45593999997E+02  0.45594000000E+02  0.51100000000E-03 0. -1.
         11   -1    0    0    0    0 -0.00000000000E+00 -0.00000000000E+00 -0.45593999997E+02  0.45594000000E+02  0.51100000000E-03 0.  1.
    9900012    2    1    2    0    0  0.23501982319E+02  0.89413879942E+00 -0.33166602678E+02  0.50528853546E+02  0.29999980840E+02 0.  0.
         12    1    1    2    0    0 -0.23501982319E+02 -0.89413879942E+00  0.33166602678E+02  0.40659146454E+02  0.00000000000E+00 0. -1.
         11    1    3    3    0    0  0.15695152000E+01 -0.26310307015E+01  0.31307048910E+01  0.43802983792E+01  0.51100000000E-03 0. -1.
        -11    1    3    3    0    0  0.76554244523E+01 -0.67042036933E+01 -0.18680448165E+02  0.21272306284E+02  0.51100000000E-03 0.  1.
         12    1    3    3    0    0  0.14277042667E+02  0.10229373194E+02 -0.17616859404E+02  0.24876248884E+02  0.00000000000E+00 0. -1.
</event>
<event>
 7    1  0.5005325E-012  0.5052887E+02  0.7816164E-02  0.1300439E+00
        -11   -1    0    0    0    0  0.00000000000E+00  0.00000000000E+00  0.45593999997E+02  0.45594000000E+02  0.51100000000E-03 0. -1.
         11   -1    0    0    0    0 -0.00000000000E+00 -0.00000000000E+00 -0.45593999997E+02  0.45594000000E+02  0.51100000000E-03 0.  1.
    9900012    2    1    2    0    0  0.66669429109E+01 -0.17998897481E+02 -0.35843502201E+02  0.50528867098E+02  0.30000022031E+02 0.  0.
         12    1    1    2    0    0 -0.66669429109E+01  0.17998897481E+02  0.35843502201E+02  0.40659132902E+02  0.00000000000E+00 0. -1.
         11    1    3    3    0    0 -0.53775294133E+01  0.24605347044E+01 -0.85427776813E+01  0.10389952088E+02  0.51100000000E-03 0. -1.
        -11    1    3    3    0    0  0.20774730615E+00 -0.11999348267E+02 -0.21202406696E+02  0.24363283189E+02  0.51100000000E-03 0.  1.
         12    1    3    3    0    0  0.11836725018E+02 -0.84600839185E+01 -0.60983178235E+01  0.15775631820E+02  0.00000000000E+00 0. -1.
</event>
<event>
 7    1  0.5005325E-012  0.5052892E+02  0.7816164E-02  0.1300439E+00
        -11   -1    0    0    0    0  0.00000000000E+00  0.00000000000E+00  0.45593999997E+02  0.45594000000E+02  0.51100000000E-03 0. -1.
         11   -1    0    0    0    0 -0.00000000000E+00 -0.00000000000E+00 -0.45593999997E+02  0.45594000000E+02  0.51100000000E-03 0.  1.
    9900012    2    1    2    0    0  0.81453639449E+01 -0.33838253858E+02 -0.21018710702E+02  0.50528922569E+02  0.30000190641E+02 0.  0.
        -12    1    1    2    0    0 -0.81453639449E+01  0.33838253858E+02  0.21018710702E+02  0.40659077431E+02  0.00000000000E+00 0.  1.
         11    1    3    3    0    0  0.92088311102E+01 -0.32717546407E+01  0.36867160488E+00  0.97797171666E+01  0.51100000000E-03 0. -1.
        -11    1    3    3    0    0 -0.52412301651E+01 -0.86800479249E+01 -0.13977053429E+02  0.17267650345E+02  0.51100000000E-03 0.  1.
         12    1    3    3    0    0  0.41777629998E+01 -0.21886451292E+02 -0.74103288784E+01  0.23481555058E+02  0.00000000000E+00 0. -1.
</event>
<event>
 7    1  0.5005325E-012  0.5052886E+02  0.7816164E-02  0.1300439E+00
        -11   -1    0    0    0    0  0.00000000000E+00  0.00000000000E+00  0.45593999997E+02  0.45594000000E+02  0.51100000000E-03 0. -1.
         11   -1    0    0    0    0 -0.00000000000E+00 -0.00000000000E+00 -0.45593999997E+02  0.45594000000E+02  0.51100000000E-03 0.  1.
    9900012    2    1    2    0    0 -0.63913543650E+00  0.88808836283E+01 -0.39672246227E+02  0.50528859467E+02  0.29999998837E+02 0.  0.
         12    1    1    2    0    0  0.63913543650E+00 -0.88808836283E+01  0.39672246227E+02  0.40659140533E+02  0.00000000000E+00 0. -1.
         11    1    3    3    0    0  0.26394585339E+01  0.51290259765E+01 -0.62336109913E+01  0.84930297934E+01  0.51100000000E-03 0. -1.
        -11    1    3    3    0    0 -0.83855418212E+01  0.45672680556E+01 -0.14814861529E+01  0.96629214324E+01  0.51100000000E-03 0.  1.
        -12    1    3    3    0    0  0.51069478509E+01 -0.81541040378E+00 -0.31957149083E+02  0.32372908241E+02  0.00000000000E+00 0.  1.
</event>
<event>
 7    1  0.5005325E-012  0.5052884E+02  0.7816164E-02  0.1300439E+00
        -11   -1    0    0    0    0  0.00000000000E+00  0.00000000000E+00  0.45593999997E+02  0.45594000000E+02  0.51100000000E-03 0. -1.
         11   -1    0    0    0    0 -0.00000000000E+00 -0.00000000000E+00 -0.45593999997E+02  0.45594000000E+02  0.51100000000E-03 0.  1.
    9900012    2    1    2    0    0 -0.11953202033E+02 -0.29889081052E+02  0.24838099746E+02  0.50528838622E+02  0.29999935474E+02 0.  0.
        -12    1    1    2    0    0  0.11953202033E+02  0.29889081052E+02 -0.24838099746E+02  0.40659161378E+02  0.00000000000E+00 0.  1.
         11    1    3    3    0    0 -0.19561546690E+01 -0.59521757071E+01  0.15187690165E+02  0.16429268685E+02  0.51100000000E-03 0.  1.
        -11    1    3    3    0    0  0.53599384015E+01 -0.12257523364E+02  0.47140894313E+01  0.14184444230E+02  0.51100000000E-03 0. -1.
         12    1    3    3    0    0 -0.15356985766E+02 -0.11679381981E+02  0.49363201499E+01  0.19915125706E+02  0.00000000000E+00 0. -1.
</event>
<event>
 7    1  0.5005325E-012  0.5052886E+02  0.7816164E-02  0.1300439E+00
        -11   -1    0    0    0    0  0.00000000000E+00  0.00000000000E+00  0.45593999997E+02  0.45594000000E+02  0.51100000000E-03 0. -1.
         11   -1    0    0    0    0 -0.00000000000E+00 -0.00000000000E+00 -0.45593999997E+02  0.45594000000E+02  0.51100000000E-03 0.  1.
    9900012    2    1    2    0    0 -0.51350926233E+00 -0.16236891542E+02 -0.37272849710E+02  0.50528860017E+02  0.30000000507E+02 0.  0.
         12    1    1    2    0    0  0.51350926233E+00  0.16236891542E+02  0.37272849710E+02  0.40659139983E+02  0.00000000000E+00 0. -1.
         11    1    3    3    0    0  0.31676063144E+01 -0.71331429282E+01 -0.20001119312E+02  0.21469984439E+02  0.51100000000E-03 0. -1.
        -11    1    3    3    0    0  0.52762166550E+01 -0.11898418084E+02 -0.58304202277E+01  0.14261998997E+02  0.51100000000E-03 0.  1.
         12    1    3    3    0    0 -0.89573322318E+01  0.27946694706E+01 -0.11441310170E+02  0.14796876581E+02  0.00000000000E+00 0. -1.
</event>
<event>
 7    1  0.5005325E-012  0.5052886E+02  0.7816164E-02  0.1300439E+00
        -11   -1    0    0    0    0  0.00000000000E+00  0.00000000000E+00  0.45593999997E+02  0.45594000000E+02  0.51100000000E-03 0. -1.
         11   -1    0    0    0    0 -0.00000000000E+00 -0.00000000000E+00 -0.45593999997E+02  0.45594000000E+02  0.51100000000E-03 0.  1.
    9900012    2    1    2    0    0  0.18039206152E+01  0.22613557490E+02 -0.33742238992E+02  0.50528858296E+02  0.29999995276E+02 0.  0.
         12    1    1    2    0    0 -0.18039206152E+01 -0.22613557490E+02  0.33742238992E+02  0.40659141704E+02  0.00000000000E+00 0. -1.
         11    1    3    3    0    0  0.52371316523E+01  0.77217316439E+01 -0.18942791093E+02  0.21115918692E+02  0.51100000000E-03 0.  1.
        -11    1    3    3    0    0 -0.96905538415E+01  0.37669889837E+01 -0.12804666384E+02  0.16494135965E+02  0.51100000000E-03 0. -1.
         12    1    3    3    0    0  0.62573428044E+01  0.11124836862E+02 -0.19947815149E+01  0.12918803639E+02  0.00000000000E+00 0. -1.
</event>
<event>
 7    1  0.5005325E-012  0.5052887E+02  0.7816164E-02  0.1300439E+00
        -11   -1    0    0    0    0  0.00000000000E+00  0.00000000000E+00  0.45593999997E+02  0.45594000000E+02  0.51100000000E-03 0. -1.
         11   -1    0    0    0    0 -0.00000000000E+00 -0.00000000000E+00 -0.45593999997E+02  0.45594000000E+02  0.51100000000E-03 0.  1.
    9900012    2    1    2    0    0 -0.10163589214E+02  0.12838423724E+02 -0.37216144346E+02  0.50528867331E+02  0.30000022738E+02 0.  0.
         12    1    1    2    0    0  0.10163589214E+02 -0.12838423724E+02  0.37216144346E+02  0.40659132669E+02  0.00000000000E+00 0. -1.
         11    1    3    3    0    0 -0.39888086611E+01 -0.25279466627E+01 -0.99538286905E+01  0.11017250779E+02  0.51100000000E-03 0. -1.
        -11    1    3    3    0    0 -0.11618528427E+02  0.18845359178E+02 -0.21087710586E+02  0.30574978387E+02  0.51100000000E-03 0.  1.
         12    1    3    3    0    0  0.54437478741E+01 -0.34789887908E+01 -0.61746050692E+01  0.89366381645E+01  0.00000000000E+00 0. -1.
</event>
<event>
 7    1  0.5005325E-012  0.5052886E+02  0.7816164E-02  0.1300439E+00
        -11   -1    0    0    0    0  0.00000000000E+00  0.00000000000E+00  0.45593999997E+02  0.45594000000E+02  0.51100000000E-03 0. -1.
         11   -1    0    0    0    0 -0.00000000000E+00 -0.00000000000E+00 -0.45593999997E+02  0.45594000000E+02  0.51100000000E-03 0.  1.
    9900012    2    1    2    0    0 -0.20333138009E+02  0.21212811862E+02  0.28102418207E+02  0.50528858378E+02  0.29999995525E+02 0.  0.
        -12    1    1    2    0    0  0.20333138009E+02 -0.21212811862E+02 -0.28102418207E+02  0.40659141622E+02  0.00000000000E+00 0.  1.
         11    1    3    3    0    0 -0.13957099832E+02  0.59255463058E+01  0.30464014026E+01  0.15465875226E+02  0.51100000000E-03 0. -1.
        -11    1    3    3    0    0 -0.26224306200E+01 -0.37653140942E+01  0.79749278598E+01  0.92007720989E+01  0.51100000000E-03 0.  1.
         12    1    3    3    0    0 -0.37536075571E+01  0.19052579650E+02  0.17081088944E+02  0.25862211053E+02  0.00000000000E+00 0. -1.
</event>
<event>
 7    1  0.8944754E-012  0.5052886E+02  0.7816164E-02  0.1300439E+00
        -11   -1    0    0    0    0  0.00000000000E+00  0.00000000000E+00  0.45593999997E+02  0.45594000000E+02  0.51100000000E-03 0. -1.
         11   -1    0    0    0    0 -0.00000000000E+00 -0.00000000000E+00 -0.45593999997E+02  0.45594000000E+02  0.51100000000E-03 0.  1.
    9900012    2    1    2    0    0  0.65909059899E+01  0.50028136703E+00  0.40118269390E+02  0.50528857583E+02  0.29999993110E+02 0.  0.
        -12    1    1    2    0    0 -0.65909059899E+01 -0.50028136703E+00 -0.40118269390E+02  0.40659142417E+02  0.00000000000E+00 0.  1.
         11    1    3    3    0    0 -0.43079513462E+01  0.52080224031E+01  0.21545333634E+02  0.22580596622E+02  0.51100000000E-03 0. -1.
        -11    1    3    3    0    0  0.29943990712E+01 -0.73090152003E+01  0.17941086115E+02  0.19602823782E+02  0.51100000000E-03 0.  1.
        -12    1    3    3    0    0  0.79044582649E+01  0.26012741641E+01  0.63184964167E+00  0.83454371790E+01  0.00000000000E+00 0.  1.
</event>
<event>
 7    1  0.5005325E-012  0.5052886E+02  0.7816164E-02  0.1300439E+00
        -11   -1    0    0    0    0  0.00000000000E+00  0.00000000000E+00  0.45593999997E+02  0.45594000000E+02  0.51100000000E-03 0. -1.
         11   -1    0    0    0    0 -0.00000000000E+00 -0.00000000000E+00 -0.45593999997E+02  0.45594000000E+02  0.51100000000E-03 0.  1.
    9900012    2    1    2    0    0 -0.25863303433E+01 -0.35688652141E+02 -0.19307945083E+02  0.50528859089E+02  0.29999997687E+02 0.  0.
         12    1    1    2    0    0  0.25863303433E+01  0.35688652141E+02  0.19307945083E+02  0.40659140911E+02  0.00000000000E+00 0. -1.
         11    1    3    3    0    0  0.27306129518E+01 -0.26041531452E+01  0.40868239920E+01  0.55623728120E+01  0.51100000000E-03 0.  1.
        -11    1    3    3    0    0 -0.73341316067E+01 -0.20507600624E+02 -0.45968058313E+01  0.22259420340E+02  0.51100000000E-03 0. -1.
        -12    1    3    3    0    0  0.20171883116E+01 -0.12576898372E+02 -0.18797963244E+02  0.22707065937E+02  0.00000000000E+00 0.  1.
</event>
<event>
 7    1  0.5005325E-012  0.5052887E+02  0.7816164E-02  0.1300439E+00
        -11   -1    0    0    0    0  0.00000000000E+00  0.00000000000E+00  0.45593999997E+02  0.45594000000E+02  0.51100000000E-03 0. -1.
         11   -1    0    0    0    0 -0.00000000000E+00 -0.00000000000E+00 -0.45593999997E+02  0.45594000000E+02  0.51100000000E-03 0.  1.
    9900012    2    1    2    0    0 -0.16920021211E+01  0.13927381053E+02  0.38161895301E+02  0.50528867358E+02  0.30000022823E+02 0.  0.
        -12    1    1    2    0    0  0.16920021211E+01 -0.13927381053E+02 -0.38161895301E+02  0.40659132642E+02  0.00000000000E+00 0.  1.
         11    1    3    3    0    0  0.16320284054E+00 -0.18519332306E+01  0.61737217488E+01  0.64475679407E+01  0.51100000000E-03 0. -1.
        -11    1    3    3    0    0  0.10514302184E+02  0.35603451885E+01  0.20281009087E+02  0.23120249526E+02  0.51100000000E-03 0.  1.
         12    1    3    3    0    0 -0.12369507145E+02  0.12218969095E+02  0.11707164465E+02  0.20961049892E+02  0.00000000000E+00 0. -1.
</event>
<event>
 7    1  0.5005325E-012  0.5052886E+02  0.7816164E-02  0.1300439E+00
        -11   -1    0    0    0    0  0.00000000000E+00  0.00000000000E+00  0.45593999997E+02  0.45594000000E+02  0.51100000000E-03 0. -1.
         11   -1    0    0    0    0 -0.00000000000E+00 -0.00000000000E+00 -0.45593999997E+02  0.45594000000E+02  0.51100000000E-03 0.  1.
    9900012    2    1    2    0    0 -0.36166508339E+01 -0.35487638829E+01 -0.40342181318E+02  0.50528862259E+02  0.30000007321E+02 0.  0.
         12    1    1    2    0    0  0.36166508339E+01  0.35487638829E+01  0.40342181318E+02  0.40659137741E+02  0.00000000000E+00 0. -1.
         11    1    3    3    0    0 -0.32170525665E+01  0.16535754399E+01  0.96681106737E+00  0.37441237763E+01  0.51100000000E-03 0. -1.
        -11    1    3    3    0    0 -0.10722108359E+02 -0.13893444703E+01 -0.23177842289E+02  0.25575501151E+02  0.51100000000E-03 0.  1.
        -12    1    3    3    0    0  0.10322510091E+02 -0.38129948526E+01 -0.18131150097E+02  0.21209237331E+02  0.00000000000E+00 0.  1.
</event>
<event>
 7    1  0.5005325E-012  0.5052886E+02  0.7816164E-02  0.1300439E+00
        -11   -1    0    0    0    0  0.00000000000E+00  0.00000000000E+00  0.45593999997E+02  0.45594000000E+02  0.51100000000E-03 0.  1.
         11   -1    0    0    0    0 -0.00000000000E+00 -0.00000000000E+00 -0.45593999997E+02  0.45594000000E+02  0.51100000000E-03 0. -1.
    9900012    2    1    2    0    0  0.19365922586E+02 -0.28217440669E+02 -0.21952286219E+02  0.50528858522E+02  0.29999995963E+02 0.  0.
        -12    1    1    2    0    0 -0.19365922586E+02  0.28217440669E+02  0.21952286219E+02  0.40659141478E+02  0.00000000000E+00 0.  1.
         11    1    3    3    0    0  0.16790222662E+02 -0.10434328582E+02 -0.61989268460E+00  0.19778044827E+02  0.51100000000E-03 0. -1.
        -11    1    3    3    0    0 -0.22469817414E+01 -0.91381317347E-01  0.43339924165E+00  0.22902210931E+01  0.51100000000E-03 0.  1.
         12    1    3    3    0    0  0.48226816655E+01 -0.17691730770E+02 -0.21765792776E+02  0.28460592602E+02  0.00000000000E+00 0. -1.
</event>
<event>
 7    1  0.5005325E-012  0.5052887E+02  0.7816164E-02  0.1300439E+00
        -11   -1    0    0    0    0  0.00000000000E+00  0.00000000000E+00  0.45593999997E+02  0.45594000000E+02  0.51100000000E-03 0. -1.
         11   -1    0    0    0    0 -0.00000000000E+00 -0.00000000000E+00 -0.45593999997E+02  0.45594000000E+02  0.51100000000E-03 0.  1.
    9900012    2    1    2    0    0  0.44928591999E+00  0.32271674303E+02  0.24728563248E+02  0.50528872360E+02  0.30000038025E+02 0.  0.
        -12    1    1    2    0    0 -0.44928591999E+00 -0.32271674303E+02 -0.24728563248E+02  0.40659127640E+02  0.00000000000E+00 0.  1.
         11    1    3    3    0    0  0.65698540318E+01  0.10071390173E+02  0.15710444291E+02  0.19784184140E+02  0.51100000000E-03 0. -1.
        -11    1    3    3    0    0  0.23843046625E+01  0.54171156749E+01  0.10307041005E+02  0.11885501483E+02  0.51100000000E-03 0.  1.
         12    1    3    3    0    0 -0.85048727743E+01  0.16783168455E+02 -0.12889220486E+01  0.18859186736E+02  0.00000000000E+00 0. -1.
</event>
<event>
 7    1  0.5005325E-012  0.5052886E+02  0.7816164E-02  0.1300439E+00
        -11   -1    0    0    0    0  0.00000000000E+00  0.00000000000E+00  0.45593999997E+02  0.45594000000E+02  0.51100000000E-03 0.  1.
         11   -1    0    0    0    0 -0.00000000000E+00 -0.00000000000E+00 -0.45593999997E+02  0.45594000000E+02  0.51100000000E-03 0. -1.
    9900012    2    1    2    0    0 -0.61211866366E+01 -0.40030356643E+02  0.36423756323E+01  0.50528864752E+02  0.30000014901E+02 0.  0.
        -12    1    1    2    0    0  0.61211866366E+01  0.40030356643E+02 -0.36423756323E+01  0.40659135248E+02  0.00000000000E+00 0.  1.
         11    1    3    3    0    0  0.59389882410E+00 -0.33446321253E+01  0.50135910153E+01  0.60560197322E+01  0.51100000000E-03 0. -1.
        -11    1    3    3    0    0 -0.38449889760E+01 -0.33185398692E+02  0.77461072447E+01  0.34293684612E+02  0.51100000000E-03 0.  1.
        -12    1    3    3    0    0 -0.28700964847E+01 -0.35003258264E+01 -0.91173226277E+01  0.10179160408E+02  0.00000000000E+00 0.  1.
</event>
<event>
 7    1  0.5005325E-012  0.5052887E+02  0.7816164E-02  0.1300439E+00
        -11   -1    0    0    0    0  0.00000000000E+00  0.00000000000E+00  0.45593999997E+02  0.45594000000E+02  0.51100000000E-03 0. -1.
         11   -1    0    0    0    0 -0.00000000000E+00 -0.00000000000E+00 -0.45593999997E+02  0.45594000000E+02  0.51100000000E-03 0.  1.
    9900012    2    1    2    0    0  0.26976510794E+02  0.18439646299E+02 -0.24195288986E+02  0.50528871881E+02  0.30000036569E+02 0.  0.
         12    1    1    2    0    0 -0.26976510794E+02 -0.18439646299E+02  0.24195288986E+02  0.40659128119E+02  0.00000000000E+00 0. -1.
         11    1    3    3    0    0 -0.15311156178E+01  0.42485072751E+00  0.29341247754E+01  0.33367501607E+01  0.51100000000E-03 0. -1.
        -11    1    3    3    0    0  0.20926258775E+02  0.33420645864E+01 -0.20216911004E+02  0.29288243253E+02  0.51100000000E-03 0.  1.
         12    1    3    3    0    0  0.75813676369E+01  0.14672730985E+02 -0.69125027579E+01  0.17903878468E+02  0.00000000000E+00 0. -1.
</event>
<event>
 7    1  0.5005325E-012  0.5052887E+02  0.7816164E-02  0.1300439E+00
        -11   -1    0    0    0    0  0.00000000000E+00  0.00000000000E+00  0.45593999997E+02  0.45594000000E+02  0.51100000000E-03 0.  1.
         11   -1    0    0    0    0 -0.00000000000E+00 -0.00000000000E+00 -0.45593999997E+02  0.45594000000E+02  0.51100000000E-03 0. -1.
    9900012    2    1    2    0    0  0.14193285653E+02  0.23088372091E+02  0.30309121261E+02  0.50528866769E+02  0.30000021031E+02 0.  0.
        -12    1    1    2    0    0 -0.14193285653E+02 -0.23088372091E+02 -0.30309121261E+02  0.40659133231E+02  0.00000000000E+00 0.  1.
         11    1    3    3    0    0  0.11312756821E+02  0.13250305858E+01  0.13264210172E+02  0.17483519231E+02  0.51100000000E-03 0. -1.
        -11    1    3    3    0    0 -0.33749382142E+01 -0.57695057221E+00 -0.10961581025E+01  0.35950859182E+01  0.51100000000E-03 0.  1.
        -12    1    3    3    0    0  0.62554670471E+01  0.22340292077E+02  0.18141069191E+02  0.29450261620E+02  0.00000000000E+00 0.  1.
</event>
<event>
 7    1  0.5005325E-012  0.5052886E+02  0.7816164E-02  0.1300439E+00
        -11   -1    0    0    0    0  0.00000000000E+00  0.00000000000E+00  0.45593999997E+02  0.45594000000E+02  0.51100000000E-03 0. -1.
         11   -1    0    0    0    0 -0.00000000000E+00 -0.00000000000E+00 -0.45593999997E+02  0.45594000000E+02  0.51100000000E-03 0.  1.
    9900012    2    1    2    0    0 -0.29750791093E+02 -0.13991466623E+02 -0.23922694965E+02  0.50528855354E+02  0.29999986335E+02 0.  0.
         12    1    1    2    0    0  0.29750791093E+02  0.13991466623E+02  0.23922694965E+02  0.40659144646E+02  0.00000000000E+00 0. -1.
         11    1    3    3    0    0 -0.87154597749E+01 -0.18629293463E+01 -0.13128014355E+02  0.15867403884E+02  0.51100000000E-03 0.  1.
        -11    1    3    3    0    0 -0.23810354595E+02 -0.42132022324E+01 -0.10228608441E+02  0.26254685103E+02  0.51100000000E-03 0. -1.
         12    1    3    3    0    0  0.27750232764E+01 -0.79153350445E+01 -0.56607216842E+00  0.84067663671E+01  0.00000000000E+00 0. -1.
</event>
<event>
 7    1  0.5005325E-012  0.5052885E+02  0.7816164E-02  0.1300439E+00
        -11   -1    0    0    0    0  0.00000000000E+00  0.00000000000E+00  0.45593999997E+02  0.45594000000E+02  0.51100000000E-03 0. -1.
         11   -1    0    0    0    0 -0.00000000000E+00 -0.00000000000E+00 -0.45593999997E+02  0.45594000000E+02  0.51100000000E-03 0.  1.
    9900012    2    1    2    0    0 -0.96540582834E+01 -0.32365173647E+02 -0.22637596768E+02  0.50528854731E+02  0.29999984441E+02 0.  0.
         12    1    1    2    0    0  0.96540582834E+01  0.32365173647E+02  0.22637596768E+02  0.40659145269E+02  0.00000000000E+00 0. -1.
         11    1    3    3    0    0  0.32432140202E+01 -0.24901961098E+01 -0.10659406574E+02  0.11416762352E+02  0.51100000000E-03 0. -1.
        -11    1    3    3    0    0  0.23589965124E+01 -0.45788918891E+01  0.30317644125E+01  0.59768479311E+01  0.51100000000E-03 0.  1.
        -12    1    3    3    0    0 -0.15256268816E+02 -0.25296085649E+02 -0.15009954607E+02  0.33135244448E+02  0.00000000000E+00 0.  1.
</event>
<event>
 7    1  0.5005325E-012  0.5052886E+02  0.7816164E-02  0.1300439E+00
        -11   -1    0    0    0    0  0.00000000000E+00  0.00000000000E+00  0.45593999997E+02  0.45594000000E+02  0.51100000000E-03 0. -1.
         11   -1    0    0    0    0 -0.00000000000E+00 -0.00000000000E+00 -0.45593999997E+02  0.45594000000E+02  0.51100000000E-03 0.  1.
    9900012    2    1    2    0    0  0.28157054923E+02  0.60254925984E+01 -0.28706090214E+02  0.50528856891E+02  0.29999991007E+02 0.  0.
         12    1    1    2    0    0 -0.28157054923E+02 -0.60254925984E+01  0.28706090214E+02  0.40659143109E+02  0.00000000000E+00 0. -1.
         11    1    3    3    0    0  0.54243640813E+01 -0.33814115919E+01 -0.40586875106E+00  0.64048731248E+01  0.51100000000E-03 0. -1.
        -11    1    3    3    0    0  0.72575032866E+01 -0.36370006271E+01 -0.21157471273E+02  0.22661370622E+02  0.51100000000E-03 0.  1.
        -12    1    3    3    0    0  0.15475187555E+02  0.13043904817E+02 -0.71427501897E+01  0.21462613145E+02  0.00000000000E+00 0.  1.
</event>
<event>
 7    1  0.5005325E-012  0.5052886E+02  0.7816164E-02  0.1300439E+00
        -11   -1    0    0    0    0  0.00000000000E+00  0.00000000000E+00  0.45593999997E+02  0.45594000000E+02  0.51100000000E-03 0. -1.
         11   -1    0    0    0    0 -0.00000000000E+00 -0.00000000000E+00 -0.45593999997E+02  0.45594000000E+02  0.51100000000E-03 0.  1.
    9900012    2    1    2    0    0  0.32308453814E+01  0.22652026572E+02 -0.33609719510E+02  0.50528856929E+02  0.29999991123E+02 0.  0.
         12    1    1    2    0    0 -0.32308453814E+01 -0.22652026572E+02  0.33609719510E+02  0.40659143071E+02  0.00000000000E+00 0. -1.
         11    1    3    3    0    0  0.16128978914E+00  0.11768235096E+01  0.21128846715E+01  0.24238832202E+01  0.51100000000E-03 0. -1.
        -11    1    3    3    0    0  0.95108250021E+01  0.11004362061E+02 -0.56269495159E+01  0.15595330638E+02  0.51100000000E-03 0.  1.
         12    1    3    3    0    0 -0.64412694098E+01  0.10470841001E+02 -0.30095654665E+02  0.32509643071E+02  0.00000000000E+00 0. -1.
</event>
<event>
 7    1  0.5005325E-012  0.5052886E+02  0.7816164E-02  0.1300439E+00
        -11   -1    0    0    0    0  0.00000000000E+00  0.00000000000E+00  0.45593999997E+02  0.45594000000E+02  0.51100000000E-03 0. -1.
         11   -1    0    0    0    0 -0.00000000000E+00 -0.00000000000E+00 -0.45593999997E+02  0.45594000000E+02  0.51100000000E-03 0.  1.
    9900012    2    1    2    0    0 -0.42944844893E+01  0.86469273249E+01 -0.39496245388E+02  0.50528863894E+02  0.30000012291E+02 0.  0.
         12    1    1    2    0    0  0.42944844893E+01 -0.86469273249E+01  0.39496245388E+02  0.40659136106E+02  0.00000000000E+00 0. -1.
         11    1    3    3    0    0 -0.90048836350E+01 -0.39770176952E+01 -0.67843583141E+01  0.11955422076E+02  0.51100000000E-03 0. -1.
        -11    1    3    3    0    0 -0.41359577373E+01  0.11160145724E+01 -0.22701198630E+01  0.48482037275E+01  0.51100000000E-03 0.  1.
         12    1    3    3    0    0  0.88463568830E+01  0.11507930448E+02 -0.30441767211E+02  0.33725238090E+02  0.00000000000E+00 0. -1.
</event>
<event>
 7    1  0.5005325E-012  0.5052886E+02  0.7816164E-02  0.1300439E+00
        -11   -1    0    0    0    0  0.00000000000E+00  0.00000000000E+00  0.45593999997E+02  0.45594000000E+02  0.51100000000E-03 0. -1.
         11   -1    0    0    0    0 -0.00000000000E+00 -0.00000000000E+00 -0.45593999997E+02  0.45594000000E+02  0.51100000000E-03 0.  1.
    9900012    2    1    2    0    0  0.43329598762E+01  0.32562702863E+01 -0.40296248473E+02  0.50528862300E+02  0.30000007448E+02 0.  0.
         12    1    1    2    0    0 -0.43329598762E+01 -0.32562702863E+01  0.40296248473E+02  0.40659137700E+02  0.00000000000E+00 0. -1.
         11    1    3    3    0    0  0.29630616304E+01 -0.55488929515E+01 -0.13182313950E+01  0.64271052181E+01  0.51100000000E-03 0. -1.
        -11    1    3    3    0    0 -0.31795155701E+01  0.68895603522E+01 -0.36312540110E+01  0.84119775951E+01  0.51100000000E-03 0.  1.
        -12    1    3    3    0    0  0.45494138159E+01  0.19156028856E+01 -0.35346763067E+02  0.35689779487E+02  0.00000000000E+00 0.  1.
</event>
<event>
 7    1  0.5005325E-012  0.5052889E+02  0.7816164E-02  0.1300439E+00
        -11   -1    0    0    0    0  0.00000000000E+00  0.00000000000E+00  0.45593999997E+02  0.45594000000E+02  0.51100000000E-03 0. -1.
         11   -1    0    0    0    0 -0.00000000000E+00 -0.00000000000E+00 -0.45593999997E+02  0.45594000000E+02  0.51100000000E-03 0.  1.
    9900012    2    1    2    0    0  0.15533428925E+02  0.33663386579E+02 -0.16692874955E+02  0.50528891741E+02  0.30000096936E+02 0.  0.
         12    1    1    2    0    0 -0.15533428925E+02 -0.33663386579E+02  0.16692874955E+02  0.40659108259E+02  0.00000000000E+00 0. -1.
         11    1    3    3    0    0  0.44854388184E+01 -0.19193558601E+01  0.35722915943E+00  0.48919015981E+01  0.51100000000E-03 0. -1.
        -11    1    3    3    0    0 -0.39427588202E+01  0.22489079916E+01 -0.58610421130E+01  0.74131470497E+01  0.51100000000E-03 0.  1.
        -12    1    3    3    0    0  0.14990748927E+02  0.33333834447E+02 -0.11189062002E+02  0.38223843093E+02  0.00000000000E+00 0.  1.
</event>
<event>
 7    1  0.5005325E-012  0.5052886E+02  0.7816164E-02  0.1300439E+00
        -11   -1    0    0    0    0  0.00000000000E+00  0.00000000000E+00  0.45593999997E+02  0.45594000000E+02  0.51100000000E-03 0. -1.
         11   -1    0    0    0    0 -0.00000000000E+00 -0.00000000000E+00 -0.45593999997E+02  0.45594000000E+02  0.51100000000E-03 0.  1.
    9900012    2    1    2    0    0  0.88568904561E+00  0.41106213532E+01  0.40441116521E+02  0.50528861317E+02  0.30000004458E+02 0.  0.
        -12    1    1    2    0    0 -0.88568904561E+00 -0.41106213532E+01 -0.40441116521E+02  0.40659138683E+02  0.00000000000E+00 0.  1.
         11    1    3    3    0    0 -0.28557093763E+01 -0.94805742968E+01  0.24119781742E+02  0.26072979051E+02  0.51100000000E-03 0. -1.
        -11    1    3    3    0    0 -0.13080779212E+01  0.23991431186E+01 -0.12619344651E+01  0.30098894343E+01  0.51100000000E-03 0.  1.
        -12    1    3    3    0    0  0.50494763432E+01  0.11192052531E+02  0.17583269245E+02  0.21445992832E+02  0.00000000000E+00 0.  1.
</event>
<event>
 7    1  0.5005325E-012  0.5052888E+02  0.7816164E-02  0.1300439E+00
        -11   -1    0    0    0    0  0.00000000000E+00  0.00000000000E+00  0.45593999997E+02  0.45594000000E+02  0.51100000000E-03 0.  1.
         11   -1    0    0    0    0 -0.00000000000E+00 -0.00000000000E+00 -0.45593999997E+02  0.45594000000E+02  0.51100000000E-03 0. -1.
    9900012    2    1    2    0    0  0.21383703930E+01  0.39823609760E+02 -0.79165558862E+01  0.50528875817E+02  0.30000048532E+02 0.  0.
         12    1    1    2    0    0 -0.21383703930E+01 -0.39823609760E+02  0.79165558862E+01  0.40659124183E+02  0.00000000000E+00 0. -1.
         11    1    3    3    0    0 -0.20330597681E+01  0.18523280641E+02 -0.79562262542E+00  0.18651495204E+02  0.51100000000E-03 0. -1.
        -11    1    3    3    0    0  0.11781473026E+02  0.13957992309E+02  0.13684451023E+01  0.18316694522E+02  0.51100000000E-03 0.  1.
         12    1    3    3    0    0 -0.76100428650E+01  0.73423368099E+01 -0.84893783630E+01  0.13560686090E+02  0.00000000000E+00 0. -1.
</event>
<event>
 7    1  0.5005325E-012  0.5052887E+02  0.7816164E-02  0.1300439E+00
        -11   -1    0    0    0    0  0.00000000000E+00  0.00000000000E+00  0.45593999997E+02  0.45594000000E+02  0.51100000000E-03 0. -1.
         11   -1    0    0    0    0 -0.00000000000E+00 -0.00000000000E+00 -0.45593999997E+02  0.45594000000E+02  0.51100000000E-03 0.  1.
    9900012    2    1    2    0    0 -0.14892942311E+02 -0.28199247973E+01 -0.37728151007E+02  0.50528867140E+02  0.30000022158E+02 0.  0.
         12    1    1    2    0    0  0.14892942311E+02  0.28199247973E+01  0.37728151007E+02  0.40659132860E+02  0.00000000000E+00 0. -1.
         11    1    3    3    0    0 -0.13566931812E+02  0.35268146246E+01 -0.14178893114E+02  0.19938431994E+02  0.51100000000E-03 0. -1.
        -11    1    3    3    0    0  0.71578703047E+00 -0.15809248523E+01  0.30399578033E+01  0.35004311404E+01  0.51100000000E-03 0.  1.
        -12    1    3    3    0    0 -0.20417975297E+01 -0.47658145696E+01 -0.26589215696E+02  0.27090004005E+02  0.00000000000E+00 0.  1.
</event>
<event>
 7    1  0.5005325E-012  0.5052885E+02  0.7816164E-02  0.1300439E+00
        -11   -1    0    0    0    0  0.00000000000E+00  0.00000000000E+00  0.45593999997E+02  0.45594000000E+02  0.51100000000E-03 0.  1.
         11   -1    0    0    0    0 -0.00000000000E+00 -0.00000000000E+00 -0.45593999997E+02  0.45594000000E+02  0.51100000000E-03 0. -1.
    9900012    2    1    2    0    0 -0.13644870077E+02  0.38231434891E+02  0.23112029571E+01  0.50528846635E+02  0.29999959832E+02 0.  0.
        -12    1    1    2    0    0  0.13644870077E+02 -0.38231434891E+02 -0.23112029571E+01  0.40659153365E+02  0.00000000000E+00 0.  1.
         11    1    3    3    0    0 -0.17350783903E+02  0.27389776759E+02  0.85809367685E+00  0.32434332088E+02  0.51100000000E-03 0. -1.
        -11    1    3    3    0    0  0.16069496076E+00  0.91176398977E+00  0.63867786924E+01  0.64535322708E+01  0.51100000000E-03 0.  1.
        -12    1    3    3    0    0  0.35452188658E+01  0.99298941424E+01 -0.49336694122E+01  0.11640982276E+02  0.00000000000E+00 0.  1.
</event>
<event>
 7    1  0.5005325E-012  0.5052886E+02  0.7816164E-02  0.1300439E+00
        -11   -1    0    0    0    0  0.00000000000E+00  0.00000000000E+00  0.45593999997E+02  0.45594000000E+02  0.51100000000E-03 0.  1.
         11   -1    0    0    0    0 -0.00000000000E+00 -0.00000000000E+00 -0.45593999997E+02  0.45594000000E+02  0.51100000000E-03 0. -1.
    9900012    2    1    2    0    0  0.27997736625E+02  0.29218307985E+02 -0.39475059733E+01  0.50528861040E+02  0.30000003616E+02 0.  0.
         12    1    1    2    0    0 -0.27997736625E+02 -0.29218307985E+02  0.39475059733E+01  0.40659138960E+02  0.00000000000E+00 0. -1.
         11    1    3    3    0    0 -0.57683518607E+01  0.50212925433E+01 -0.41353467191E+01  0.86941563560E+01  0.51100000000E-03 0.  1.
        -11    1    3    3    0    0  0.85184874147E+01  0.39197248971E+01 -0.10032821990E+01  0.94305591847E+01  0.51100000000E-03 0. -1.
        -12    1    3    3    0    0  0.25247601070E+02  0.20277290545E+02  0.11911229448E+01  0.32404145499E+02  0.00000000000E+00 0.  1.
</event>
<event>
 7    1  0.5005325E-012  0.5052887E+02  0.7816164E-02  0.1300439E+00
        -11   -1    0    0    0    0  0.00000000000E+00  0.00000000000E+00  0.45593999997E+02  0.45594000000E+02  0.51100000000E-03 0. -1.
         11   -1    0    0    0    0 -0.00000000000E+00 -0.00000000000E+00 -0.45593999997E+02  0.45594000000E+02  0.51100000000E-03 0.  1.
    9900012    2    1    2    0    0  0.19097146609E+02  0.12939180015E+02 -0.33481962884E+02  0.50528865397E+02  0.30000016862E+02 0.  0.
         12    1    1    2    0    0 -0.19097146609E+02 -0.12939180015E+02  0.33481962884E+02  0.40659134603E+02  0.00000000000E+00 0. -1.
         11    1    3    3    0    0  0.49668305225E+01 -0.21235429900E+00  0.28156235495E+01  0.57133384305E+01  0.51100000000E-03 0. -1.
        -11    1    3    3    0    0  0.11356518342E+02 -0.66560453280E+00 -0.10819376196E+02  0.15699440747E+02  0.51100000000E-03 0.  1.
        -12    1    3    3    0    0  0.27737977443E+01  0.13817138847E+02 -0.25478210238E+02  0.29116086220E+02  0.00000000000E+00 0.  1.
</event>
<event>
 7    1  0.5005325E-012  0.5052886E+02  0.7816164E-02  0.1300439E+00
        -11   -1    0    0    0    0  0.00000000000E+00  0.00000000000E+00  0.45593999997E+02  0.45594000000E+02  0.51100000000E-03 0. -1.
         11   -1    0    0    0    0 -0.00000000000E+00 -0.00000000000E+00 -0.45593999997E+02  0.45594000000E+02  0.51100000000E-03 0.  1.
    9900012    2    1    2    0    0 -0.38891400508E+01  0.25176402662E+02  0.31688940037E+02  0.50528861027E+02  0.30000003578E+02 0.  0.
        -12    1    1    2    0    0  0.38891400508E+01 -0.25176402662E+02 -0.31688940037E+02  0.40659138973E+02  0.00000000000E+00 0.  1.
         11    1    3    3    0    0 -0.13789175404E+02  0.68855934941E+01  0.13527262416E+02  0.20507061828E+02  0.51100000000E-03 0. -1.
        -11    1    3    3    0    0  0.20774845445E+01  0.14549167017E+02  0.82560841610E+01  0.16856960843E+02  0.51100000000E-03 0.  1.
        -12    1    3    3    0    0  0.78225508088E+01  0.37416421501E+01  0.99055934602E+01  0.13164838356E+02  0.00000000000E+00 0.  1.
</event>
<event>
 7    1  0.5005325E-012  0.5052886E+02  0.7816164E-02  0.1300439E+00
        -11   -1    0    0    0    0  0.00000000000E+00  0.00000000000E+00  0.45593999997E+02  0.45594000000E+02  0.51100000000E-03 0.  1.
         11   -1    0    0    0    0 -0.00000000000E+00 -0.00000000000E+00 -0.45593999997E+02  0.45594000000E+02  0.51100000000E-03 0. -1.
    9900012    2    1    2    0    0 -0.33595558038E+02  0.65303707974E+01  0.21951280481E+02  0.50528856165E+02  0.29999988799E+02 0.  0.
        -12    1    1    2    0    0  0.33595558038E+02 -0.65303707974E+01 -0.21951280481E+02  0.40659143835E+02  0.00000000000E+00 0.  1.
         11    1    3    3    0    0 -0.59538823706E+01 -0.31516267058E+01  0.82520800030E+01  0.10652618965E+02  0.51100000000E-03 0.  1.
        -11    1    3    3    0    0 -0.21594820555E+02  0.82977564461E+01 -0.17777995493E+01  0.23202362129E+02  0.51100000000E-03 0. -1.
         12    1    3    3    0    0 -0.60468551123E+01  0.13842410571E+01  0.15477000027E+02  0.16673875071E+02  0.00000000000E+00 0. -1.
</event>
<event>
 7    1  0.5005325E-012  0.5052886E+02  0.7816164E-02  0.1300439E+00
        -11   -1    0    0    0    0  0.00000000000E+00  0.00000000000E+00  0.45593999997E+02  0.45594000000E+02  0.51100000000E-03 0.  1.
         11   -1    0    0    0    0 -0.00000000000E+00 -0.00000000000E+00 -0.45593999997E+02  0.45594000000E+02  0.51100000000E-03 0. -1.
    9900012    2    1    2    0    0  0.18831899494E+02  0.21510250544E+02  0.28910803852E+02  0.50528857161E+02  0.29999991827E+02 0.  0.
        -12    1    1    2    0    0 -0.18831899494E+02 -0.21510250544E+02 -0.28910803852E+02  0.40659142839E+02  0.00000000000E+00 0.  1.
         11    1    3    3    0    0  0.88914045558E+01  0.73947008675E+01  0.81306393273E+01  0.14136688864E+02  0.51100000000E-03 0. -1.
        -11    1    3    3    0    0  0.76537391575E+01  0.10355378445E+02  0.26329443879E+02  0.29309609364E+02  0.51100000000E-03 0.  1.
         12    1    3    3    0    0  0.22867557808E+01  0.37601712317E+01 -0.55492793545E+01  0.70825589335E+01  0.00000000000E+00 0. -1.
</event>
<event>
 7    1  0.5005325E-012  0.5052885E+02  0.7816164E-02  0.1300439E+00
        -11   -1    0    0    0    0  0.00000000000E+00  0.00000000000E+00  0.45593999997E+02  0.45594000000E+02  0.51100000000E-03 0. -1.
         11   -1    0    0    0    0 -0.00000000000E+00 -0.00000000000E+00 -0.45593999997E+02  0.45594000000E+02  0.51100000000E-03 0.  1.
    9900012    2    1    2    0    0  0.36680492163E+02  0.12288797973E+02 -0.12517721753E+02  0.50528850737E+02  0.29999972299E+02 0.  0.
         12    1    1    2    0    0 -0.36680492163E+02 -0.12288797973E+02  0.12517721753E+02  0.40659149263E+02  0.00000000000E+00 0. -1.
         11    1    3    3    0    0  0.35183656957E+01 -0.73943787273E+01  0.32858257410E+00  0.81953462832E+01  0.51100000000E-03 0. -1.
        -11    1    3    3    0    0  0.17311886719E+02  0.12778059619E+02 -0.13259039099E+01  0.21557788635E+02  0.51100000000E-03 0.  1.
        -12    1    3    3    0    0  0.15850239748E+02  0.69051170816E+01 -0.11520400418E+02  0.20775715818E+02  0.00000000000E+00 0.  1.
</event>
<event>
 7    1  0.5005325E-012  0.5052886E+02  0.7816164E-02  0.1300439E+00
        -11   -1    0    0    0    0  0.00000000000E+00  0.00000000000E+00  0.45593999997E+02  0.45594000000E+02  0.51100000000E-03 0. -1.
         11   -1    0    0    0    0 -0.00000000000E+00 -0.00000000000E+00 -0.45593999997E+02  0.45594000000E+02  0.51100000000E-03 0.  1.
    9900012    2    1    2    0    0 -0.54088611719E+01  0.31875307925E+02 -0.24655114710E+02  0.50528859381E+02  0.29999998574E+02 0.  0.
         12    1    1    2    0    0  0.54088611719E+01 -0.31875307925E+02  0.24655114710E+02  0.40659140619E+02  0.00000000000E+00 0. -1.
         11    1    3    3    0    0  0.49525888741E+01  0.13255995197E+02 -0.95266991909E+01  0.17058943195E+02  0.51100000000E-03 0.  1.
        -11    1    3    3    0    0 -0.90103778087E+01  0.47870600337E+01 -0.16609613384E+02  0.19493129791E+02  0.51100000000E-03 0. -1.
         12    1    3    3    0    0 -0.13510722372E+01  0.13832252695E+02  0.14811978642E+01  0.13976786395E+02  0.00000000000E+00 0. -1.
</event>
<event>
 7    1  0.5005325E-012  0.5052886E+02  0.7816164E-02  0.1300439E+00
        -11   -1    0    0    0    0  0.00000000000E+00  0.00000000000E+00  0.45593999997E+02  0.45594000000E+02  0.51100000000E-03 0.  1.
         11   -1    0    0    0    0 -0.00000000000E+00 -0.00000000000E+00 -0.45593999997E+02  0.45594000000E+02  0.51100000000E-03 0. -1.
    9900012    2    1    2    0    0  0.40628215555E+02 -0.57309611188E+00 -0.14783360097E+01  0.50528858153E+02  0.29999994842E+02 0.  0.
         12    1    1    2    0    0 -0.40628215555E+02  0.57309611188E+00  0.14783360097E+01  0.40659141847E+02  0.00000000000E+00 0. -1.
         11    1    3    3    0    0  0.28279864520E+00 -0.55024247924E+00 -0.73661357637E+01  0.73920699543E+01  0.51100000000E-03 0. -1.
        -11    1    3    3    0    0  0.10789597617E+02  0.62117341961E+01  0.54639369033E+00  0.12461926207E+02  0.51100000000E-03 0.  1.
        -12    1    3    3    0    0  0.29555819293E+02 -0.62345878287E+01  0.53414060636E+01  0.30674861992E+02  0.00000000000E+00 0.  1.
</event>
<event>
 7    1  0.5005325E-012  0.5052886E+02  0.7816164E-02  0.1300439E+00
        -11   -1    0    0    0    0  0.00000000000E+00  0.00000000000E+00  0.45593999997E+02  0.45594000000E+02  0.51100000000E-03 0. -1.
         11   -1    0    0    0    0 -0.00000000000E+00 -0.00000000000E+00 -0.45593999997E+02  0.45594000000E+02  0.51100000000E-03 0.  1.
    9900012    2    1    2    0    0  0.29542400906E+02  0.26675150198E+02 -0.82974958277E+01  0.50528861711E+02  0.30000005658E+02 0.  0.
         12    1    1    2    0    0 -0.29542400906E+02 -0.26675150198E+02  0.82974958277E+01  0.40659138289E+02  0.00000000000E+00 0. -1.
         11    1    3    3    0    0  0.15956855814E+02  0.19211081564E+01  0.15945960352E+01  0.16150995040E+02  0.51100000000E-03 0. -1.
        -11    1    3    3    0    0  0.77871651175E+01  0.12690175618E+02  0.36578023914E+01  0.15331667110E+02  0.51100000000E-03 0.  1.
        -12    1    3    3    0    0  0.57983799749E+01  0.12063866424E+02 -0.13549894254E+02  0.19046199561E+02  0.00000000000E+00 0.  1.
</event>
<event>
 7    1  0.5005325E-012  0.5052886E+02  0.7816164E-02  0.1300439E+00
        -11   -1    0    0    0    0  0.00000000000E+00  0.00000000000E+00  0.45593999997E+02  0.45594000000E+02  0.51100000000E-03 0.  1.
         11   -1    0    0    0    0 -0.00000000000E+00 -0.00000000000E+00 -0.45593999997E+02  0.45594000000E+02  0.51100000000E-03 0. -1.
    9900012    2    1    2    0    0  0.27784008300E+02 -0.20103104961E+02  0.21842157382E+02  0.50528858526E+02  0.29999995975E+02 0.  0.
        -12    1    1    2    0    0 -0.27784008300E+02  0.20103104961E+02 -0.21842157382E+02  0.40659141474E+02  0.00000000000E+00 0.  1.
         11    1    3    3    0    0  0.25833275457E+02 -0.14585761575E+02  0.11943322382E+02  0.31980392607E+02  0.51100000000E-03 0. -1.
        -11    1    3    3    0    0  0.28011946665E+01  0.15124666106E+01 -0.26483793674E+01  0.41410337287E+01  0.51100000000E-03 0.  1.
        -12    1    3    3    0    0 -0.85046182295E+00 -0.70298099966E+01  0.12547214368E+02  0.14407432190E+02  0.00000000000E+00 0.  1.
</event>
<event>
 7    1  0.5170325E-012  0.5052885E+02  0.7816164E-02  0.1300439E+00
        -11   -1    0    0    0    0  0.00000000000E+00  0.00000000000E+00  0.45593999997E+02  0.45594000000E+02  0.51100000000E-03 0. -1.
         11   -1    0    0    0    0 -0.00000000000E+00 -0.00000000000E+00 -0.45593999997E+02  0.45594000000E+02  0.51100000000E-03 0.  1.
    9900012    2    1    2    0    0  0.80728777230E+01  0.28308250369E+02  0.28047068236E+02  0.50528850595E+02  0.29999971868E+02 0.  0.
        -12    1    1    2    0    0 -0.80728777230E+01 -0.28308250369E+02 -0.28047068236E+02  0.40659149405E+02  0.00000000000E+00 0.  1.
         11    1    3    3    0    0  0.12015110036E+02  0.50412062031E+01  0.15373838254E+02  0.20152705329E+02  0.51100000000E-03 0. -1.
        -11    1    3    3    0    0  0.42858490200E+00  0.21282010137E+02  0.13898281720E+02  0.25421838555E+02  0.51100000000E-03 0.  1.
        -12    1    3    3    0    0 -0.43708172150E+01  0.19850340287E+01 -0.12250517373E+01  0.49543067104E+01  0.00000000000E+00 0.  1.
</event>
<event>
 7    1  0.5005325E-012  0.5052886E+02  0.7816164E-02  0.1300439E+00
        -11   -1    0    0    0    0  0.00000000000E+00  0.00000000000E+00  0.45593999997E+02  0.45594000000E+02  0.51100000000E-03 0. -1.
         11   -1    0    0    0    0 -0.00000000000E+00 -0.00000000000E+00 -0.45593999997E+02  0.45594000000E+02  0.51100000000E-03 0.  1.
    9900012    2    1    2    0    0  0.35338952066E+02  0.71351334022E+01  0.18799310188E+02  0.50528859264E+02  0.29999998219E+02 0.  0.
        -12    1    1    2    0    0 -0.35338952066E+02 -0.71351334022E+01 -0.18799310188E+02  0.40659140736E+02  0.00000000000E+00 0.  1.
         11    1    3    3    0    0  0.13522333991E+02 -0.16578099792E+01  0.21364388117E+02  0.25338487136E+02  0.51100000000E-03 0. -1.
        -11    1    3    3    0    0  0.23259365733E+01 -0.15556413106E+01 -0.13029344889E+01  0.30866874435E+01  0.51100000000E-03 0.  1.
        -12    1    3    3    0    0  0.19490681502E+02  0.10348584692E+02 -0.12621434399E+01  0.22103684684E+02  0.00000000000E+00 0.  1.
</event>
<event>
 7    1  0.5005325E-012  0.5052879E+02  0.7816164E-02  0.1300439E+00
        -11   -1    0    0    0    0  0.00000000000E+00  0.00000000000E+00  0.45593999997E+02  0.45594000000E+02  0.51100000000E-03 0. -1.
         11   -1    0    0    0    0 -0.00000000000E+00 -0.00000000000E+00 -0.45593999997E+02  0.45594000000E+02  0.51100000000E-03 0.  1.
    9900012    2    1    2    0    0 -0.38480348274E+02 -0.23291501800E+01  0.12923205215E+02  0.50528789766E+02  0.29999786972E+02 0.  0.
        -12    1    1    2    0    0  0.38480348274E+02  0.23291501800E+01 -0.12923205215E+02  0.40659210234E+02  0.00000000000E+00 0.  1.
         11    1    3    3    0    0 -0.60617758059E+01 -0.39496251332E+01  0.73743387716E+01  0.10330805254E+02  0.51100000000E-03 0. -1.
        -11    1    3    3    0    0 -0.20214467263E+02 -0.43328605861E+01  0.13281093419E+02  0.24572053439E+02  0.51100000000E-03 0.  1.
        -12    1    3    3    0    0 -0.12204105205E+02  0.59533355393E+01 -0.77322269752E+01  0.15625931073E+02  0.00000000000E+00 0.  1.
</event>
<event>
 7    1  0.5005325E-012  0.5052883E+02  0.7816164E-02  0.1300439E+00
        -11   -1    0    0    0    0  0.00000000000E+00  0.00000000000E+00  0.45593999997E+02  0.45594000000E+02  0.51100000000E-03 0. -1.
         11   -1    0    0    0    0 -0.00000000000E+00 -0.00000000000E+00 -0.45593999997E+02  0.45594000000E+02  0.51100000000E-03 0.  1.
    9900012    2    1    2    0    0 -0.33894565978E+02 -0.66340299337E+01 -0.21454973607E+02  0.50528833156E+02  0.29999918860E+02 0.  0.
         12    1    1    2    0    0  0.33894565978E+02  0.66340299337E+01  0.21454973607E+02  0.40659166844E+02  0.00000000000E+00 0. -1.
         11    1    3    3    0    0 -0.34705844434E+02 -0.62210385097E+01 -0.22583634860E+02  0.41871440407E+02  0.51100000000E-03 0.  1.
        -11    1    3    3    0    0  0.36509961839E+01 -0.24845969228E+01 -0.10269076584E+01  0.45340417514E+01  0.51100000000E-03 0. -1.
        -12    1    3    3    0    0 -0.28397177281E+01  0.20716054988E+01  0.21555689109E+01  0.41233509974E+01  0.00000000000E+00 0.  1.
</event>
<event>
 7    1  0.5005325E-012  0.5052884E+02  0.7816164E-02  0.1300439E+00
        -11   -1    0    0    0    0  0.00000000000E+00  0.00000000000E+00  0.45593999997E+02  0.45594000000E+02  0.51100000000E-03 0. -1.
         11   -1    0    0    0    0 -0.00000000000E+00 -0.00000000000E+00 -0.45593999997E+02  0.45594000000E+02  0.51100000000E-03 0.  1.
    9900012    2    1    2    0    0  0.37988761146E+02  0.90299990878E+01 -0.11334908657E+02  0.50528843452E+02  0.29999950155E+02 0.  0.
         12    1    1    2    0    0 -0.37988761146E+02 -0.90299990878E+01  0.11334908657E+02  0.40659156548E+02  0.00000000000E+00 0. -1.
         11    1    3    3    0    0  0.83847454467E+01 -0.37473682021E+01  0.17618652922E+01  0.93515182840E+01  0.51100000000E-03 0. -1.
        -11    1    3    3    0    0  0.26952658807E+02  0.10180423484E+01 -0.95339842956E+01  0.28607325702E+02  0.51100000000E-03 0.  1.
         12    1    3    3    0    0  0.26513568924E+01  0.11759324942E+02 -0.35627896536E+01  0.12569999466E+02  0.00000000000E+00 0. -1.
</event>
<event>
 7    1  0.5005325E-012  0.5052886E+02  0.7816164E-02  0.1300439E+00
        -11   -1    0    0    0    0  0.00000000000E+00  0.00000000000E+00  0.45593999997E+02  0.45594000000E+02  0.51100000000E-03 0. -1.
         11   -1    0    0    0    0 -0.00000000000E+00 -0.00000000000E+00 -0.45593999997E+02  0.45594000000E+02  0.51100000000E-03 0.  1.
    9900012    2    1    2    0    0  0.28218458787E+02  0.12831052822E+02 -0.26310618795E+02  0.50528855958E+02  0.29999988170E+02 0.  0.
         12    1    1    2    0    0 -0.28218458787E+02 -0.12831052822E+02  0.26310618795E+02  0.40659144042E+02  0.00000000000E+00 0. -1.
         11    1    3    3    0    0  0.14355121788E+02  0.43376899489E+01 -0.19401093492E+02  0.24521164421E+02  0.51100000000E-03 0. -1.
        -11    1    3    3    0    0  0.10909543411E+02  0.13550201784E+02 -0.61049611133E+00  0.17406861049E+02  0.51100000000E-03 0.  1.
         12    1    3    3    0    0  0.29537935883E+01 -0.50568389101E+01 -0.62990291919E+01  0.86008304881E+01  0.00000000000E+00 0. -1.
</event>
<event>
 7    1  0.5005325E-012  0.5052886E+02  0.7816164E-02  0.1300439E+00
        -11   -1    0    0    0    0  0.00000000000E+00  0.00000000000E+00  0.45593999997E+02  0.45594000000E+02  0.51100000000E-03 0. -1.
         11   -1    0    0    0    0 -0.00000000000E+00 -0.00000000000E+00 -0.45593999997E+02  0.45594000000E+02  0.51100000000E-03 0.  1.
    9900012    2    1    2    0    0  0.24442970626E+02 -0.75297118860E+01  0.31607121555E+02  0.50528861948E+02  0.30000006379E+02 0.  0.
        -12    1    1    2    0    0 -0.24442970626E+02  0.75297118860E+01 -0.31607121555E+02  0.40659138052E+02  0.00000000000E+00 0.  1.
         11    1    3    3    0    0  0.56491601738E+01  0.70758793060E+01  0.22337375338E+02  0.24102684828E+02  0.51100000000E-03 0. -1.
        -11    1    3    3    0    0  0.52321230457E+01 -0.67466124200E+00  0.25145443081E+01  0.58440750076E+01  0.51100000000E-03 0.  1.
         12    1    3    3    0    0  0.13561687406E+02 -0.13930929950E+02  0.67552019085E+01  0.20582102113E+02  0.00000000000E+00 0. -1.
</event>
<event>
 7    1  0.5005325E-012  0.5052885E+02  0.7816164E-02  0.1300439E+00
        -11   -1    0    0    0    0  0.00000000000E+00  0.00000000000E+00  0.45593999997E+02  0.45594000000E+02  0.51100000000E-03 0. -1.
         11   -1    0    0    0    0 -0.00000000000E+00 -0.00000000000E+00 -0.45593999997E+02  0.45594000000E+02  0.51100000000E-03 0.  1.
    9900012    2    1    2    0    0 -0.80684040535E+01 -0.43301736306E+01  0.39614602768E+02  0.50528852197E+02  0.29999976737E+02 0.  0.
        -12    1    1    2    0    0  0.80684040535E+01  0.43301736306E+01 -0.39614602768E+02  0.40659147803E+02  0.00000000000E+00 0.  1.
         11    1    3    3    0    0  0.98936361096E+01 -0.67589670818E+00  0.13009910238E+02  0.16358442361E+02  0.51100000000E-03 0. -1.
        -11    1    3    3    0    0 -0.70623354754E+01 -0.55035524397E+01  0.59719394179E+01  0.10762422241E+02  0.51100000000E-03 0.  1.
        -12    1    3    3    0    0 -0.10899704688E+02  0.18492755172E+01  0.20632753112E+02  0.23407987594E+02  0.00000000000E+00 0.  1.
</event>
<event>
 7    1  0.5005325E-012  0.5052886E+02  0.7816164E-02  0.1300439E+00
        -11   -1    0    0    0    0  0.00000000000E+00  0.00000000000E+00  0.45593999997E+02  0.45594000000E+02  0.51100000000E-03 0. -1.
         11   -1    0    0    0    0 -0.00000000000E+00 -0.00000000000E+00 -0.45593999997E+02  0.45594000000E+02  0.51100000000E-03 0.  1.
    9900012    2    1    2    0    0  0.33972556145E+02 -0.67897227241E+01  0.21282173266E+02  0.50528858290E+02  0.29999995258E+02 0.  0.
        -12    1    1    2    0    0 -0.33972556145E+02  0.67897227241E+01 -0.21282173266E+02  0.40659141710E+02  0.00000000000E+00 0.  1.
         11    1    3    3    0    0  0.24594135138E+02 -0.14512674328E+01  0.17506612409E+02  0.30223486540E+02  0.51100000000E-03 0. -1.
        -11    1    3    3    0    0  0.14145772968E+02 -0.54802861538E+01  0.31662550214E+01  0.15497148135E+02  0.51100000000E-03 0.  1.
         12    1    3    3    0    0 -0.47673519620E+01  0.14183086239E+00  0.60930583596E+00  0.48082236143E+01  0.00000000000E+00 0. -1.
</event>
<event>
 7    1  0.5005325E-012  0.5052882E+02  0.7816164E-02  0.1300439E+00
        -11   -1    0    0    0    0  0.00000000000E+00  0.00000000000E+00  0.45593999997E+02  0.45594000000E+02  0.51100000000E-03 0.  1.
         11   -1    0    0    0    0 -0.00000000000E+00 -0.00000000000E+00 -0.45593999997E+02  0.45594000000E+02  0.51100000000E-03 0. -1.
    9900012    2    1    2    0    0 -0.10066738039E+02  0.39008465063E+02 -0.54926530085E+01  0.50528821474E+02  0.29999883352E+02 0.  0.
         12    1    1    2    0    0  0.10066738039E+02 -0.39008465063E+02  0.54926530085E+01  0.40659178526E+02  0.00000000000E+00 0. -1.
         11    1    3    3    0    0 -0.13659866878E+01  0.10344020220E+01 -0.72561298106E+01  0.74556909314E+01  0.51100000000E-03 0. -1.
        -11    1    3    3    0    0 -0.95774737863E+01  0.70370383157E+01  0.23651778033E+01  0.12117837212E+02  0.51100000000E-03 0.  1.
         12    1    3    3    0    0  0.87672243503E+00  0.30937024726E+02 -0.60170100118E+00  0.30955293331E+02  0.00000000000E+00 0. -1.
</event>
<event>
 7    1  0.5005325E-012  0.5052887E+02  0.7816164E-02  0.1300439E+00
        -11   -1    0    0    0    0  0.00000000000E+00  0.00000000000E+00  0.45593999997E+02  0.45594000000E+02  0.51100000000E-03 0. -1.
         11   -1    0    0    0    0 -0.00000000000E+00 -0.00000000000E+00 -0.45593999997E+02  0.45594000000E+02  0.51100000000E-03 0.  1.
    9900012    2    1    2    0    0  0.19244241973E+02  0.71079590287E+01  0.35104147152E+02  0.50528867226E+02  0.30000022420E+02 0.  0.
        -12    1    1    2    0    0 -0.19244241973E+02 -0.71079590287E+01 -0.35104147152E+02  0.40659132774E+02  0.00000000000E+00 0.  1.
         11    1    3    3    0    0  0.19498440731E+01 -0.32742052589E+01  0.12877051977E+02  0.13429101975E+02  0.51100000000E-03 0. -1.
        -11    1    3    3    0    0 -0.72672909434E+00 -0.19067952378E+01  0.13423638269E+02  0.13577852109E+02  0.51100000000E-03 0.  1.
         12    1    3    3    0    0  0.18021126995E+02  0.12288959525E+02  0.88034569061E+01  0.23521913142E+02  0.00000000000E+00 0. -1.
</event>
<event>
 7    1  0.5005325E-012  0.5052886E+02  0.7816164E-02  0.1300439E+00
        -11   -1    0    0    0    0  0.00000000000E+00  0.00000000000E+00  0.45593999997E+02  0.45594000000E+02  0.51100000000E-03 0. -1.
         11   -1    0    0    0    0 -0.00000000000E+00 -0.00000000000E+00 -0.45593999997E+02  0.45594000000E+02  0.51100000000E-03 0.  1.
    9900012    2    1    2    0    0  0.95124362289E+01  0.31319235307E+02 -0.24120216869E+02  0.50528858285E+02  0.29999995242E+02 0.  0.
         12    1    1    2    0    0 -0.95124362289E+01 -0.31319235307E+02  0.24120216869E+02  0.40659141715E+02  0.00000000000E+00 0. -1.
         11    1    3    3    0    0  0.92509593156E+01  0.31047368562E+02 -0.92279106686E+01  0.33684917670E+02  0.51100000000E-03 0. -1.
        -11    1    3    3    0    0  0.40511309125E-01 -0.86172123524E+00  0.75962963435E+00  0.11494529551E+01  0.51100000000E-03 0.  1.
        -12    1    3    3    0    0  0.22096560421E+00  0.11335879801E+01 -0.15651935835E+02  0.15694487659E+02  0.00000000000E+00 0.  1.
</event>
<event>
 7    1  0.5005325E-012  0.5052884E+02  0.7816164E-02  0.1300439E+00
        -11   -1    0    0    0    0  0.00000000000E+00  0.00000000000E+00  0.45593999997E+02  0.45594000000E+02  0.51100000000E-03 0. -1.
         11   -1    0    0    0    0 -0.00000000000E+00 -0.00000000000E+00 -0.45593999997E+02  0.45594000000E+02  0.51100000000E-03 0.  1.
    9900012    2    1    2    0    0 -0.41304240086E+01 -0.39081491981E+01 -0.40259572261E+02  0.50528841238E+02  0.29999943426E+02 0.  0.
         12    1    1    2    0    0  0.41304240086E+01  0.39081491981E+01  0.40259572261E+02  0.40659158762E+02  0.00000000000E+00 0. -1.
         11    1    3    3    0    0 -0.10902599718E+02  0.33863383959E+01 -0.11427924120E+02  0.16153371732E+02  0.51100000000E-03 0. -1.
        -11    1    3    3    0    0 -0.29869636053E+01  0.30727472682E+01 -0.47307256013E+01  0.63830629269E+01  0.51100000000E-03 0.  1.
        -12    1    3    3    0    0  0.97591393149E+01 -0.10367234862E+02 -0.24100922539E+02  0.27992406579E+02  0.00000000000E+00 0.  1.
</event>
<event>
 7    1  0.5005325E-012  0.5052886E+02  0.7816164E-02  0.1300439E+00
        -11   -1    0    0    0    0  0.00000000000E+00  0.00000000000E+00  0.45593999997E+02  0.45594000000E+02  0.51100000000E-03 0. -1.
         11   -1    0    0    0    0 -0.00000000000E+00 -0.00000000000E+00 -0.45593999997E+02  0.45594000000E+02  0.51100000000E-03 0.  1.
    9900012    2    1    2    0    0 -0.39649144330E+01 -0.20870080119E+02  0.34668212009E+02  0.50528859397E+02  0.29999998624E+02 0.  0.
        -12    1    1    2    0    0  0.39649144330E+01  0.20870080119E+02 -0.34668212009E+02  0.40659140603E+02  0.00000000000E+00 0.  1.
         11    1    3    3    0    0 -0.94099508024E+01 -0.79043031287E+01  0.11499948145E+02  0.16830745368E+02  0.51100000000E-03 0. -1.
        -11    1    3    3    0    0 -0.12551459971E+01 -0.35599111715E+01 -0.31764887619E+01  0.49334004640E+01  0.51100000000E-03 0.  1.
        -12    1    3    3    0    0  0.67001823665E+01 -0.94058658190E+01  0.26344752626E+02  0.28764713565E+02  0.00000000000E+00 0.  1.
</event>
<event>
 7    1  0.5005325E-012  0.5052887E+02  0.7816164E-02  0.1300439E+00
        -11   -1    0    0    0    0  0.00000000000E+00  0.00000000000E+00  0.45593999997E+02  0.45594000000E+02  0.51100000000E-03 0. -1.
         11   -1    0    0    0    0 -0.00000000000E+00 -0.00000000000E+00 -0.45593999997E+02  0.45594000000E+02  0.51100000000E-03 0.  1.
    9900012    2    1    2    0    0  0.15360143631E+02  0.14684045149E+01 -0.37617477801E+02  0.50528869902E+02  0.30000030555E+02 0.  0.
         12    1    1    2    0    0 -0.15360143631E+02 -0.14684045149E+01  0.37617477801E+02  0.40659130098E+02  0.00000000000E+00 0. -1.
         11    1    3    3    0    0  0.69938444262E+01 -0.46547501320E+00 -0.11998269002E+02  0.13895646302E+02  0.51100000000E-03 0. -1.
        -11    1    3    3    0    0  0.10354980419E+02 -0.37386581357E+01 -0.28062372476E+02  0.30144650161E+02  0.51100000000E-03 0.  1.
         12    1    3    3    0    0 -0.19886812140E+01  0.56725376639E+01  0.24431636766E+01  0.64885734387E+01  0.00000000000E+00 0. -1.
</event>
<event>
 7    1  0.5005325E-012  0.5052886E+02  0.7816164E-02  0.1300439E+00
        -11   -1    0    0    0    0  0.00000000000E+00  0.00000000000E+00  0.45593999997E+02  0.45594000000E+02  0.51100000000E-03 0. -1.
         11   -1    0    0    0    0 -0.00000000000E+00 -0.00000000000E+00 -0.45593999997E+02  0.45594000000E+02  0.51100000000E-03 0.  1.
    9900012    2    1    2    0    0 -0.10834624243E+02  0.16777634535E+02  0.35415925283E+02  0.50528857526E+02  0.29999992936E+02 0.  0.
        -12    1    1    2    0    0  0.10834624243E+02 -0.16777634535E+02 -0.35415925283E+02  0.40659142474E+02  0.00000000000E+00 0.  1.
         11    1    3    3    0    0  0.50235226081E+01  0.81265303021E+00  0.61760120253E+01  0.80024564441E+01  0.51100000000E-03 0. -1.
        -11    1    3    3    0    0 -0.33496617862E+01  0.56213207553E+01 -0.23968919386E+01  0.69688286205E+01  0.51100000000E-03 0.  1.
        -12    1    3    3    0    0 -0.12508485065E+02  0.10343660749E+02  0.31636805196E+02  0.35557572461E+02  0.00000000000E+00 0.  1.
</event>
<event>
 7    1  0.5005325E-012  0.5052887E+02  0.7816164E-02  0.1300439E+00
        -11   -1    0    0    0    0  0.00000000000E+00  0.00000000000E+00  0.45593999997E+02  0.45594000000E+02  0.51100000000E-03 0. -1.
         11   -1    0    0    0    0 -0.00000000000E+00 -0.00000000000E+00 -0.45593999997E+02  0.45594000000E+02  0.51100000000E-03 0.  1.
    9900012    2    1    2    0    0 -0.28799055973E+02  0.60535085191E+01  0.28055917217E+02  0.50528867185E+02  0.30000022297E+02 0.  0.
        -12    1    1    2    0    0  0.28799055973E+02 -0.60535085191E+01 -0.28055917217E+02  0.40659132815E+02  0.00000000000E+00 0.  1.
         11    1    3    3    0    0 -0.10124341273E+02  0.68423317820E+00 -0.11077539121E+01  0.10207721599E+02  0.51100000000E-03 0. -1.
        -11    1    3    3    0    0  0.86641616307E+00  0.53046456077E+01  0.15689964260E+02  0.16585081270E+02  0.51100000000E-03 0.  1.
         12    1    3    3    0    0 -0.19541130863E+02  0.64629733195E-01  0.13473706869E+02  0.23736064316E+02  0.00000000000E+00 0. -1.
</event>
<event>
 7    1  0.5005325E-012  0.5052888E+02  0.7816164E-02  0.1300439E+00
        -11   -1    0    0    0    0  0.00000000000E+00  0.00000000000E+00  0.45593999997E+02  0.45594000000E+02  0.51100000000E-03 0.  1.
         11   -1    0    0    0    0 -0.00000000000E+00 -0.00000000000E+00 -0.45593999997E+02  0.45594000000E+02  0.51100000000E-03 0. -1.
    9900012    2    1    2    0    0 -0.65219144245E+01 -0.36195195974E+02  0.17335978543E+02  0.50528883785E+02  0.30000072752E+02 0.  0.
        -12    1    1    2    0    0  0.65219144245E+01  0.36195195974E+02 -0.17335978543E+02  0.40659116215E+02  0.00000000000E+00 0.  1.
         11    1    3    3    0    0  0.89727422452E+01 -0.98437805932E+01  0.43129034812E+01  0.14000402011E+02  0.51100000000E-03 0. -1.
        -11    1    3    3    0    0 -0.28515942590E+01 -0.14177009739E+02 -0.34592022821E+00  0.14465090944E+02  0.51100000000E-03 0.  1.
        -12    1    3    3    0    0 -0.12643062411E+02 -0.12174405642E+02  0.13368995290E+02  0.22063390830E+02  0.00000000000E+00 0.  1.
</event>
<event>
 7    1  0.5005325E-012  0.5052886E+02  0.7816164E-02  0.1300439E+00
        -11   -1    0    0    0    0  0.00000000000E+00  0.00000000000E+00  0.45593999997E+02  0.45594000000E+02  0.51100000000E-03 0. -1.
         11   -1    0    0    0    0 -0.00000000000E+00 -0.00000000000E+00 -0.45593999997E+02  0.45594000000E+02  0.51100000000E-03 0.  1.
    9900012    2    1    2    0    0  0.19874734769E+02 -0.34443989587E+02  0.84718617245E+01  0.50528856601E+02  0.29999990125E+02 0.  0.
        -12    1    1    2    0    0 -0.19874734769E+02  0.34443989587E+02 -0.84718617245E+01  0.40659143399E+02  0.00000000000E+00 0.  1.
         11    1    3    3    0    0  0.12468244171E+02 -0.21903045526E+02 -0.91345611524E+00  0.25219732718E+02  0.51100000000E-03 0. -1.
        -11    1    3    3    0    0 -0.51513563936E+01 -0.66529975497E+01 -0.25522628228E+00  0.84180751842E+01  0.51100000000E-03 0.  1.
         12    1    3    3    0    0  0.12557846991E+02 -0.58879465118E+01  0.96405441220E+01  0.16891048699E+02  0.00000000000E+00 0. -1.
</event>
<event>
 7    1  0.5005325E-012  0.5052887E+02  0.7816164E-02  0.1300439E+00
        -11   -1    0    0    0    0  0.00000000000E+00  0.00000000000E+00  0.45593999997E+02  0.45594000000E+02  0.51100000000E-03 0. -1.
         11   -1    0    0    0    0 -0.00000000000E+00 -0.00000000000E+00 -0.45593999997E+02  0.45594000000E+02  0.51100000000E-03 0.  1.
    9900012    2    1    2    0    0  0.30065362715E+02  0.38367775930E+01  0.27101990088E+02  0.50528871084E+02  0.30000034146E+02 0.  0.
        -12    1    1    2    0    0 -0.30065362715E+02 -0.38367775930E+01 -0.27101990088E+02  0.40659128916E+02  0.00000000000E+00 0.  1.
         11    1    3    3    0    0  0.56905155640E+01  0.21748256494E+01  0.25250697571E+01  0.65945289088E+01  0.51100000000E-03 0. -1.
        -11    1    3    3    0    0  0.18434214022E+02 -0.11321330990E+02  0.11161691492E+02  0.24342886830E+02  0.51100000000E-03 0.  1.
        -12    1    3    3    0    0  0.59406331289E+01  0.12983282934E+02  0.13415228839E+02  0.19591455344E+02  0.00000000000E+00 0.  1.
</event>
<event>
 7    1  0.5005325E-012  0.5052886E+02  0.7816164E-02  0.1300439E+00
        -11   -1    0    0    0    0  0.00000000000E+00  0.00000000000E+00  0.45593999997E+02  0.45594000000E+02  0.51100000000E-03 0. -1.
         11   -1    0    0    0    0 -0.00000000000E+00 -0.00000000000E+00 -0.45593999997E+02  0.45594000000E+02  0.51100000000E-03 0.  1.
    9900012    2    1    2    0    0  0.96196140708E+01 -0.74785673603E+01 -0.38790457812E+02  0.50528861275E+02  0.30000004331E+02 0.  0.
         12    1    1    2    0    0 -0.96196140708E+01  0.74785673603E+01  0.38790457812E+02  0.40659138725E+02  0.00000000000E+00 0. -1.
         11    1    3    3    0    0  0.55041948041E+01 -0.58367482983E+01 -0.69449356271E+01  0.10611122573E+02  0.51100000000E-03 0. -1.
        -11    1    3    3    0    0 -0.25965173136E+01 -0.11061469646E+02 -0.21863552586E+02  0.24639662028E+02  0.51100000000E-03 0.  1.
         12    1    3    3    0    0  0.67119365803E+01  0.94196505841E+01 -0.99819695986E+01  0.15278076674E+02  0.00000000000E+00 0. -1.
</event>
<event>
 7    1  0.5005325E-012  0.5052886E+02  0.7816164E-02  0.1300439E+00
        -11   -1    0    0    0    0  0.00000000000E+00  0.00000000000E+00  0.45593999997E+02  0.45594000000E+02  0.51100000000E-03 0. -1.
         11   -1    0    0    0    0 -0.00000000000E+00 -0.00000000000E+00 -0.45593999997E+02  0.45594000000E+02  0.51100000000E-03 0.  1.
    9900012    2    1    2    0    0  0.21847827533E+02  0.91626710611E+01  0.33043657302E+02  0.50528863305E+02  0.30000010503E+02 0.  0.
        -12    1    1    2    0    0 -0.21847827533E+02 -0.91626710611E+01 -0.33043657302E+02  0.40659136695E+02  0.00000000000E+00 0.  1.
         11    1    3    3    0    0 -0.35812289591E+00 -0.12371273030E+01  0.95715502774E+01  0.96578108775E+01  0.51100000000E-03 0. -1.
        -11    1    3    3    0    0  0.10359632221E+02 -0.69043484757E+01  0.78000500645E+01  0.14691248718E+02  0.51100000000E-03 0.  1.
         12    1    3    3    0    0  0.11846318207E+02  0.17304146840E+02  0.15672056960E+02  0.26179803710E+02  0.00000000000E+00 0. -1.
</event>
<event>
 7    1  0.5005325E-012  0.5052886E+02  0.7816164E-02  0.1300439E+00
        -11   -1    0    0    0    0  0.00000000000E+00  0.00000000000E+00  0.45593999997E+02  0.45594000000E+02  0.51100000000E-03 0.  1.
         11   -1    0    0    0    0 -0.00000000000E+00 -0.00000000000E+00 -0.45593999997E+02  0.45594000000E+02  0.51100000000E-03 0. -1.
    9900012    2    1    2    0    0  0.24404802570E+02  0.24234787637E+02 -0.21685162093E+02  0.50528861110E+02  0.30000003830E+02 0.  0.
         12    1    1    2    0    0 -0.24404802570E+02 -0.24234787637E+02  0.21685162093E+02  0.40659138890E+02  0.00000000000E+00 0. -1.
         11    1    3    3    0    0  0.14344429109E+02  0.41206673263E+01  0.15498386020E+01  0.15004817414E+02  0.51100000000E-03 0. -1.
        -11    1    3    3    0    0  0.27774183807E+01  0.10058125808E+02 -0.15681643072E+01  0.10551733848E+02  0.51100000000E-03 0.  1.
         12    1    3    3    0    0  0.72829550811E+01  0.10055994502E+02 -0.21666836387E+02  0.24972309849E+02  0.00000000000E+00 0. -1.
</event>
<event>
 7    1  0.5005325E-012  0.5052888E+02  0.7816164E-02  0.1300439E+00
        -11   -1    0    0    0    0  0.00000000000E+00  0.00000000000E+00  0.45593999997E+02  0.45594000000E+02  0.51100000000E-03 0. -1.
         11   -1    0    0    0    0 -0.00000000000E+00 -0.00000000000E+00 -0.45593999997E+02  0.45594000000E+02  0.51100000000E-03 0.  1.
    9900012    2    1    2    0    0 -0.29187728081E+02  0.17581448731E+02 -0.22184073192E+02  0.50528881547E+02  0.30000065950E+02 0.  0.
         12    1    1    2    0    0  0.29187728081E+02 -0.17581448731E+02  0.22184073192E+02  0.40659118453E+02  0.00000000000E+00 0. -1.
         11    1    3    3    0    0 -0.91798403680E+01  0.19288472261E+01  0.55018415900E+01  0.10874749742E+02  0.51100000000E-03 0. -1.
        -11    1    3    3    0    0 -0.11695030881E+02  0.10212321537E+02 -0.76902803477E+01  0.17326444256E+02  0.51100000000E-03 0.  1.
        -12    1    3    3    0    0 -0.83128568319E+01  0.54402799675E+01 -0.19995634435E+02  0.22327687549E+02  0.00000000000E+00 0.  1.
</event>
<event>
 7    1  0.5005325E-012  0.5052888E+02  0.7816164E-02  0.1300439E+00
        -11   -1    0    0    0    0  0.00000000000E+00  0.00000000000E+00  0.45593999997E+02  0.45594000000E+02  0.51100000000E-03 0. -1.
         11   -1    0    0    0    0 -0.00000000000E+00 -0.00000000000E+00 -0.45593999997E+02  0.45594000000E+02  0.51100000000E-03 0.  1.
    9900012    2    1    2    0    0  0.98075270570E+01  0.51615482267E+01 -0.39119493910E+02  0.50528880841E+02  0.30000063803E+02 0.  0.
         12    1    1    2    0    0 -0.98075270570E+01 -0.51615482267E+01  0.39119493910E+02  0.40659119159E+02  0.00000000000E+00 0. -1.
         11    1    3    3    0    0  0.12404788576E+02 -0.54415579570E+01 -0.13254721298E+02  0.18951964795E+02  0.51100000000E-03 0. -1.
        -11    1    3    3    0    0  0.57588569348E+01  0.68539121607E+01 -0.13079729384E+02  0.15849916912E+02  0.51100000000E-03 0.  1.
         12    1    3    3    0    0 -0.83561184539E+01  0.37491940230E+01 -0.12785043227E+02  0.15726999134E+02  0.00000000000E+00 0. -1.
</event>
<event>
 7    1  0.5005325E-012  0.5052886E+02  0.7816164E-02  0.1300439E+00
        -11   -1    0    0    0    0  0.00000000000E+00  0.00000000000E+00  0.45593999997E+02  0.45594000000E+02  0.51100000000E-03 0. -1.
         11   -1    0    0    0    0 -0.00000000000E+00 -0.00000000000E+00 -0.45593999997E+02  0.45594000000E+02  0.51100000000E-03 0.  1.
    9900012    2    1    2    0    0 -0.21743563664E+02 -0.70532443585E+01  0.33624916498E+02  0.50528858023E+02  0.29999994448E+02 0.  0.
        -12    1    1    2    0    0  0.21743563664E+02  0.70532443585E+01 -0.33624916498E+02  0.40659141977E+02  0.00000000000E+00 0.  1.
         11    1    3    3    0    0 -0.13628557336E+02  0.85468066037E+01  0.13510501428E+02  0.21007596895E+02  0.51100000000E-03 0. -1.
        -11    1    3    3    0    0 -0.78461723884E+01 -0.62440716119E+01  0.38211046339E+01  0.10730875655E+02  0.51100000000E-03 0.  1.
         12    1    3    3    0    0 -0.26883393925E+00 -0.93559793502E+01  0.16293310436E+02  0.18790385474E+02  0.00000000000E+00 0. -1.
</event>
<event>
 7    1  0.5005325E-012  0.5052874E+02  0.7816164E-02  0.1300439E+00
        -11   -1    0    0    0    0  0.00000000000E+00  0.00000000000E+00  0.45593999997E+02  0.45594000000E+02  0.51100000000E-03 0. -1.
         11   -1    0    0    0    0 -0.00000000000E+00 -0.00000000000E+00 -0.45593999997E+02  0.45594000000E+02  0.51100000000E-03 0.  1.
    9900012    2    1    2    0    0  0.32444066066E+02 -0.59622126193E+01 -0.23769945971E+02  0.50528736189E+02  0.29999624117E+02 0.  0.
         12    1    1    2    0    0 -0.32444066066E+02  0.59622126193E+01  0.23769945971E+02  0.40659263811E+02  0.00000000000E+00 0. -1.
         11    1    3    3    0    0  0.14631036055E+02  0.41454445573E+01 -0.17005564102E+02  0.22813179026E+02  0.51100000000E-03 0. -1.
        -11    1    3    3    0    0  0.69165564453E+01  0.47766739522E+01 -0.26758403784E+01  0.88213088087E+01  0.51100000000E-03 0.  1.
         12    1    3    3    0    0  0.10896473566E+02 -0.14884331129E+02 -0.40885414910E+01  0.18894248354E+02  0.00000000000E+00 0. -1.
</event>
<event>
 7    1  0.5005325E-012  0.5052885E+02  0.7816164E-02  0.1300439E+00
        -11   -1    0    0    0    0  0.00000000000E+00  0.00000000000E+00  0.45593999997E+02  0.45594000000E+02  0.51100000000E-03 0. -1.
         11   -1    0    0    0    0 -0.00000000000E+00 -0.00000000000E+00 -0.45593999997E+02  0.45594000000E+02  0.51100000000E-03 0.  1.
    9900012    2    1    2    0    0 -0.97461021675E+01  0.65623187106E+01  0.38924486394E+02  0.50528853730E+02  0.29999981399E+02 0.  0.
        -12    1    1    2    0    0  0.97461021675E+01 -0.65623187106E+01 -0.38924486394E+02  0.40659146270E+02  0.00000000000E+00 0.  1.
         11    1    3    3    0    0  0.64963900477E+01 -0.39422821276E+01  0.16645733998E+02  0.18298227581E+02  0.51100000000E-03 0. -1.
        -11    1    3    3    0    0 -0.50499546821E+00  0.22748516328E+01 -0.13337526000E+01  0.26849332642E+01  0.51100000000E-03 0.  1.
         12    1    3    3    0    0 -0.15737496747E+02  0.82297492054E+01  0.23612504996E+02  0.29545692885E+02  0.00000000000E+00 0. -1.
</event>
<event>
 7    1  0.5005325E-012  0.5052886E+02  0.7816164E-02  0.1300439E+00
        -11   -1    0    0    0    0  0.00000000000E+00  0.00000000000E+00  0.45593999997E+02  0.45594000000E+02  0.51100000000E-03 0. -1.
         11   -1    0    0    0    0 -0.00000000000E+00 -0.00000000000E+00 -0.45593999997E+02  0.45594000000E+02  0.51100000000E-03 0.  1.
    9900012    2    1    2    0    0 -0.77113834799E+01 -0.42954533794E-01  0.39921151293E+02  0.50528860796E+02  0.30000002876E+02 0.  0.
        -12    1    1    2    0    0  0.77113834799E+01  0.42954533794E-01 -0.39921151293E+02  0.40659139204E+02  0.00000000000E+00 0.  1.
         11    1    3    3    0    0  0.36937941522E+01 -0.26095328553E+01  0.13452757668E+02  0.14192620128E+02  0.51100000000E-03 0. -1.
        -11    1    3    3    0    0 -0.92703668840E+01 -0.89078971331E+01  0.10751172837E+02  0.16759416789E+02  0.51100000000E-03 0.  1.
         12    1    3    3    0    0 -0.21348107480E+01  0.11474475455E+02  0.15717220788E+02  0.19576823879E+02  0.00000000000E+00 0. -1.
</event>
<event>
 7    1  0.5005325E-012  0.5052883E+02  0.7816164E-02  0.1300439E+00
        -11   -1    0    0    0    0  0.00000000000E+00  0.00000000000E+00  0.45593999997E+02  0.45594000000E+02  0.51100000000E-03 0. -1.
         11   -1    0    0    0    0 -0.00000000000E+00 -0.00000000000E+00 -0.45593999997E+02  0.45594000000E+02  0.51100000000E-03 0.  1.
    9900012    2    1    2    0    0  0.28277161635E+02  0.19739063844E+02  0.21539261623E+02  0.50528827568E+02  0.29999901876E+02 0.  0.
        -12    1    1    2    0    0 -0.28277161635E+02 -0.19739063844E+02 -0.21539261623E+02  0.40659172432E+02  0.00000000000E+00 0.  1.
         11    1    3    3    0    0  0.85693770607E+01  0.35746982219E+01  0.16544641790E+01  0.94313277203E+01  0.51100000000E-03 0. -1.
        -11    1    3    3    0    0  0.16680689127E+02  0.13260178684E+02  0.55350763405E+00  0.21316287187E+02  0.51100000000E-03 0.  1.
         12    1    3    3    0    0  0.30270954475E+01  0.29041869382E+01  0.19331289810E+02  0.19781212661E+02  0.00000000000E+00 0. -1.
</event>
<event>
 7    1  0.5005325E-012  0.5052886E+02  0.7816164E-02  0.1300439E+00
        -11   -1    0    0    0    0  0.00000000000E+00  0.00000000000E+00  0.45593999997E+02  0.45594000000E+02  0.51100000000E-03 0. -1.
         11   -1    0    0    0    0 -0.00000000000E+00 -0.00000000000E+00 -0.45593999997E+02  0.45594000000E+02  0.51100000000E-03 0.  1.
    9900012    2    1    2    0    0 -0.23057717173E+02  0.20404352534E+02 -0.26555039466E+02  0.50528855339E+02  0.29999986288E+02 0.  0.
         12    1    1    2    0    0  0.23057717173E+02 -0.20404352534E+02  0.26555039466E+02  0.40659144661E+02  0.00000000000E+00 0. -1.
         11    1    3    3    0    0 -0.18542276442E+02  0.14366515944E+02 -0.22227363408E+02  0.32315143205E+02  0.51100000000E-03 0. -1.
        -11    1    3    3    0    0  0.82598124164E+00 -0.19184647405E+01 -0.77587777650E+01  0.80350099341E+01  0.51100000000E-03 0.  1.
         12    1    3    3    0    0 -0.53414219719E+01  0.79563013304E+01  0.34311017074E+01  0.10178702200E+02  0.00000000000E+00 0. -1.
</event>
<event>
 7    1  0.5005325E-012  0.5052886E+02  0.7816164E-02  0.1300439E+00
        -11   -1    0    0    0    0  0.00000000000E+00  0.00000000000E+00  0.45593999997E+02  0.45594000000E+02  0.51100000000E-03 0. -1.
         11   -1    0    0    0    0 -0.00000000000E+00 -0.00000000000E+00 -0.45593999997E+02  0.45594000000E+02  0.51100000000E-03 0.  1.
    9900012    2    1    2    0    0  0.49986620197E+01 -0.29770183219E+02 -0.27238121644E+02  0.50528859557E+02  0.29999999109E+02 0.  0.
         12    1    1    2    0    0 -0.49986620197E+01  0.29770183219E+02  0.27238121644E+02  0.40659140443E+02  0.00000000000E+00 0. -1.
         11    1    3    3    0    0 -0.83684304959E+01 -0.67884787770E+01 -0.10349824409E+02  0.14940981849E+02  0.51100000000E-03 0. -1.
        -11    1    3    3    0    0 -0.26244150184E+00 -0.14658210686E+02 -0.43754733331E+01  0.15299568073E+02  0.51100000000E-03 0.  1.
        -12    1    3    3    0    0  0.13629534017E+02 -0.83234937556E+01 -0.12512823902E+02  0.20288309635E+02  0.00000000000E+00 0.  1.
</event>
<event>
 7    1  0.5005325E-012  0.5052886E+02  0.7816164E-02  0.1300439E+00
        -11   -1    0    0    0    0  0.00000000000E+00  0.00000000000E+00  0.45593999997E+02  0.45594000000E+02  0.51100000000E-03 0. -1.
         11   -1    0    0    0    0 -0.00000000000E+00 -0.00000000000E+00 -0.45593999997E+02  0.45594000000E+02  0.51100000000E-03 0.  1.
    9900012    2    1    2    0    0 -0.13184207647E+02 -0.18748111539E+02 -0.33583485624E+02  0.50528861737E+02  0.30000005737E+02 0.  0.
         12    1    1    2    0    0  0.13184207647E+02  0.18748111539E+02  0.33583485624E+02  0.40659138263E+02  0.00000000000E+00 0. -1.
         11    1    3    3    0    0 -0.84267562555E+01 -0.17229361033E+02 -0.11021512814E+02  0.22120914257E+02  0.51100000000E-03 0. -1.
        -11    1    3    3    0    0 -0.10409402288E+02  0.93120182048E+00 -0.10237566405E+02  0.14629783285E+02  0.51100000000E-03 0.  1.
         12    1    3    3    0    0  0.56519508961E+01 -0.24499523268E+01 -0.12324406406E+02  0.13778164195E+02  0.00000000000E+00 0. -1.
</event>
<event>
 7    1  0.5005325E-012  0.5052886E+02  0.7816164E-02  0.1300439E+00
        -11   -1    0    0    0    0  0.00000000000E+00  0.00000000000E+00  0.45593999997E+02  0.45594000000E+02  0.51100000000E-03 0. -1.
         11   -1    0    0    0    0 -0.00000000000E+00 -0.00000000000E+00 -0.45593999997E+02  0.45594000000E+02  0.51100000000E-03 0.  1.
    9900012    2    1    2    0    0  0.28883893415E+02  0.16963621765E+02  0.23046074621E+02  0.50528864278E+02  0.30000013460E+02 0.  0.
        -12    1    1    2    0    0 -0.28883893415E+02 -0.16963621765E+02 -0.23046074621E+02  0.40659135722E+02  0.00000000000E+00 0.  1.
         11    1    3    3    0    0  0.79618470113E+01  0.63283215843E+01  0.10143052481E+02  0.14363849616E+02  0.51100000000E-03 0. -1.
        -11    1    3    3    0    0  0.20464554844E+02  0.60410039128E+01  0.18963257615E+02  0.28546398598E+02  0.51100000000E-03 0.  1.
        -12    1    3    3    0    0  0.45749155946E+00  0.45942962675E+01 -0.60602354752E+01  0.76186160643E+01  0.00000000000E+00 0.  1.
</event>
<event>
 7    1  0.5005325E-012  0.5052885E+02  0.7816164E-02  0.1300439E+00
        -11   -1    0    0    0    0  0.00000000000E+00  0.00000000000E+00  0.45593999997E+02  0.45594000000E+02  0.51100000000E-03 0. -1.
         11   -1    0    0    0    0 -0.00000000000E+00 -0.00000000000E+00 -0.45593999997E+02  0.45594000000E+02  0.51100000000E-03 0.  1.
    9900012    2    1    2    0    0 -0.25468467573E+02  0.22552739053E+02  0.22268749885E+02  0.50528854648E+02  0.29999984188E+02 0.  0.
        -12    1    1    2    0    0  0.25468467573E+02 -0.22552739053E+02 -0.22268749885E+02  0.40659145352E+02  0.00000000000E+00 0.  1.
         11    1    3    3    0    0 -0.38343293829E+01  0.14054851159E+02 -0.50636949711E+00  0.14577288268E+02  0.51100000000E-03 0. -1.
        -11    1    3    3    0    0 -0.12075086533E+02  0.74511275297E+01  0.38159787367E+01  0.14693151814E+02  0.51100000000E-03 0.  1.
         12    1    3    3    0    0 -0.95590516569E+01  0.10467603641E+01  0.18959140646E+02  0.21258414566E+02  0.00000000000E+00 0. -1.
</event>
<event>
 7    1  0.5005325E-012  0.5052885E+02  0.7816164E-02  0.1300439E+00
        -11   -1    0    0    0    0  0.00000000000E+00  0.00000000000E+00  0.45593999997E+02  0.45594000000E+02  0.51100000000E-03 0. -1.
         11   -1    0    0    0    0 -0.00000000000E+00 -0.00000000000E+00 -0.45593999997E+02  0.45594000000E+02  0.51100000000E-03 0.  1.
    9900012    2    1    2    0    0 -0.23153086738E+02  0.23906936106E+02 -0.23357207110E+02  0.50528854123E+02  0.29999982592E+02 0.  0.
         12    1    1    2    0    0  0.23153086738E+02 -0.23906936106E+02  0.23357207110E+02  0.40659145877E+02  0.00000000000E+00 0. -1.
         11    1    3    3    0    0 -0.82521859605E+01  0.63526559599E+01 -0.10896700545E+02  0.15072919223E+02  0.51100000000E-03 0. -1.
        -11    1    3    3    0    0 -0.93958734603E+01 -0.57967685294E+00 -0.13520810013E+02  0.16475156054E+02  0.51100000000E-03 0.  1.
         12    1    3    3    0    0 -0.55050273171E+01  0.18133956999E+02  0.10603034473E+01  0.18980778846E+02  0.00000000000E+00 0. -1.
</event>
<event>
 7    1  0.5005325E-012  0.5052885E+02  0.7816164E-02  0.1300439E+00
        -11   -1    0    0    0    0  0.00000000000E+00  0.00000000000E+00  0.45593999997E+02  0.45594000000E+02  0.51100000000E-03 0. -1.
         11   -1    0    0    0    0 -0.00000000000E+00 -0.00000000000E+00 -0.45593999997E+02  0.45594000000E+02  0.51100000000E-03 0.  1.
    9900012    2    1    2    0    0 -0.16869551750E+02  0.50596562728E+01  0.36646749630E+02  0.50528853966E+02  0.29999982114E+02 0.  0.
        -12    1    1    2    0    0  0.16869551750E+02 -0.50596562728E+01 -0.36646749630E+02  0.40659146034E+02  0.00000000000E+00 0.  1.
         11    1    3    3    0    0 -0.12389104245E+02 -0.44764663329E+01  0.28970939260E+02  0.31825209767E+02  0.51100000000E-03 0. -1.
        -11    1    3    3    0    0 -0.72058003368E+01  0.72930383409E-01  0.31005575351E+01  0.78448922634E+01  0.51100000000E-03 0.  1.
        -12    1    3    3    0    0  0.27253528320E+01  0.94631922222E+01  0.45752528343E+01  0.10858751935E+02  0.00000000000E+00 0.  1.
</event>
<event>
 7    1  0.5005325E-012  0.5052886E+02  0.7816164E-02  0.1300439E+00
        -11   -1    0    0    0    0  0.00000000000E+00  0.00000000000E+00  0.45593999997E+02  0.45594000000E+02  0.51100000000E-03 0. -1.
         11   -1    0    0    0    0 -0.00000000000E+00 -0.00000000000E+00 -0.45593999997E+02  0.45594000000E+02  0.51100000000E-03 0.  1.
    9900012    2    1    2    0    0  0.25998273478E+02  0.20918052180E+02  0.23231238005E+02  0.50528861420E+02  0.30000004772E+02 0.  0.
        -12    1    1    2    0    0 -0.25998273478E+02 -0.20918052180E+02 -0.23231238005E+02  0.40659138580E+02  0.00000000000E+00 0.  1.
         11    1    3    3    0    0  0.11114120459E+02  0.10312248931E+02  0.21601901325E+02  0.26391443552E+02  0.51100000000E-03 0. -1.
        -11    1    3    3    0    0  0.22883163581E+01 -0.30098860058E+01 -0.32192281734E+01  0.49658066632E+01  0.51100000000E-03 0.  1.
        -12    1    3    3    0    0  0.12595836661E+02  0.13615689255E+02  0.48485648527E+01  0.19171611205E+02  0.00000000000E+00 0.  1.
</event>
<event>
 7    1  0.5005325E-012  0.5052886E+02  0.7816164E-02  0.1300439E+00
        -11   -1    0    0    0    0  0.00000000000E+00  0.00000000000E+00  0.45593999997E+02  0.45594000000E+02  0.51100000000E-03 0. -1.
         11   -1    0    0    0    0 -0.00000000000E+00 -0.00000000000E+00 -0.45593999997E+02  0.45594000000E+02  0.51100000000E-03 0.  1.
    9900012    2    1    2    0    0  0.26261477498E+02  0.11571247839E+01  0.31018732949E+02  0.50528856724E+02  0.29999990499E+02 0.  0.
        -12    1    1    2    0    0 -0.26261477498E+02 -0.11571247839E+01 -0.31018732949E+02  0.40659143276E+02  0.00000000000E+00 0.  1.
         11    1    3    3    0    0  0.19454523312E+02  0.23346561753E+01  0.17218184775E+02  0.26084381993E+02  0.51100000000E-03 0. -1.
        -11    1    3    3    0    0  0.47293077595E+01  0.11406599167E+01 -0.40465769053E+01  0.63278939499E+01  0.51100000000E-03 0.  1.
         12    1    3    3    0    0  0.20776464266E+01 -0.23181913081E+01  0.17847125079E+02  0.18116580781E+02  0.00000000000E+00 0. -1.
</event>
<event>
 7    1  0.5005325E-012  0.5052888E+02  0.7816164E-02  0.1300439E+00
        -11   -1    0    0    0    0  0.00000000000E+00  0.00000000000E+00  0.45593999997E+02  0.45594000000E+02  0.51100000000E-03 0.  1.
         11   -1    0    0    0    0 -0.00000000000E+00 -0.00000000000E+00 -0.45593999997E+02  0.45594000000E+02  0.51100000000E-03 0. -1.
    9900012    2    1    2    0    0 -0.32720302118E+02  0.24144970204E+01 -0.24014906167E+02  0.50528884358E+02  0.30000074496E+02 0.  0.
         12    1    1    2    0    0  0.32720302118E+02 -0.24144970204E+01  0.24014906167E+02  0.40659115642E+02  0.00000000000E+00 0. -1.
         11    1    3    3    0    0 -0.50209540761E+01 -0.67988204340E+01 -0.18061054928E+02  0.19940803507E+02  0.51100000000E-03 0. -1.
        -11    1    3    3    0    0 -0.43683339966E+01  0.53150584036E-01  0.11848865645E+01  0.45264912816E+01  0.51100000000E-03 0.  1.
        -12    1    3    3    0    0 -0.23331014045E+02  0.91601668703E+01 -0.71387378030E+01  0.26061589569E+02  0.00000000000E+00 0.  1.
</event>
<event>
 7    1  0.5005325E-012  0.5052889E+02  0.7816164E-02  0.1300439E+00
        -11   -1    0    0    0    0  0.00000000000E+00  0.00000000000E+00  0.45593999997E+02  0.45594000000E+02  0.51100000000E-03 0. -1.
         11   -1    0    0    0    0 -0.00000000000E+00 -0.00000000000E+00 -0.45593999997E+02  0.45594000000E+02  0.51100000000E-03 0.  1.
    9900012    2    1    2    0    0  0.23065309196E-01  0.44595839597E+01  0.40413793382E+02  0.50528891345E+02  0.30000095732E+02 0.  0.
        -12    1    1    2    0    0 -0.23065309196E-01 -0.44595839597E+01 -0.40413793382E+02  0.40659108655E+02  0.00000000000E+00 0.  1.
         11    1    3    3    0    0  0.39397985495E+01  0.49652971093E+00  0.23102729491E+02  0.23441515834E+02  0.51100000000E-03 0. -1.
        -11    1    3    3    0    0 -0.67489637338E+01  0.11127028881E+02  0.12233099071E+02  0.17860794953E+02  0.51100000000E-03 0.  1.
        -12    1    3    3    0    0  0.28322304934E+01 -0.71639746322E+01  0.50779648194E+01  0.92265805587E+01  0.00000000000E+00 0.  1.
</event>
<event>
 7    1  0.5005325E-012  0.5052886E+02  0.7816164E-02  0.1300439E+00
        -11   -1    0    0    0    0  0.00000000000E+00  0.00000000000E+00  0.45593999997E+02  0.45594000000E+02  0.51100000000E-03 0. -1.
         11   -1    0    0    0    0 -0.00000000000E+00 -0.00000000000E+00 -0.45593999997E+02  0.45594000000E+02  0.51100000000E-03 0.  1.
    9900012    2    1    2    0    0 -0.20131372128E+02  0.11832601331E+02  0.33284883101E+02  0.50528855382E+02  0.29999986420E+02 0.  0.
        -12    1    1    2    0    0  0.20131372128E+02 -0.11832601331E+02 -0.33284883101E+02  0.40659144618E+02  0.00000000000E+00 0.  1.
         11    1    3    3    0    0 -0.23152633623E+01 -0.13947195940E+01  0.71329210914E+01  0.76278601678E+01  0.51100000000E-03 0. -1.
        -11    1    3    3    0    0 -0.11827198553E+02 -0.62240477445E+01  0.13152631661E+02  0.18751349706E+02  0.51100000000E-03 0.  1.
         12    1    3    3    0    0 -0.59889102135E+01  0.19451368670E+02  0.12999330348E+02  0.24149645508E+02  0.00000000000E+00 0. -1.
</event>
<event>
 7    1  0.5005325E-012  0.5052887E+02  0.7816164E-02  0.1300439E+00
        -11   -1    0    0    0    0  0.00000000000E+00  0.00000000000E+00  0.45593999997E+02  0.45594000000E+02  0.51100000000E-03 0. -1.
         11   -1    0    0    0    0 -0.00000000000E+00 -0.00000000000E+00 -0.45593999997E+02  0.45594000000E+02  0.51100000000E-03 0.  1.
    9900012    2    1    2    0    0  0.25745491733E+02 -0.24652610733E+01  0.31372875794E+02  0.50528865820E+02  0.30000018145E+02 0.  0.
        -12    1    1    2    0    0 -0.25745491733E+02  0.24652610733E+01 -0.31372875794E+02  0.40659134180E+02  0.00000000000E+00 0.  1.
         11    1    3    3    0    0  0.19829778280E+02  0.11488703859E+01  0.96626028063E+01  0.22088592148E+02  0.51100000000E-03 0. -1.
        -11    1    3    3    0    0 -0.12670647318E+01  0.60760625194E+01  0.59912770403E+01  0.86266673524E+01  0.51100000000E-03 0.  1.
         12    1    3    3    0    0  0.71827781841E+01 -0.96901939786E+01  0.15718995947E+02  0.19813606319E+02  0.00000000000E+00 0. -1.
</event>
<event>
 7    1  0.5005325E-012  0.5052883E+02  0.7816164E-02  0.1300439E+00
        -11   -1    0    0    0    0  0.00000000000E+00  0.00000000000E+00  0.45593999997E+02  0.45594000000E+02  0.51100000000E-03 0. -1.
         11   -1    0    0    0    0 -0.00000000000E+00 -0.00000000000E+00 -0.45593999997E+02  0.45594000000E+02  0.51100000000E-03 0.  1.
    9900012    2    1    2    0    0 -0.56784092782E+01  0.37543732359E+02  0.14539327459E+02  0.50528828657E+02  0.29999905184E+02 0.  0.
        -12    1    1    2    0    0  0.56784092782E+01 -0.37543732359E+02 -0.14539327459E+02  0.40659171343E+02  0.00000000000E+00 0.  1.
         11    1    3    3    0    0  0.84436851233E+00  0.26218299329E+02 -0.20770054595E+01  0.26313991142E+02  0.51100000000E-03 0. -1.
        -11    1    3    3    0    0 -0.31889454869E+01  0.37740257314E-01 -0.71167522545E+00  0.32676106764E+01  0.51100000000E-03 0.  1.
        -12    1    3    3    0    0 -0.33338323036E+01  0.11287692773E+02  0.17328008144E+02  0.20947226838E+02  0.00000000000E+00 0.  1.
</event>
<event>
 7    1  0.5005325E-012  0.5052886E+02  0.7816164E-02  0.1300439E+00
        -11   -1    0    0    0    0  0.00000000000E+00  0.00000000000E+00  0.45593999997E+02  0.45594000000E+02  0.51100000000E-03 0. -1.
         11   -1    0    0    0    0 -0.00000000000E+00 -0.00000000000E+00 -0.45593999997E+02  0.45594000000E+02  0.51100000000E-03 0.  1.
    9900012    2    1    2    0    0 -0.16609089610E+00  0.32988364371E+02  0.23767753822E+02  0.50528857218E+02  0.29999992000E+02 0.  0.
        -12    1    1    2    0    0  0.16609089610E+00 -0.32988364371E+02 -0.23767753822E+02  0.40659142782E+02  0.00000000000E+00 0.  1.
         11    1    3    3    0    0  0.75673540231E+01  0.14438186111E+02  0.13456350732E+02  0.21137630907E+02  0.51100000000E-03 0. -1.
        -11    1    3    3    0    0 -0.12478103428E+01  0.18904062414E+02  0.12312531073E+02  0.22594668133E+02  0.51100000000E-03 0.  1.
        -12    1    3    3    0    0 -0.64856345765E+01 -0.35388415420E+00 -0.20011279825E+01  0.67965581772E+01  0.00000000000E+00 0.  1.
</event>
<event>
 7    1  0.5005325E-012  0.5052886E+02  0.7816164E-02  0.1300439E+00
        -11   -1    0    0    0    0  0.00000000000E+00  0.00000000000E+00  0.45593999997E+02  0.45594000000E+02  0.51100000000E-03 0. -1.
         11   -1    0    0    0    0 -0.00000000000E+00 -0.00000000000E+00 -0.45593999997E+02  0.45594000000E+02  0.51100000000E-03 0.  1.
    9900012    2    1    2    0    0  0.15789510128E+02 -0.63560894675E+01  0.36925017739E+02  0.50528862792E+02  0.30000008944E+02 0.  0.
        -12    1    1    2    0    0 -0.15789510128E+02  0.63560894675E+01 -0.36925017739E+02  0.40659137208E+02  0.00000000000E+00 0.  1.
         11    1    3    3    0    0 -0.59296477789E+01  0.60405065917E+01  0.84860659719E+01  0.11985898323E+02  0.51100000000E-03 0.  1.
        -11    1    3    3    0    0  0.10347133036E+02 -0.47495466286E+01  0.79216082803E+01  0.13869867817E+02  0.51100000000E-03 0. -1.
        -12    1    3    3    0    0  0.11372024871E+02 -0.76470494307E+01  0.20517343487E+02  0.24673096653E+02  0.00000000000E+00 0.  1.
</event>
<event>
 7    1  0.5005325E-012  0.5052887E+02  0.7816164E-02  0.1300439E+00
        -11   -1    0    0    0    0  0.00000000000E+00  0.00000000000E+00  0.45593999997E+02  0.45594000000E+02  0.51100000000E-03 0. -1.
         11   -1    0    0    0    0 -0.00000000000E+00 -0.00000000000E+00 -0.45593999997E+02  0.45594000000E+02  0.51100000000E-03 0.  1.
    9900012    2    1    2    0    0 -0.24337966829E+02  0.29654715316E+02 -0.13469437420E+02  0.50528874158E+02  0.30000043489E+02 0.  0.
        -12    1    1    2    0    0  0.24337966829E+02 -0.29654715316E+02  0.13469437420E+02  0.40659125842E+02  0.00000000000E+00 0.  1.
         11    1    3    3    0    0 -0.79426967391E+01  0.35531604476E+01  0.65332391397E+01  0.10880928020E+02  0.51100000000E-03 0. -1.
        -11    1    3    3    0    0  0.14068152266E+01  0.89578899077E+00 -0.51263540668E+01  0.53908323362E+01  0.51100000000E-03 0.  1.
        -12    1    3    3    0    0 -0.17802085316E+02  0.25205765878E+02 -0.14876322492E+02  0.34257113802E+02  0.00000000000E+00 0.  1.
</event>
<event>
 7    1  0.5005325E-012  0.5052886E+02  0.7816164E-02  0.1300439E+00
        -11   -1    0    0    0    0  0.00000000000E+00  0.00000000000E+00  0.45593999997E+02  0.45594000000E+02  0.51100000000E-03 0. -1.
         11   -1    0    0    0    0 -0.00000000000E+00 -0.00000000000E+00 -0.45593999997E+02  0.45594000000E+02  0.51100000000E-03 0.  1.
    9900012    2    1    2    0    0 -0.21300918235E+02 -0.74925798770E+01 -0.33812687860E+02  0.50528859192E+02  0.29999998001E+02 0.  0.
         12    1    1    2    0    0  0.21300918235E+02  0.74925798770E+01  0.33812687860E+02  0.40659140808E+02  0.00000000000E+00 0. -1.
         11    1    3    3    0    0 -0.10297569055E+02 -0.12730051027E+02 -0.78821301929E+01  0.18172014314E+02  0.51100000000E-03 0. -1.
        -11    1    3    3    0    0 -0.63437385211E+01 -0.43964796229E+01 -0.15968823330E+02  0.17736272728E+02  0.51100000000E-03 0.  1.
         12    1    3    3    0    0 -0.46596106592E+01  0.96339507727E+01 -0.99617343374E+01  0.14620572150E+02  0.00000000000E+00 0. -1.
</event>
<event>
 7    1  0.5005325E-012  0.5052886E+02  0.7816164E-02  0.1300439E+00
        -11   -1    0    0    0    0  0.00000000000E+00  0.00000000000E+00  0.45593999997E+02  0.45594000000E+02  0.51100000000E-03 0. -1.
         11   -1    0    0    0    0 -0.00000000000E+00 -0.00000000000E+00 -0.45593999997E+02  0.45594000000E+02  0.51100000000E-03 0.  1.
    9900012    2    1    2    0    0 -0.82026534649E+01 -0.17718011439E+02 -0.35664465293E+02  0.50528861570E+02  0.30000005227E+02 0.  0.
         12    1    1    2    0    0  0.82026534649E+01  0.17718011439E+02  0.35664465293E+02  0.40659138430E+02  0.00000000000E+00 0. -1.
         11    1    3    3    0    0 -0.39150959416E+01 -0.87160961754E+01 -0.16810753200E+02  0.19336487069E+02  0.51100000000E-03 0. -1.
        -11    1    3    3    0    0  0.71167288310E+00 -0.15370487707E+02 -0.71647518745E+01  0.16973274296E+02  0.51100000000E-03 0.  1.
         12    1    3    3    0    0 -0.49992304065E+01  0.63685724432E+01 -0.11688960219E+02  0.14219100204E+02  0.00000000000E+00 0. -1.
</event>
<event>
 7    1  0.5005325E-012  0.5052887E+02  0.7816164E-02  0.1300439E+00
        -11   -1    0    0    0    0  0.00000000000E+00  0.00000000000E+00  0.45593999997E+02  0.45594000000E+02  0.51100000000E-03 0. -1.
         11   -1    0    0    0    0 -0.00000000000E+00 -0.00000000000E+00 -0.45593999997E+02  0.45594000000E+02  0.51100000000E-03 0.  1.
    9900012    2    1    2    0    0  0.79851964753E+01 -0.31863525498E+02  0.23960740752E+02  0.50528871661E+02  0.30000035901E+02 0.  0.
        -12    1    1    2    0    0 -0.79851964753E+01  0.31863525498E+02 -0.23960740752E+02  0.40659128339E+02  0.00000000000E+00 0.  1.
         11    1    3    3    0    0 -0.23679805281E+01 -0.20031938979E+02  0.21225691930E+02  0.29281665068E+02  0.51100000000E-03 0. -1.
        -11    1    3    3    0    0 -0.31539548581E+01 -0.18675595149E+01 -0.14612675780E+01  0.39459489333E+01  0.51100000000E-03 0.  1.
        -12    1    3    3    0    0  0.13507131861E+02 -0.99640270039E+01  0.41963164008E+01  0.17301257659E+02  0.00000000000E+00 0.  1.
</event>
<event>
 7    1  0.5005325E-012  0.5052886E+02  0.7816164E-02  0.1300439E+00
        -11   -1    0    0    0    0  0.00000000000E+00  0.00000000000E+00  0.45593999997E+02  0.45594000000E+02  0.51100000000E-03 0.  1.
         11   -1    0    0    0    0 -0.00000000000E+00 -0.00000000000E+00 -0.45593999997E+02  0.45594000000E+02  0.51100000000E-03 0. -1.
    9900012    2    1    2    0    0 -0.18437428491E+02 -0.34869238253E+02 -0.98672809789E+01  0.50528858598E+02  0.29999996194E+02 0.  0.
        -12    1    1    2    0    0  0.18437428491E+02  0.34869238253E+02  0.98672809789E+01  0.40659141402E+02  0.00000000000E+00 0.  1.
         11    1    3    3    0    0 -0.13827890858E+02 -0.12723298701E+02 -0.71022941438E+01  0.20088192496E+02  0.51100000000E-03 0. -1.
        -11    1    3    3    0    0 -0.94658317380E+01 -0.41259019267E+01  0.32615958181E+01  0.10828806247E+02  0.51100000000E-03 0.  1.
         12    1    3    3    0    0  0.48562941055E+01 -0.18020037625E+02 -0.60265826531E+01  0.19611859854E+02  0.00000000000E+00 0. -1.
</event>
<event>
 7    1  0.5005325E-012  0.5052886E+02  0.7816164E-02  0.1300439E+00
        -11   -1    0    0    0    0  0.00000000000E+00  0.00000000000E+00  0.45593999997E+02  0.45594000000E+02  0.51100000000E-03 0. -1.
         11   -1    0    0    0    0 -0.00000000000E+00 -0.00000000000E+00 -0.45593999997E+02  0.45594000000E+02  0.51100000000E-03 0.  1.
    9900012    2    1    2    0    0  0.12280809722E+02  0.75003455211E+01 -0.38027522478E+02  0.50528856672E+02  0.29999990340E+02 0.  0.
         12    1    1    2    0    0 -0.12280809722E+02 -0.75003455211E+01  0.38027522478E+02  0.40659143328E+02  0.00000000000E+00 0. -1.
         11    1    3    3    0    0  0.17488805634E+02  0.43836235381E+01 -0.19742003378E+02  0.26736139876E+02  0.51100000000E-03 0. -1.
        -11    1    3    3    0    0 -0.36580598511E+01 -0.54096978939E+01 -0.71711313822E+01  0.96990390626E+01  0.51100000000E-03 0.  1.
        -12    1    3    3    0    0 -0.15499360607E+01  0.85264198769E+01 -0.11114387718E+02  0.14093677733E+02  0.00000000000E+00 0.  1.
</event>
<event>
 7    1  0.5005325E-012  0.5052886E+02  0.7816164E-02  0.1300439E+00
        -11   -1    0    0    0    0  0.00000000000E+00  0.00000000000E+00  0.45593999997E+02  0.45594000000E+02  0.51100000000E-03 0. -1.
         11   -1    0    0    0    0 -0.00000000000E+00 -0.00000000000E+00 -0.45593999997E+02  0.45594000000E+02  0.51100000000E-03 0.  1.
    9900012    2    1    2    0    0  0.30117262118E+02  0.22045610002E+02  0.16127853982E+02  0.50528855003E+02  0.29999985267E+02 0.  0.
        -12    1    1    2    0    0 -0.30117262118E+02 -0.22045610002E+02 -0.16127853982E+02  0.40659144997E+02  0.00000000000E+00 0.  1.
         11    1    3    3    0    0  0.23698327494E+02  0.60335203098E+01  0.91605111791E+00  0.24471478158E+02  0.51100000000E-03 0. -1.
        -11    1    3    3    0    0  0.10092533106E+02  0.11940907404E+02  0.10564374903E+02  0.18869300768E+02  0.51100000000E-03 0.  1.
        -12    1    3    3    0    0 -0.36735984821E+01  0.40711822877E+01  0.46474279611E+01  0.71880760765E+01  0.00000000000E+00 0.  1.
</event>
<event>
 7    1  0.5005325E-012  0.5052886E+02  0.7816164E-02  0.1300439E+00
        -11   -1    0    0    0    0  0.00000000000E+00  0.00000000000E+00  0.45593999997E+02  0.45594000000E+02  0.51100000000E-03 0. -1.
         11   -1    0    0    0    0 -0.00000000000E+00 -0.00000000000E+00 -0.45593999997E+02  0.45594000000E+02  0.51100000000E-03 0.  1.
    9900012    2    1    2    0    0  0.17446089761E+02  0.18860852573E+02  0.31512981388E+02  0.50528858301E+02  0.29999995293E+02 0.  0.
        -12    1    1    2    0    0 -0.17446089761E+02 -0.18860852573E+02 -0.31512981388E+02  0.40659141699E+02  0.00000000000E+00 0.  1.
         11    1    3    3    0    0  0.35784686796E+01  0.17090960125E+02  0.20520898226E+02  0.26944639918E+02  0.51100000000E-03 0. -1.
        -11    1    3    3    0    0  0.42607465587E+01  0.26651204721E+01 -0.35353938186E+01  0.61445779417E+01  0.51100000000E-03 0.  1.
        -12    1    3    3    0    0  0.96068745224E+01 -0.89522802395E+00  0.14527476981E+02  0.17439640441E+02  0.00000000000E+00 0.  1.
</event>
<event>
 7    1  0.5005325E-012  0.5052883E+02  0.7816164E-02  0.1300439E+00
        -11   -1    0    0    0    0  0.00000000000E+00  0.00000000000E+00  0.45593999997E+02  0.45594000000E+02  0.51100000000E-03 0. -1.
         11   -1    0    0    0    0 -0.00000000000E+00 -0.00000000000E+00 -0.45593999997E+02  0.45594000000E+02  0.51100000000E-03 0.  1.
    9900012    2    1    2    0    0 -0.14707467578E+02 -0.37904026340E+02 -0.37906330418E+00  0.50528825091E+02  0.29999894345E+02 0.  0.
         12    1    1    2    0    0  0.14707467578E+02  0.37904026340E+02  0.37906330418E+00  0.40659174909E+02  0.00000000000E+00 0. -1.
         11    1    3    3    0    0 -0.10804208236E+02 -0.48218927698E+01  0.83695212513E+01  0.14492427393E+02  0.51100000000E-03 0. -1.
        -11    1    3    3    0    0 -0.38062364821E+01 -0.16100843009E+02 -0.94258996998E+01  0.19041327873E+02  0.51100000000E-03 0.  1.
        -12    1    3    3    0    0 -0.97022859702E-01 -0.16981290561E+02  0.67731514425E+00  0.16995069825E+02  0.00000000000E+00 0.  1.
</event>
<event>
 7    1  0.5005325E-012  0.5052886E+02  0.7816164E-02  0.1300439E+00
        -11   -1    0    0    0    0  0.00000000000E+00  0.00000000000E+00  0.45593999997E+02  0.45594000000E+02  0.51100000000E-03 0. -1.
         11   -1    0    0    0    0 -0.00000000000E+00 -0.00000000000E+00 -0.45593999997E+02  0.45594000000E+02  0.51100000000E-03 0.  1.
    9900012    2    1    2    0    0 -0.38681202431E+01 -0.29172546014E+02 -0.28056471065E+02  0.50528863711E+02  0.30000011735E+02 0.  0.
         12    1    1    2    0    0  0.38681202431E+01  0.29172546014E+02  0.28056471065E+02  0.40659136289E+02  0.00000000000E+00 0. -1.
         11    1    3    3    0    0 -0.11216879635E+02 -0.15979235112E+02 -0.22086230171E+02  0.29478058059E+02  0.51100000000E-03 0.  1.
        -11    1    3    3    0    0  0.26015282693E+01 -0.62467369264E+01 -0.97165952818E+01  0.11840688143E+02  0.51100000000E-03 0. -1.
         12    1    3    3    0    0  0.47472311226E+01 -0.69465739758E+01  0.37463543874E+01  0.92101175090E+01  0.00000000000E+00 0. -1.
</event>
<event>
 7    1  0.5005325E-012  0.5052886E+02  0.7816164E-02  0.1300439E+00
        -11   -1    0    0    0    0  0.00000000000E+00  0.00000000000E+00  0.45593999997E+02  0.45594000000E+02  0.51100000000E-03 0. -1.
         11   -1    0    0    0    0 -0.00000000000E+00 -0.00000000000E+00 -0.45593999997E+02  0.45594000000E+02  0.51100000000E-03 0.  1.
    9900012    2    1    2    0    0  0.77125168589E+01 -0.11986735367E+01 -0.39902953442E+02  0.50528862922E+02  0.30000009338E+02 0.  0.
         12    1    1    2    0    0 -0.77125168589E+01  0.11986735367E+01  0.39902953442E+02  0.40659137078E+02  0.00000000000E+00 0. -1.
         11    1    3    3    0    0  0.36958290230E+01  0.19702062097E+01  0.11083353261E+01  0.43323518015E+01  0.51100000000E-03 0. -1.
        -11    1    3    3    0    0  0.98582846612E+01  0.50711765532E+01 -0.23427249618E+02  0.25917921078E+02  0.51100000000E-03 0.  1.
        -12    1    3    3    0    0 -0.58415968253E+01 -0.82400562996E+01 -0.17584039150E+02  0.20278590042E+02  0.00000000000E+00 0.  1.
</event>
<event>
 7    1  0.5005325E-012  0.5052886E+02  0.7816164E-02  0.1300439E+00
        -11   -1    0    0    0    0  0.00000000000E+00  0.00000000000E+00  0.45593999997E+02  0.45594000000E+02  0.51100000000E-03 0. -1.
         11   -1    0    0    0    0 -0.00000000000E+00 -0.00000000000E+00 -0.45593999997E+02  0.45594000000E+02  0.51100000000E-03 0.  1.
    9900012    2    1    2    0    0  0.12229353233E+02  0.40571356465E+01 -0.38563556900E+02  0.50528863869E+02  0.30000012217E+02 0.  0.
         12    1    1    2    0    0 -0.12229353233E+02 -0.40571356465E+01  0.38563556900E+02  0.40659136131E+02  0.00000000000E+00 0. -1.
         11    1    3    3    0    0 -0.33578841770E+01 -0.90946476819E+01 -0.14717190810E+02  0.17623385265E+02  0.51100000000E-03 0. -1.
        -11    1    3    3    0    0  0.21419010316E+01  0.68119451599E+01 -0.11709291636E+02  0.13714876878E+02  0.51100000000E-03 0.  1.
        -12    1    3    3    0    0  0.13445336378E+02  0.63398381685E+01 -0.12137074453E+02  0.19190601726E+02  0.00000000000E+00 0.  1.
</event>
<event>
 7    1  0.5005325E-012  0.5052886E+02  0.7816164E-02  0.1300439E+00
        -11   -1    0    0    0    0  0.00000000000E+00  0.00000000000E+00  0.45593999997E+02  0.45594000000E+02  0.51100000000E-03 0. -1.
         11   -1    0    0    0    0 -0.00000000000E+00 -0.00000000000E+00 -0.45593999997E+02  0.45594000000E+02  0.51100000000E-03 0.  1.
    9900012    2    1    2    0    0 -0.26883640765E+01  0.13492565355E+02 -0.38260800502E+02  0.50528862327E+02  0.30000007528E+02 0.  0.
         12    1    1    2    0    0  0.26883640765E+01 -0.13492565355E+02  0.38260800502E+02  0.40659137673E+02  0.00000000000E+00 0. -1.
         11    1    3    3    0    0 -0.10731399083E+02  0.11735127384E+02 -0.11021714541E+02  0.19348238490E+02  0.51100000000E-03 0. -1.
        -11    1    3    3    0    0  0.21888600117E+00 -0.43444334669E+01 -0.39898183848E+01  0.59025980919E+01  0.51100000000E-03 0.  1.
        -12    1    3    3    0    0  0.78241490049E+01  0.61018714377E+01 -0.23249267577E+02  0.25278025745E+02  0.00000000000E+00 0.  1.
</event>
<event>
 7    1  0.5005325E-012  0.5052884E+02  0.7816164E-02  0.1300439E+00
        -11   -1    0    0    0    0  0.00000000000E+00  0.00000000000E+00  0.45593999997E+02  0.45594000000E+02  0.51100000000E-03 0. -1.
         11   -1    0    0    0    0 -0.00000000000E+00 -0.00000000000E+00 -0.45593999997E+02  0.45594000000E+02  0.51100000000E-03 0.  1.
    9900012    2    1    2    0    0  0.13837881333E+02 -0.27148938283E+02 -0.26918685227E+02  0.50528838375E+02  0.29999934725E+02 0.  0.
         12    1    1    2    0    0 -0.13837881333E+02  0.27148938283E+02  0.26918685227E+02  0.40659161625E+02  0.00000000000E+00 0. -1.
         11    1    3    3    0    0  0.34383205284E+01  0.25035760200E+01 -0.66607083255E+01  0.79028461077E+01  0.51100000000E-03 0. -1.
        -11    1    3    3    0    0  0.45637464847E+01  0.16664457417E+01 -0.60068092135E+01  0.77257090662E+01  0.51100000000E-03 0.  1.
        -12    1    3    3    0    0  0.58358143197E+01 -0.31318960045E+02 -0.14251167688E+02  0.34900283201E+02  0.00000000000E+00 0.  1.
</event>
<event>
 7    1  0.5005325E-012  0.5052886E+02  0.7816164E-02  0.1300439E+00
        -11   -1    0    0    0    0  0.00000000000E+00  0.00000000000E+00  0.45593999997E+02  0.45594000000E+02  0.51100000000E-03 0. -1.
         11   -1    0    0    0    0 -0.00000000000E+00 -0.00000000000E+00 -0.45593999997E+02  0.45594000000E+02  0.51100000000E-03 0.  1.
    9900012    2    1    2    0    0 -0.87850236482E+01  0.31541687754E+00  0.39697477293E+02  0.50528857956E+02  0.29999994243E+02 0.  0.
        -12    1    1    2    0    0  0.87850236482E+01 -0.31541687754E+00 -0.39697477293E+02  0.40659142044E+02  0.00000000000E+00 0.  1.
         11    1    3    3    0    0 -0.54697679816E+01  0.39745399936E+01  0.79700355251E+01  0.10451640850E+02  0.51100000000E-03 0. -1.
        -11    1    3    3    0    0  0.96974507971E+00  0.44761518908E+01 -0.20883550043E+01  0.50336436261E+01  0.51100000000E-03 0.  1.
         12    1    3    3    0    0 -0.42850007463E+01 -0.81352750069E+01  0.33815796773E+02  0.35043573479E+02  0.00000000000E+00 0. -1.
</event>
<event>
 7    1  0.5005325E-012  0.5052887E+02  0.7816164E-02  0.1300439E+00
        -11   -1    0    0    0    0  0.00000000000E+00  0.00000000000E+00  0.45593999997E+02  0.45594000000E+02  0.51100000000E-03 0. -1.
         11   -1    0    0    0    0 -0.00000000000E+00 -0.00000000000E+00 -0.45593999997E+02  0.45594000000E+02  0.51100000000E-03 0.  1.
    9900012    2    1    2    0    0 -0.23169126645E+02 -0.10351246795E+02  0.31768031095E+02  0.50528873849E+02  0.30000042553E+02 0.  0.
        -12    1    1    2    0    0  0.23169126645E+02  0.10351246795E+02 -0.31768031095E+02  0.40659126151E+02  0.00000000000E+00 0.  1.
         11    1    3    3    0    0 -0.48429882502E+01  0.36403790705E+00  0.99373523224E+00  0.49572743279E+01  0.51100000000E-03 0. -1.
        -11    1    3    3    0    0 -0.24891184001E+01  0.58236301665E+01  0.18577257355E+02  0.19627146248E+02  0.51100000000E-03 0.  1.
         12    1    3    3    0    0 -0.15837019994E+02 -0.16538914868E+02  0.12197038508E+02  0.25944453274E+02  0.00000000000E+00 0. -1.
</event>
<event>
 7    1  0.5005325E-012  0.5052886E+02  0.7816164E-02  0.1300439E+00
        -11   -1    0    0    0    0  0.00000000000E+00  0.00000000000E+00  0.45593999997E+02  0.45594000000E+02  0.51100000000E-03 0. -1.
         11   -1    0    0    0    0 -0.00000000000E+00 -0.00000000000E+00 -0.45593999997E+02  0.45594000000E+02  0.51100000000E-03 0.  1.
    9900012    2    1    2    0    0  0.78916266311E+01  0.88916690828E+01 -0.38882208561E+02  0.50528859668E+02  0.29999999446E+02 0.  0.
         12    1    1    2    0    0 -0.78916266311E+01 -0.88916690828E+01  0.38882208561E+02  0.40659140332E+02  0.00000000000E+00 0. -1.
         11    1    3    3    0    0  0.22374733799E+01  0.30009746806E+01 -0.15215751821E+02  0.15669436490E+02  0.51100000000E-03 0. -1.
        -11    1    3    3    0    0 -0.68516763739E+01  0.21411804115E+01 -0.20073198896E+02  0.21318148064E+02  0.51100000000E-03 0.  1.
         12    1    3    3    0    0  0.12505829625E+02  0.37495139907E+01 -0.35932578437E+01  0.13541275114E+02  0.00000000000E+00 0. -1.
</event>
<event>
 7    1  0.5005325E-012  0.5052897E+02  0.7816164E-02  0.1300438E+00
        -11   -1    0    0    0    0  0.00000000000E+00  0.00000000000E+00  0.45593999997E+02  0.45594000000E+02  0.51100000000E-03 0. -1.
         11   -1    0    0    0    0 -0.00000000000E+00 -0.00000000000E+00 -0.45593999997E+02  0.45594000000E+02  0.51100000000E-03 0.  1.
    9900012    2    1    2    0    0 -0.12992237767E+02  0.23106437894E+02 -0.30829383502E+02  0.50528971465E+02  0.30000339262E+02 0.  0.
         12    1    1    2    0    0  0.12992237767E+02 -0.23106437894E+02  0.30829383502E+02  0.40659028535E+02  0.00000000000E+00 0. -1.
         11    1    3    3    0    0 -0.14899547490E+01  0.99966037804E+01 -0.40499060080E+01  0.10888240961E+02  0.51100000000E-03 0. -1.
        -11    1    3    3    0    0  0.71845832189E+01  0.49018429061E+01 -0.64023540346E+01  0.10799835061E+02  0.51100000000E-03 0.  1.
         12    1    3    3    0    0 -0.18686866237E+02  0.82079912073E+01 -0.20377123459E+02  0.28840895442E+02  0.00000000000E+00 0. -1.
</event>
<event>
 7    1  0.5005325E-012  0.5052886E+02  0.7816164E-02  0.1300439E+00
        -11   -1    0    0    0    0  0.00000000000E+00  0.00000000000E+00  0.45593999997E+02  0.45594000000E+02  0.51100000000E-03 0. -1.
         11   -1    0    0    0    0 -0.00000000000E+00 -0.00000000000E+00 -0.45593999997E+02  0.45594000000E+02  0.51100000000E-03 0.  1.
    9900012    2    1    2    0    0  0.22408934367E+02 -0.23790111930E+02  0.24187512498E+02  0.50528861717E+02  0.30000005674E+02 0.  0.
        -12    1    1    2    0    0 -0.22408934367E+02  0.23790111930E+02 -0.24187512498E+02  0.40659138283E+02  0.00000000000E+00 0.  1.
         11    1    3    3    0    0  0.66304160429E+01  0.26830310748E+01  0.40223029272E+01  0.82060949147E+01  0.51100000000E-03 0. -1.
        -11    1    3    3    0    0  0.14562730629E+01 -0.18269456345E+02  0.31113281472E+01  0.18589624243E+02  0.51100000000E-03 0.  1.
         12    1    3    3    0    0  0.14322245262E+02 -0.82036866594E+01  0.17053881423E+02  0.23733142559E+02  0.00000000000E+00 0. -1.
</event>
<event>
 7    1  0.5005325E-012  0.5052885E+02  0.7816164E-02  0.1300439E+00
        -11   -1    0    0    0    0  0.00000000000E+00  0.00000000000E+00  0.45593999997E+02  0.45594000000E+02  0.51100000000E-03 0. -1.
         11   -1    0    0    0    0 -0.00000000000E+00 -0.00000000000E+00 -0.45593999997E+02  0.45594000000E+02  0.51100000000E-03 0.  1.
    9900012    2    1    2    0    0 -0.34854949629E+02 -0.29231271552E+01 -0.20730517606E+02  0.50528849170E+02  0.29999967537E+02 0.  0.
         12    1    1    2    0    0  0.34854949629E+02  0.29231271552E+01  0.20730517606E+02  0.40659150830E+02  0.00000000000E+00 0. -1.
         11    1    3    3    0    0 -0.15420102560E+02  0.10367815340E+02 -0.10659083509E+02  0.21421653050E+02  0.51100000000E-03 0. -1.
        -11    1    3    3    0    0  0.89014343477E+00 -0.48489373252E+01 -0.37943861789E+01  0.62210863403E+01  0.51100000000E-03 0.  1.
        -12    1    3    3    0    0 -0.20324990504E+02 -0.84420051700E+01 -0.62770479185E+01  0.22886109779E+02  0.00000000000E+00 0.  1.
</event>
<event>
 7    1  0.5005325E-012  0.5052887E+02  0.7816164E-02  0.1300439E+00
        -11   -1    0    0    0    0  0.00000000000E+00  0.00000000000E+00  0.45593999997E+02  0.45594000000E+02  0.51100000000E-03 0. -1.
         11   -1    0    0    0    0 -0.00000000000E+00 -0.00000000000E+00 -0.45593999997E+02  0.45594000000E+02  0.51100000000E-03 0.  1.
    9900012    2    1    2    0    0 -0.11070511369E+01 -0.27877897694E+02  0.29576379205E+02  0.50528868812E+02  0.30000027242E+02 0.  0.
        -12    1    1    2    0    0  0.11070511369E+01  0.27877897694E+02 -0.29576379205E+02  0.40659131188E+02  0.00000000000E+00 0.  1.
         11    1    3    3    0    0 -0.86616570835E+01 -0.97359811612E+01  0.22767267877E+02  0.26232844288E+02  0.51100000000E-03 0. -1.
        -11    1    3    3    0    0  0.35377101970E+01 -0.16377868184E+01  0.61696006854E+01  0.72980622071E+01  0.51100000000E-03 0.  1.
        -12    1    3    3    0    0  0.40168957497E+01 -0.16504129714E+02  0.63951064330E+00  0.16997962317E+02  0.00000000000E+00 0.  1.
</event>
<event>
 7    1  0.5005325E-012  0.5052887E+02  0.7816164E-02  0.1300439E+00
        -11   -1    0    0    0    0  0.00000000000E+00  0.00000000000E+00  0.45593999997E+02  0.45594000000E+02  0.51100000000E-03 0. -1.
         11   -1    0    0    0    0 -0.00000000000E+00 -0.00000000000E+00 -0.45593999997E+02  0.45594000000E+02  0.51100000000E-03 0.  1.
    9900012    2    1    2    0    0  0.50579130219E+01  0.64073124786E+01  0.39831257891E+02  0.50528865202E+02  0.30000016268E+02 0.  0.
        -12    1    1    2    0    0 -0.50579130219E+01 -0.64073124786E+01 -0.39831257891E+02  0.40659134798E+02  0.00000000000E+00 0.  1.
         11    1    3    3    0    0 -0.37424241805E+01  0.56686093215E+00  0.25581565878E+02  0.25860077012E+02  0.51100000000E-03 0. -1.
        -11    1    3    3    0    0 -0.44614598417E+01 -0.13063336865E+01  0.13640323176E+01  0.48447617118E+01  0.51100000000E-03 0.  1.
        -12    1    3    3    0    0  0.13261797044E+02  0.71467852330E+01  0.12885659696E+02  0.19824026478E+02  0.00000000000E+00 0.  1.
</event>
<event>
 7    1  0.5005325E-012  0.5052886E+02  0.7816164E-02  0.1300439E+00
        -11   -1    0    0    0    0  0.00000000000E+00  0.00000000000E+00  0.45593999997E+02  0.45594000000E+02  0.51100000000E-03 0.  1.
         11   -1    0    0    0    0 -0.00000000000E+00 -0.00000000000E+00 -0.45593999997E+02  0.45594000000E+02  0.51100000000E-03 0. -1.
    9900012    2    1    2    0    0 -0.20373137352E+02  0.34943919698E+02  0.41259168421E+01  0.50528862783E+02  0.30000008916E+02 0.  0.
        -12    1    1    2    0    0  0.20373137352E+02 -0.34943919698E+02 -0.41259168421E+01  0.40659137217E+02  0.00000000000E+00 0.  1.
         11    1    3    3    0    0 -0.12870279592E+02  0.15049832817E+02  0.86082751223E+00  0.19821266076E+02  0.51100000000E-03 0. -1.
        -11    1    3    3    0    0 -0.18932832277E+01  0.35536484821E+01 -0.87715151895E+01  0.96515500255E+01  0.51100000000E-03 0.  1.
         12    1    3    3    0    0 -0.56095745322E+01  0.16340438399E+02  0.12036604519E+02  0.21056046681E+02  0.00000000000E+00 0. -1.
</event>
<event>
 7    1  0.5005325E-012  0.5052886E+02  0.7816164E-02  0.1300439E+00
        -11   -1    0    0    0    0  0.00000000000E+00  0.00000000000E+00  0.45593999997E+02  0.45594000000E+02  0.51100000000E-03 0. -1.
         11   -1    0    0    0    0 -0.00000000000E+00 -0.00000000000E+00 -0.45593999997E+02  0.45594000000E+02  0.51100000000E-03 0.  1.
    9900012    2    1    2    0    0  0.20191451372E+02  0.63395911593E+01 -0.34717154546E+02  0.50528856572E+02  0.29999990035E+02 0.  0.
         12    1    1    2    0    0 -0.20191451372E+02 -0.63395911593E+01  0.34717154546E+02  0.40659143428E+02  0.00000000000E+00 0. -1.
         11    1    3    3    0    0  0.13485456210E+02  0.41028008589E+01 -0.31705488682E+01  0.14447937031E+02  0.51100000000E-03 0. -1.
        -11    1    3    3    0    0  0.67416614445E+01  0.94393354081E+00 -0.28905531811E+01  0.73956952017E+01  0.51100000000E-03 0.  1.
        -12    1    3    3    0    0 -0.35666281917E-01  0.12928567596E+01 -0.28656052496E+02  0.28685224339E+02  0.00000000000E+00 0.  1.
</event>
<event>
 7    1  0.5005325E-012  0.5052887E+02  0.7816164E-02  0.1300439E+00
        -11   -1    0    0    0    0  0.00000000000E+00  0.00000000000E+00  0.45593999997E+02  0.45594000000E+02  0.51100000000E-03 0.  1.
         11   -1    0    0    0    0 -0.00000000000E+00 -0.00000000000E+00 -0.45593999997E+02  0.45594000000E+02  0.51100000000E-03 0. -1.
    9900012    2    1    2    0    0 -0.37794839262E+02 -0.13261154641E+02 -0.69897595220E+01  0.50528870208E+02  0.30000031484E+02 0.  0.
         12    1    1    2    0    0  0.37794839262E+02  0.13261154641E+02  0.69897595220E+01  0.40659129792E+02  0.00000000000E+00 0. -1.
         11    1    3    3    0    0  0.59828760471E+00  0.35944421192E+01 -0.11339464803E+01  0.38162543269E+01  0.51100000000E-03 0. -1.
        -11    1    3    3    0    0 -0.25334181485E+02 -0.57839883362E+01  0.49690647464E+01  0.26456887143E+02  0.51100000000E-03 0.  1.
        -12    1    3    3    0    0 -0.13058945382E+02 -0.11071608424E+02 -0.10824877788E+02  0.20255728738E+02  0.00000000000E+00 0.  1.
</event>
<event>
 7    1  0.5005325E-012  0.5052885E+02  0.7816164E-02  0.1300439E+00
        -11   -1    0    0    0    0  0.00000000000E+00  0.00000000000E+00  0.45593999997E+02  0.45594000000E+02  0.51100000000E-03 0.  1.
         11   -1    0    0    0    0 -0.00000000000E+00 -0.00000000000E+00 -0.45593999997E+02  0.45594000000E+02  0.51100000000E-03 0. -1.
    9900012    2    1    2    0    0 -0.35758376906E+02 -0.18691783307E+02 -0.50121818791E+01  0.50528852821E+02  0.29999978634E+02 0.  0.
         12    1    1    2    0    0  0.35758376906E+02  0.18691783307E+02  0.50121818791E+01  0.40659147179E+02  0.00000000000E+00 0. -1.
         11    1    3    3    0    0 -0.15699997921E+02 -0.32102170019E+01  0.17639360703E+01  0.16121628288E+02  0.51100000000E-03 0. -1.
        -11    1    3    3    0    0 -0.16031391720E+02 -0.19292258674E+02  0.70736342959E+00  0.25093766727E+02  0.51100000000E-03 0.  1.
         12    1    3    3    0    0 -0.40269872645E+01  0.38106923689E+01 -0.74834813790E+01  0.93134578062E+01  0.00000000000E+00 0. -1.
</event>
<event>
 7    1  0.5005325E-012  0.5052886E+02  0.7816164E-02  0.1300439E+00
        -11   -1    0    0    0    0  0.00000000000E+00  0.00000000000E+00  0.45593999997E+02  0.45594000000E+02  0.51100000000E-03 0. -1.
         11   -1    0    0    0    0 -0.00000000000E+00 -0.00000000000E+00 -0.45593999997E+02  0.45594000000E+02  0.51100000000E-03 0.  1.
    9900012    2    1    2    0    0 -0.11077059078E+02 -0.36109133312E+02 -0.15053068603E+02  0.50528860551E+02  0.30000002132E+02 0.  0.
         12    1    1    2    0    0  0.11077059078E+02  0.36109133312E+02  0.15053068603E+02  0.40659139449E+02  0.00000000000E+00 0. -1.
         11    1    3    3    0    0  0.30938065550E+00 -0.18790632549E+02  0.15832262720E+00  0.18793846182E+02  0.51100000000E-03 0. -1.
        -11    1    3    3    0    0 -0.25156924528E+01 -0.17568987663E+02 -0.14341232051E+02  0.22818171991E+02  0.51100000000E-03 0.  1.
         12    1    3    3    0    0 -0.88707472804E+01  0.25048690024E+00 -0.87015917908E+00  0.89168423781E+01  0.00000000000E+00 0. -1.
</event>
<event>
 7    1  0.5005325E-012  0.5052886E+02  0.7816164E-02  0.1300439E+00
        -11   -1    0    0    0    0  0.00000000000E+00  0.00000000000E+00  0.45593999997E+02  0.45594000000E+02  0.51100000000E-03 0. -1.
         11   -1    0    0    0    0 -0.00000000000E+00 -0.00000000000E+00 -0.45593999997E+02  0.45594000000E+02  0.51100000000E-03 0.  1.
    9900012    2    1    2    0    0  0.16472026311E+02  0.28256889407E+02  0.24153391518E+02  0.50528858697E+02  0.29999996494E+02 0.  0.
        -12    1    1    2    0    0 -0.16472026311E+02 -0.28256889407E+02 -0.24153391518E+02  0.40659141303E+02  0.00000000000E+00 0.  1.
         11    1    3    3    0    0  0.32314486731E+01  0.21849946624E+00  0.17506609760E+01  0.36816866594E+01  0.51100000000E-03 0. -1.
        -11    1    3    3    0    0  0.27497959340E+01  0.18669487053E+02  0.26190424251E+02  0.32280790685E+02  0.51100000000E-03 0.  1.
        -12    1    3    3    0    0  0.10490781704E+02  0.93689028873E+01 -0.37876937098E+01  0.14566381353E+02  0.00000000000E+00 0.  1.
</event>
<event>
 7    1  0.5005325E-012  0.5052887E+02  0.7816164E-02  0.1300439E+00
        -11   -1    0    0    0    0  0.00000000000E+00  0.00000000000E+00  0.45593999997E+02  0.45594000000E+02  0.51100000000E-03 0. -1.
         11   -1    0    0    0    0 -0.00000000000E+00 -0.00000000000E+00 -0.45593999997E+02  0.45594000000E+02  0.51100000000E-03 0.  1.
    9900012    2    1    2    0    0 -0.18578413691E+02 -0.17091337425E+01 -0.36125981011E+02  0.50528866986E+02  0.30000021691E+02 0.  0.
         12    1    1    2    0    0  0.18578413691E+02  0.17091337425E+01  0.36125981011E+02  0.40659133014E+02  0.00000000000E+00 0. -1.
         11    1    3    3    0    0 -0.48520296704E+01  0.63049383541E+01 -0.23624855197E+00  0.79592872301E+01  0.51100000000E-03 0. -1.
        -11    1    3    3    0    0 -0.11425759813E+02  0.23908045665E+01 -0.14032636175E+02  0.18253186354E+02  0.51100000000E-03 0.  1.
         12    1    3    3    0    0 -0.23006242076E+01 -0.10404876663E+02 -0.21857096284E+02  0.24316393402E+02  0.00000000000E+00 0. -1.
</event>
<event>
 7    1  0.5005325E-012  0.5052886E+02  0.7816164E-02  0.1300439E+00
        -11   -1    0    0    0    0  0.00000000000E+00  0.00000000000E+00  0.45593999997E+02  0.45594000000E+02  0.51100000000E-03 0. -1.
         11   -1    0    0    0    0 -0.00000000000E+00 -0.00000000000E+00 -0.45593999997E+02  0.45594000000E+02  0.51100000000E-03 0.  1.
    9900012    2    1    2    0    0  0.21729670664E+02 -0.19082544793E+02 -0.28580482246E+02  0.50528855046E+02  0.29999985399E+02 0.  0.
         12    1    1    2    0    0 -0.21729670664E+02  0.19082544793E+02  0.28580482246E+02  0.40659144954E+02  0.00000000000E+00 0. -1.
         11    1    3    3    0    0  0.10510977269E+02 -0.16552332562E+02 -0.41111317839E+01  0.20034015104E+02  0.51100000000E-03 0. -1.
        -11    1    3    3    0    0  0.86501546358E+00 -0.68630537826E+01 -0.10524742640E+02  0.12594441904E+02  0.51100000000E-03 0.  1.
        -12    1    3    3    0    0  0.10353677932E+02  0.43328415510E+01 -0.13944607822E+02  0.17900398039E+02  0.00000000000E+00 0.  1.
</event>
<event>
 7    1  0.5005325E-012  0.5052887E+02  0.7816164E-02  0.1300439E+00
        -11   -1    0    0    0    0  0.00000000000E+00  0.00000000000E+00  0.45593999997E+02  0.45594000000E+02  0.51100000000E-03 0. -1.
         11   -1    0    0    0    0 -0.00000000000E+00 -0.00000000000E+00 -0.45593999997E+02  0.45594000000E+02  0.51100000000E-03 0.  1.
    9900012    2    1    2    0    0 -0.82995330994E+01 -0.14356774592E+02 -0.37123656460E+02  0.50528867012E+02  0.30000021771E+02 0.  0.
         12    1    1    2    0    0  0.82995330994E+01  0.14356774592E+02  0.37123656460E+02  0.40659132988E+02  0.00000000000E+00 0. -1.
         11    1    3    3    0    0  0.47218702748E+01 -0.48725729204E+01  0.19036376856E+00  0.67878026181E+01  0.51100000000E-03 0. -1.
        -11    1    3    3    0    0 -0.36874878644E+01 -0.93953747128E+01 -0.30657976844E+02  0.32276650650E+02  0.51100000000E-03 0.  1.
         12    1    3    3    0    0 -0.93339155099E+01 -0.88826959287E-01 -0.66560433846E+01  0.11464413745E+02  0.00000000000E+00 0. -1.
</event>
<event>
 7    1  0.5005325E-012  0.5052885E+02  0.7816164E-02  0.1300439E+00
        -11   -1    0    0    0    0  0.00000000000E+00  0.00000000000E+00  0.45593999997E+02  0.45594000000E+02  0.51100000000E-03 0. -1.
         11   -1    0    0    0    0 -0.00000000000E+00 -0.00000000000E+00 -0.45593999997E+02  0.45594000000E+02  0.51100000000E-03 0.  1.
    9900012    2    1    2    0    0 -0.31088617954E+01 -0.54440206974E+01  0.40172923874E+02  0.50528853482E+02  0.29999980643E+02 0.  0.
        -12    1    1    2    0    0  0.31088617954E+01  0.54440206974E+01 -0.40172923874E+02  0.40659146518E+02  0.00000000000E+00 0.  1.
         11    1    3    3    0    0 -0.88078579264E+01 -0.34169126613E+01  0.12073759764E+02  0.15330666277E+02  0.51100000000E-03 0. -1.
        -11    1    3    3    0    0 -0.42238893797E+00 -0.24175932301E+01 -0.27842728708E+01  0.37115152056E+01  0.51100000000E-03 0.  1.
         12    1    3    3    0    0  0.61213850690E+01  0.39048519403E+00  0.30883436981E+02  0.31486671999E+02  0.00000000000E+00 0. -1.
</event>
<event>
 7    1  0.5005325E-012  0.5052889E+02  0.7816164E-02  0.1300439E+00
        -11   -1    0    0    0    0  0.00000000000E+00  0.00000000000E+00  0.45593999997E+02  0.45594000000E+02  0.51100000000E-03 0. -1.
         11   -1    0    0    0    0 -0.00000000000E+00 -0.00000000000E+00 -0.45593999997E+02  0.45594000000E+02  0.51100000000E-03 0.  1.
    9900012    2    1    2    0    0  0.99968467246E+01  0.13195768977E+02 -0.37136211266E+02  0.50528887239E+02  0.30000083250E+02 0.  0.
         12    1    1    2    0    0 -0.99968467246E+01 -0.13195768977E+02  0.37136211266E+02  0.40659112761E+02  0.00000000000E+00 0. -1.
         11    1    3    3    0    0 -0.38432491534E+01 -0.18031750137E+01  0.23667038393E+01  0.48603797701E+01  0.51100000000E-03 0. -1.
        -11    1    3    3    0    0  0.13867318842E+00  0.69276981584E+01 -0.10241660331E+02  0.12365429173E+02  0.51100000000E-03 0.  1.
        -12    1    3    3    0    0  0.13701422690E+02  0.80712458325E+01 -0.29261254774E+02  0.33303078296E+02  0.00000000000E+00 0.  1.
</event>
<event>
 7    1  0.5005325E-012  0.5052886E+02  0.7816164E-02  0.1300439E+00
        -11   -1    0    0    0    0  0.00000000000E+00  0.00000000000E+00  0.45593999997E+02  0.45594000000E+02  0.51100000000E-03 0. -1.
         11   -1    0    0    0    0 -0.00000000000E+00 -0.00000000000E+00 -0.45593999997E+02  0.45594000000E+02  0.51100000000E-03 0.  1.
    9900012    2    1    2    0    0  0.28616751886E+02  0.11588883127E+02 -0.26456466563E+02  0.50528864204E+02  0.30000013235E+02 0.  0.
         12    1    1    2    0    0 -0.28616751886E+02 -0.11588883127E+02  0.26456466563E+02  0.40659135796E+02  0.00000000000E+00 0. -1.
         11    1    3    3    0    0  0.14636494160E+02  0.15858172394E+02 -0.14022814047E+02  0.25736120668E+02  0.51100000000E-03 0. -1.
        -11    1    3    3    0    0  0.13966455197E+02  0.17368811384E+01 -0.12444105641E+02  0.18786548175E+02  0.51100000000E-03 0.  1.
        -12    1    3    3    0    0  0.13802529150E-01 -0.60061704055E+01  0.10453124727E-01  0.60061953612E+01  0.00000000000E+00 0.  1.
</event>
<event>
 7    1  0.5005325E-012  0.5052886E+02  0.7816164E-02  0.1300439E+00
        -11   -1    0    0    0    0  0.00000000000E+00  0.00000000000E+00  0.45593999997E+02  0.45594000000E+02  0.51100000000E-03 0. -1.
         11   -1    0    0    0    0 -0.00000000000E+00 -0.00000000000E+00 -0.45593999997E+02  0.45594000000E+02  0.51100000000E-03 0.  1.
    9900012    2    1    2    0    0  0.36261167718E+02  0.14838670020E+02 -0.10867710387E+02  0.50528861528E+02  0.30000005101E+02 0.  0.
         12    1    1    2    0    0 -0.36261167718E+02 -0.14838670020E+02  0.10867710387E+02  0.40659138472E+02  0.00000000000E+00 0. -1.
         11    1    3    3    0    0  0.12583444795E+02  0.13252188078E+02  0.56680344198E+00  0.18283458047E+02  0.51100000000E-03 0. -1.
        -11    1    3    3    0    0  0.15282461958E+02  0.81739431277E+01 -0.12718591179E+02  0.21497198692E+02  0.51100000000E-03 0.  1.
         12    1    3    3    0    0  0.83952609649E+01 -0.65874611857E+01  0.12840773506E+01  0.10748204789E+02  0.00000000000E+00 0. -1.
</event>
<event>
 7    1  0.5005325E-012  0.5052885E+02  0.7816164E-02  0.1300439E+00
        -11   -1    0    0    0    0  0.00000000000E+00  0.00000000000E+00  0.45593999997E+02  0.45594000000E+02  0.51100000000E-03 0. -1.
         11   -1    0    0    0    0 -0.00000000000E+00 -0.00000000000E+00 -0.45593999997E+02  0.45594000000E+02  0.51100000000E-03 0.  1.
    9900012    2    1    2    0    0  0.21564838064E+02  0.25766479763E+02  0.22895685894E+02  0.50528854010E+02  0.29999982247E+02 0.  0.
        -12    1    1    2    0    0 -0.21564838064E+02 -0.25766479763E+02 -0.22895685894E+02  0.40659145990E+02  0.00000000000E+00 0.  1.
         11    1    3    3    0    0  0.51591891659E+01  0.91891065481E+00  0.11366131132E+01  0.53622308111E+01  0.51100000000E-03 0. -1.
        -11    1    3    3    0    0  0.74524920823E+01 -0.45730562481E+01  0.36246490167E+01  0.94652291277E+01  0.51100000000E-03 0.  1.
        -12    1    3    3    0    0  0.89531568158E+01  0.29420625357E+02  0.18134423764E+02  0.35701394071E+02  0.00000000000E+00 0.  1.
</event>
<event>
 7    1  0.5005325E-012  0.5052886E+02  0.7816164E-02  0.1300439E+00
        -11   -1    0    0    0    0  0.00000000000E+00  0.00000000000E+00  0.45593999997E+02  0.45594000000E+02  0.51100000000E-03 0. -1.
         11   -1    0    0    0    0 -0.00000000000E+00 -0.00000000000E+00 -0.45593999997E+02  0.45594000000E+02  0.51100000000E-03 0.  1.
    9900012    2    1    2    0    0 -0.18080572701E+02  0.28632080570E+02  0.22504722628E+02  0.50528859730E+02  0.29999999634E+02 0.  0.
        -12    1    1    2    0    0  0.18080572701E+02 -0.28632080570E+02 -0.22504722628E+02  0.40659140270E+02  0.00000000000E+00 0.  1.
         11    1    3    3    0    0 -0.16322899660E+01  0.93656527399E+01 -0.53612860781E+01  0.10914357995E+02  0.51100000000E-03 0. -1.
        -11    1    3    3    0    0  0.16888744030E+01  0.38470799982E+01  0.57462166857E+01  0.71183795714E+01  0.51100000000E-03 0.  1.
        -12    1    3    3    0    0 -0.18137157138E+02  0.15419347832E+02  0.22119792021E+02  0.32496122163E+02  0.00000000000E+00 0.  1.
</event>
<event>
 7    1  0.5270721E-012  0.5052886E+02  0.7816164E-02  0.1300439E+00
        -11   -1    0    0    0    0  0.00000000000E+00  0.00000000000E+00  0.45593999997E+02  0.45594000000E+02  0.51100000000E-03 0. -1.
         11   -1    0    0    0    0 -0.00000000000E+00 -0.00000000000E+00 -0.45593999997E+02  0.45594000000E+02  0.51100000000E-03 0.  1.
    9900012    2    1    2    0    0 -0.70857713622E+01 -0.29649887344E+02  0.26904302986E+02  0.50528862104E+02  0.30000006850E+02 0.  0.
        -12    1    1    2    0    0  0.70857713622E+01  0.29649887344E+02 -0.26904302986E+02  0.40659137896E+02  0.00000000000E+00 0.  1.
         11    1    3    3    0    0 -0.99137204852E+01 -0.67026478178E+01  0.52577336552E+01  0.13071002451E+02  0.51100000000E-03 0. -1.
        -11    1    3    3    0    0 -0.62360674725E+01 -0.16087681020E+02  0.19231577082E+02  0.25837096885E+02  0.51100000000E-03 0.  1.
        -12    1    3    3    0    0  0.90640165956E+01 -0.68595585055E+01  0.24149922496E+01  0.11620762768E+02  0.00000000000E+00 0.  1.
</event>
<event>
 7    1  0.5005325E-012  0.5052886E+02  0.7816164E-02  0.1300439E+00
        -11   -1    0    0    0    0  0.00000000000E+00  0.00000000000E+00  0.45593999997E+02  0.45594000000E+02  0.51100000000E-03 0. -1.
         11   -1    0    0    0    0 -0.00000000000E+00 -0.00000000000E+00 -0.45593999997E+02  0.45594000000E+02  0.51100000000E-03 0.  1.
    9900012    2    1    2    0    0 -0.24918897758E+00  0.14028437521E+02  0.38161583131E+02  0.50528861034E+02  0.30000003598E+02 0.  0.
        -12    1    1    2    0    0  0.24918897758E+00 -0.14028437521E+02 -0.38161583131E+02  0.40659138966E+02  0.00000000000E+00 0.  1.
         11    1    3    3    0    0 -0.15822865238E+01 -0.38583435220E+01  0.63198406302E+01  0.75717125691E+01  0.51100000000E-03 0. -1.
        -11    1    3    3    0    0 -0.44236642152E+01  0.74191009217E+01 -0.32477809998E+00  0.86439195190E+01  0.51100000000E-03 0.  1.
        -12    1    3    3    0    0  0.57567617614E+01  0.10467680121E+02  0.32166520601E+02  0.34313228945E+02  0.00000000000E+00 0.  1.
</event>
<event>
 7    1  0.5005325E-012  0.5052886E+02  0.7816164E-02  0.1300439E+00
        -11   -1    0    0    0    0  0.00000000000E+00  0.00000000000E+00  0.45593999997E+02  0.45594000000E+02  0.51100000000E-03 0. -1.
         11   -1    0    0    0    0 -0.00000000000E+00 -0.00000000000E+00 -0.45593999997E+02  0.45594000000E+02  0.51100000000E-03 0.  1.
    9900012    2    1    2    0    0  0.36247431776E+02  0.13307847533E+02 -0.12735399542E+02  0.50528861817E+02  0.30000005979E+02 0.  0.
         12    1    1    2    0    0 -0.36247431776E+02 -0.13307847533E+02  0.12735399542E+02  0.40659138183E+02  0.00000000000E+00 0. -1.
         11    1    3    3    0    0  0.20527495318E+02  0.82946174650E+01 -0.63830454553E+01  0.23041744996E+02  0.51100000000E-03 0. -1.
        -11    1    3    3    0    0  0.20785693544E+02  0.50912673945E+01 -0.35351490953E+01  0.21690166877E+02  0.51100000000E-03 0.  1.
         12    1    3    3    0    0 -0.50657570863E+01 -0.78037326377E-01 -0.28172049914E+01  0.57969499433E+01  0.00000000000E+00 0. -1.
</event>
<event>
 7    1  0.5005325E-012  0.5052886E+02  0.7816164E-02  0.1300439E+00
        -11   -1    0    0    0    0  0.00000000000E+00  0.00000000000E+00  0.45593999997E+02  0.45594000000E+02  0.51100000000E-03 0. -1.
         11   -1    0    0    0    0 -0.00000000000E+00 -0.00000000000E+00 -0.45593999997E+02  0.45594000000E+02  0.51100000000E-03 0.  1.
    9900012    2    1    2    0    0 -0.16942594424E+02  0.12985808127E+02 -0.34604660730E+02  0.50528864953E+02  0.30000015513E+02 0.  0.
         12    1    1    2    0    0  0.16942594424E+02 -0.12985808127E+02  0.34604660730E+02  0.40659135047E+02  0.00000000000E+00 0. -1.
         11    1    3    3    0    0  0.85169042174E+00 -0.16943656753E+01  0.34596745799E+01  0.39453263587E+01  0.51100000000E-03 0. -1.
        -11    1    3    3    0    0 -0.13135424565E+02  0.38627968674E+01 -0.27681518594E+02  0.30882471567E+02  0.51100000000E-03 0.  1.
        -12    1    3    3    0    0 -0.46588602803E+01  0.10817376935E+02 -0.10382816715E+02  0.15701067028E+02  0.00000000000E+00 0.  1.
</event>
<event>
 7    1  0.5005325E-012  0.5052886E+02  0.7816164E-02  0.1300439E+00
        -11   -1    0    0    0    0  0.00000000000E+00  0.00000000000E+00  0.45593999997E+02  0.45594000000E+02  0.51100000000E-03 0.  1.
         11   -1    0    0    0    0 -0.00000000000E+00 -0.00000000000E+00 -0.45593999997E+02  0.45594000000E+02  0.51100000000E-03 0. -1.
    9900012    2    1    2    0    0 -0.21145422715E+02  0.28543802741E+02 -0.19780998695E+02  0.50528862207E+02  0.30000007164E+02 0.  0.
         12    1    1    2    0    0  0.21145422715E+02 -0.28543802741E+02  0.19780998695E+02  0.40659137793E+02  0.00000000000E+00 0. -1.
         11    1    3    3    0    0 -0.72277331056E+01  0.20347536868E+02 -0.15996568343E+02  0.26872896782E+02  0.51100000000E-03 0. -1.
        -11    1    3    3    0    0 -0.50821267166E+01  0.14563762376E+01 -0.97145824946E+01  0.11059934765E+02  0.51100000000E-03 0.  1.
         12    1    3    3    0    0 -0.88355628925E+01  0.67398896356E+01  0.59301521432E+01  0.12596030659E+02  0.00000000000E+00 0. -1.
</event>
<event>
 7    1  0.5005325E-012  0.5052886E+02  0.7816164E-02  0.1300439E+00
        -11   -1    0    0    0    0  0.00000000000E+00  0.00000000000E+00  0.45593999997E+02  0.45594000000E+02  0.51100000000E-03 0. -1.
         11   -1    0    0    0    0 -0.00000000000E+00 -0.00000000000E+00 -0.45593999997E+02  0.45594000000E+02  0.51100000000E-03 0.  1.
    9900012    2    1    2    0    0 -0.82125121685E+01 -0.55767274645E+01  0.39428673301E+02  0.50528861746E+02  0.30000005762E+02 0.  0.
        -12    1    1    2    0    0  0.82125121685E+01  0.55767274645E+01 -0.39428673301E+02  0.40659138254E+02  0.00000000000E+00 0.  1.
         11    1    3    3    0    0 -0.34874522070E+01 -0.67256137788E+01  0.90564480365E+01  0.11807432189E+02  0.51100000000E-03 0. -1.
        -11    1    3    3    0    0 -0.95311980450E+01  0.69542307923E+01  0.60519192746E+01  0.13260120258E+02  0.51100000000E-03 0.  1.
         12    1    3    3    0    0  0.48061380834E+01 -0.58053444780E+01  0.24320305990E+02  0.25461309299E+02  0.00000000000E+00 0. -1.
</event>
<event>
 7    1  0.5005325E-012  0.5052886E+02  0.7816164E-02  0.1300439E+00
        -11   -1    0    0    0    0  0.00000000000E+00  0.00000000000E+00  0.45593999997E+02  0.45594000000E+02  0.51100000000E-03 0. -1.
         11   -1    0    0    0    0 -0.00000000000E+00 -0.00000000000E+00 -0.45593999997E+02  0.45594000000E+02  0.51100000000E-03 0.  1.
    9900012    2    1    2    0    0  0.58711970613E+00 -0.21304115132E+02 -0.34625937345E+02  0.50528861198E+02  0.30000004098E+02 0.  0.
         12    1    1    2    0    0 -0.58711970613E+00  0.21304115132E+02  0.34625937345E+02  0.40659138802E+02  0.00000000000E+00 0. -1.
         11    1    3    3    0    0  0.87579389340E+01 -0.11733810820E+02 -0.11489763976E+02  0.18611783558E+02  0.51100000000E-03 0. -1.
        -11    1    3    3    0    0  0.27975311007E+01 -0.35777495125E+01 -0.17724614699E+02  0.18297224881E+02  0.51100000000E-03 0.  1.
         12    1    3    3    0    0 -0.10968350329E+02 -0.59925547992E+01 -0.54115586699E+01  0.13619852759E+02  0.00000000000E+00 0. -1.
</event>
<event>
 7    1  0.5005325E-012  0.5052886E+02  0.7816164E-02  0.1300439E+00
        -11   -1    0    0    0    0  0.00000000000E+00  0.00000000000E+00  0.45593999997E+02  0.45594000000E+02  0.51100000000E-03 0. -1.
         11   -1    0    0    0    0 -0.00000000000E+00 -0.00000000000E+00 -0.45593999997E+02  0.45594000000E+02  0.51100000000E-03 0.  1.
    9900012    2    1    2    0    0 -0.22514849755E+02 -0.98903968684E+01  0.32379430651E+02  0.50528856637E+02  0.29999990234E+02 0.  0.
        -12    1    1    2    0    0  0.22514849755E+02  0.98903968684E+01 -0.32379430651E+02  0.40659143363E+02  0.00000000000E+00 0.  1.
         11    1    3    3    0    0 -0.58928904348E+01 -0.65016321559E+01  0.21058131361E+02  0.22813203963E+02  0.51100000000E-03 0. -1.
        -11    1    3    3    0    0 -0.12168738131E+02  0.64605220601E+01  0.95466232711E+01  0.16761698874E+02  0.51100000000E-03 0.  1.
        -12    1    3    3    0    0 -0.44532211894E+01 -0.98492867726E+01  0.17746760190E+01  0.10953953800E+02  0.00000000000E+00 0.  1.
</event>
<event>
 7    1  0.5005325E-012  0.5052885E+02  0.7816164E-02  0.1300439E+00
        -11   -1    0    0    0    0  0.00000000000E+00  0.00000000000E+00  0.45593999997E+02  0.45594000000E+02  0.51100000000E-03 0. -1.
         11   -1    0    0    0    0 -0.00000000000E+00 -0.00000000000E+00 -0.45593999997E+02  0.45594000000E+02  0.51100000000E-03 0.  1.
    9900012    2    1    2    0    0 -0.24495844067E+02  0.13631086814E+02 -0.29450189807E+02  0.50528848706E+02  0.29999966126E+02 0.  0.
         12    1    1    2    0    0  0.24495844067E+02 -0.13631086814E+02  0.29450189807E+02  0.40659151294E+02  0.00000000000E+00 0. -1.
         11    1    3    3    0    0 -0.10569462775E+02  0.90092724385E+01  0.60910968070E+00  0.13901494455E+02  0.51100000000E-03 0. -1.
        -11    1    3    3    0    0 -0.13595568706E+02 -0.13593803475E+01 -0.14348631091E+02  0.19813394909E+02  0.51100000000E-03 0.  1.
        -12    1    3    3    0    0 -0.33081258713E+00  0.59811947230E+01 -0.15710668397E+02  0.16813959342E+02  0.00000000000E+00 0.  1.
</event>
<event>
 7    1  0.5005325E-012  0.5052887E+02  0.7816164E-02  0.1300439E+00
        -11   -1    0    0    0    0  0.00000000000E+00  0.00000000000E+00  0.45593999997E+02  0.45594000000E+02  0.51100000000E-03 0.  1.
         11   -1    0    0    0    0 -0.00000000000E+00 -0.00000000000E+00 -0.45593999997E+02  0.45594000000E+02  0.51100000000E-03 0. -1.
    9900012    2    1    2    0    0  0.12401170363E+02  0.38059594893E+02 -0.71304268806E+01  0.50528870923E+02  0.30000033658E+02 0.  0.
         12    1    1    2    0    0 -0.12401170363E+02 -0.38059594893E+02  0.71304268806E+01  0.40659129077E+02  0.00000000000E+00 0. -1.
         11    1    3    3    0    0  0.12989016606E+01  0.46387377013E+01 -0.92826877310E+01  0.10458170239E+02  0.51100000000E-03 0. -1.
        -11    1    3    3    0    0 -0.44138341571E+01  0.13979635853E+02 -0.21839800146E+01  0.14821670604E+02  0.51100000000E-03 0.  1.
        -12    1    3    3    0    0  0.15516102860E+02  0.19441221339E+02  0.43362408651E+01  0.25249030079E+02  0.00000000000E+00 0.  1.
</event>
<event>
 7    1  0.5005325E-012  0.5052886E+02  0.7816164E-02  0.1300439E+00
        -11   -1    0    0    0    0  0.00000000000E+00  0.00000000000E+00  0.45593999997E+02  0.45594000000E+02  0.51100000000E-03 0. -1.
         11   -1    0    0    0    0 -0.00000000000E+00 -0.00000000000E+00 -0.45593999997E+02  0.45594000000E+02  0.51100000000E-03 0.  1.
    9900012    2    1    2    0    0 -0.24533916440E+02  0.74137385200E+00  0.32414554705E+02  0.50528855299E+02  0.29999986166E+02 0.  0.
        -12    1    1    2    0    0  0.24533916440E+02 -0.74137385200E+00 -0.32414554705E+02  0.40659144701E+02  0.00000000000E+00 0.  1.
         11    1    3    3    0    0 -0.32758042099E+01 -0.17367253279E+01  0.17777884970E+02  0.18160404796E+02  0.51100000000E-03 0. -1.
        -11    1    3    3    0    0 -0.30176245579E+01  0.16923433234E+01  0.13653020333E+02  0.14084567739E+02  0.51100000000E-03 0.  1.
        -12    1    3    3    0    0 -0.18240487673E+02  0.78575585649E+00  0.98364940243E+00  0.18283882765E+02  0.00000000000E+00 0.  1.
</event>
<event>
 7    1  0.5005325E-012  0.5052886E+02  0.7816164E-02  0.1300439E+00
        -11   -1    0    0    0    0  0.00000000000E+00  0.00000000000E+00  0.45593999997E+02  0.45594000000E+02  0.51100000000E-03 0. -1.
         11   -1    0    0    0    0 -0.00000000000E+00 -0.00000000000E+00 -0.45593999997E+02  0.45594000000E+02  0.51100000000E-03 0.  1.
    9900012    2    1    2    0    0  0.25686278897E+01 -0.68303565900E+01  0.39998929457E+02  0.50528856157E+02  0.29999988774E+02 0.  0.
        -12    1    1    2    0    0 -0.25686278897E+01  0.68303565900E+01 -0.39998929457E+02  0.40659143843E+02  0.00000000000E+00 0.  1.
         11    1    3    3    0    0  0.33634171812E+01  0.56464745963E+01  0.90551749533E+01  0.11188898257E+02  0.51100000000E-03 0. -1.
        -11    1    3    3    0    0 -0.10404065844E+02 -0.43349404262E+01  0.10979390615E+02  0.15734780364E+02  0.51100000000E-03 0.  1.
         12    1    3    3    0    0  0.96092765522E+01 -0.81418907601E+01  0.19964363889E+02  0.23605177536E+02  0.00000000000E+00 0. -1.
</event>
<event>
 7    1  0.5005325E-012  0.5052886E+02  0.7816164E-02  0.1300439E+00
        -11   -1    0    0    0    0  0.00000000000E+00  0.00000000000E+00  0.45593999997E+02  0.45594000000E+02  0.51100000000E-03 0. -1.
         11   -1    0    0    0    0 -0.00000000000E+00 -0.00000000000E+00 -0.45593999997E+02  0.45594000000E+02  0.51100000000E-03 0.  1.
    9900012    2    1    2    0    0 -0.51616999365E+00  0.40630799359E+02 -0.14272256954E+01  0.50528864972E+02  0.30000015569E+02 0.  0.
         12    1    1    2    0    0  0.51616999365E+00 -0.40630799359E+02  0.14272256954E+01  0.40659135028E+02  0.00000000000E+00 0. -1.
         11    1    3    3    0    0  0.60960574721E+01  0.36061708612E+01  0.73928982784E+01  0.10238228860E+02  0.51100000000E-03 0. -1.
        -11    1    3    3    0    0  0.14714352779E+01  0.43929185115E+01 -0.43891735612E+01  0.63818257292E+01  0.51100000000E-03 0.  1.
        -12    1    3    3    0    0 -0.80836627437E+01  0.32631709986E+02 -0.44309504126E+01  0.33908810382E+02  0.00000000000E+00 0.  1.
</event>
<event>
 7    1  0.5005325E-012  0.5052886E+02  0.7816164E-02  0.1300439E+00
        -11   -1    0    0    0    0  0.00000000000E+00  0.00000000000E+00  0.45593999997E+02  0.45594000000E+02  0.51100000000E-03 0.  1.
         11   -1    0    0    0    0 -0.00000000000E+00 -0.00000000000E+00 -0.45593999997E+02  0.45594000000E+02  0.51100000000E-03 0. -1.
    9900012    2    1    2    0    0  0.29511175601E+02  0.68613658094E+01  0.27114165323E+02  0.50528858503E+02  0.29999995906E+02 0.  0.
        -12    1    1    2    0    0 -0.29511175601E+02 -0.68613658094E+01 -0.27114165323E+02  0.40659141497E+02  0.00000000000E+00 0.  1.
         11    1    3    3    0    0  0.12944821560E+02 -0.24911765991E+01  0.53481517526E+00  0.13193194973E+02  0.51100000000E-03 0. -1.
        -11    1    3    3    0    0  0.95131030031E+00 -0.53702841491E+00  0.16003119261E+02  0.16040362126E+02  0.51100000000E-03 0.  1.
         12    1    3    3    0    0  0.15615043741E+02  0.98895708234E+01  0.10576230887E+02  0.21295301404E+02  0.00000000000E+00 0. -1.
</event>
<event>
 7    1  0.5005325E-012  0.5052889E+02  0.7816164E-02  0.1300439E+00
        -11   -1    0    0    0    0  0.00000000000E+00  0.00000000000E+00  0.45593999997E+02  0.45594000000E+02  0.51100000000E-03 0.  1.
         11   -1    0    0    0    0 -0.00000000000E+00 -0.00000000000E+00 -0.45593999997E+02  0.45594000000E+02  0.51100000000E-03 0. -1.
    9900012    2    1    2    0    0 -0.39757204808E+02 -0.60297044862E+01  0.60142293048E+01  0.50528885100E+02  0.30000076750E+02 0.  0.
        -12    1    1    2    0    0  0.39757204808E+02  0.60297044862E+01 -0.60142293048E+01  0.40659114900E+02  0.00000000000E+00 0.  1.
         11    1    3    3    0    0  0.11752188608E+01 -0.29118347274E+01  0.46563774146E+01  0.56162061696E+01  0.51100000000E-03 0. -1.
        -11    1    3    3    0    0 -0.13325201652E+02  0.53630905423E+01  0.61716426454E+01  0.15633710769E+02  0.51100000000E-03 0.  1.
         12    1    3    3    0    0 -0.27607222017E+02 -0.84809603011E+01 -0.48137907553E+01  0.29278968161E+02  0.00000000000E+00 0. -1.
</event>
<event>
 7    1  0.5005325E-012  0.5052886E+02  0.7816164E-02  0.1300439E+00
        -11   -1    0    0    0    0  0.00000000000E+00  0.00000000000E+00  0.45593999997E+02  0.45594000000E+02  0.51100000000E-03 0. -1.
         11   -1    0    0    0    0 -0.00000000000E+00 -0.00000000000E+00 -0.45593999997E+02  0.45594000000E+02  0.51100000000E-03 0.  1.
    9900012    2    1    2    0    0 -0.20616114078E+02 -0.25288498728E+02  0.24261771457E+02  0.50528857340E+02  0.29999992372E+02 0.  0.
        -12    1    1    2    0    0  0.20616114078E+02  0.25288498728E+02 -0.24261771457E+02  0.40659142660E+02  0.00000000000E+00 0.  1.
         11    1    3    3    0    0 -0.14131994654E+02 -0.19861278759E+01  0.11042951304E+01  0.14313540611E+02  0.51100000000E-03 0. -1.
        -11    1    3    3    0    0 -0.39560413014E+00 -0.86539456136E-01  0.76053638908E+01  0.76161375958E+01  0.51100000000E-03 0.  1.
         12    1    3    3    0    0 -0.60885152941E+01 -0.23215831396E+02  0.15552112436E+02  0.28599179133E+02  0.00000000000E+00 0. -1.
</event>
<event>
 7    1  0.5005325E-012  0.5052886E+02  0.7816164E-02  0.1300439E+00
        -11   -1    0    0    0    0  0.00000000000E+00  0.00000000000E+00  0.45593999997E+02  0.45594000000E+02  0.51100000000E-03 0. -1.
         11   -1    0    0    0    0 -0.00000000000E+00 -0.00000000000E+00 -0.45593999997E+02  0.45594000000E+02  0.51100000000E-03 0.  1.
    9900012    2    1    2    0    0 -0.28351618906E+01  0.13437416346E+02  0.38269617868E+02  0.50528856468E+02  0.29999989719E+02 0.  0.
        -12    1    1    2    0    0  0.28351618906E+01 -0.13437416346E+02 -0.38269617868E+02  0.40659143532E+02  0.00000000000E+00 0.  1.
         11    1    3    3    0    0  0.49360182098E+01  0.92198102458E+01  0.22746161377E+01  0.10702478945E+02  0.51100000000E-03 0.  1.
        -11    1    3    3    0    0 -0.78498360405E+01  0.28272432912E+00  0.68660815341E+01  0.10432781738E+02  0.51100000000E-03 0. -1.
        -12    1    3    3    0    0  0.78655940086E-01  0.39348817711E+01  0.29128920196E+02  0.29393595784E+02  0.00000000000E+00 0.  1.
</event>
<event>
 7    1  0.5005325E-012  0.5052885E+02  0.7816164E-02  0.1300439E+00
        -11   -1    0    0    0    0  0.00000000000E+00  0.00000000000E+00  0.45593999997E+02  0.45594000000E+02  0.51100000000E-03 0. -1.
         11   -1    0    0    0    0 -0.00000000000E+00 -0.00000000000E+00 -0.45593999997E+02  0.45594000000E+02  0.51100000000E-03 0.  1.
    9900012    2    1    2    0    0  0.20790229743E+02 -0.25971185636E+00 -0.34940878450E+02  0.50528854782E+02  0.29999984595E+02 0.  0.
         12    1    1    2    0    0 -0.20790229743E+02  0.25971185636E+00  0.34940878450E+02  0.40659145218E+02  0.00000000000E+00 0. -1.
         11    1    3    3    0    0 -0.24093933017E+01 -0.14558689384E+00  0.18347425473E+01  0.30319386706E+01  0.51100000000E-03 0. -1.
        -11    1    3    3    0    0  0.94810240974E+01  0.88679692854E+01 -0.11358821164E+02  0.17249739583E+02  0.51100000000E-03 0.  1.
        -12    1    3    3    0    0  0.13718598948E+02 -0.89820942479E+01 -0.25416799833E+02  0.30247176528E+02  0.00000000000E+00 0.  1.
</event>
<event>
 7    1  0.5005325E-012  0.5052885E+02  0.7816164E-02  0.1300439E+00
        -11   -1    0    0    0    0  0.00000000000E+00  0.00000000000E+00  0.45593999997E+02  0.45594000000E+02  0.51100000000E-03 0. -1.
         11   -1    0    0    0    0 -0.00000000000E+00 -0.00000000000E+00 -0.45593999997E+02  0.45594000000E+02  0.51100000000E-03 0.  1.
    9900012    2    1    2    0    0  0.24769287798E+02 -0.30885260927E+01 -0.32095320619E+02  0.50528853217E+02  0.29999979840E+02 0.  0.
         12    1    1    2    0    0 -0.24769287798E+02  0.30885260927E+01  0.32095320619E+02  0.40659146783E+02  0.00000000000E+00 0. -1.
         11    1    3    3    0    0  0.36407231706E+01 -0.52235460534E+01 -0.12921002442E+02  0.14404603533E+02  0.51100000000E-03 0.  1.
        -11    1    3    3    0    0 -0.25617789131E+01  0.50760298985E+01 -0.78746062712E+01  0.97127861562E+01  0.51100000000E-03 0. -1.
        -12    1    3    3    0    0  0.23690343541E+02 -0.29410099378E+01 -0.11299711905E+02  0.26411463528E+02  0.00000000000E+00 0.  1.
</event>
<event>
 7    1  0.5005325E-012  0.5052886E+02  0.7816164E-02  0.1300439E+00
        -11   -1    0    0    0    0  0.00000000000E+00  0.00000000000E+00  0.45593999997E+02  0.45594000000E+02  0.51100000000E-03 0. -1.
         11   -1    0    0    0    0 -0.00000000000E+00 -0.00000000000E+00 -0.45593999997E+02  0.45594000000E+02  0.51100000000E-03 0.  1.
    9900012    2    1    2    0    0 -0.11847160459E+01  0.14953476513E+02 -0.37790949303E+02  0.50528857595E+02  0.29999993144E+02 0.  0.
         12    1    1    2    0    0  0.11847160459E+01 -0.14953476513E+02  0.37790949303E+02  0.40659142405E+02  0.00000000000E+00 0. -1.
         11    1    3    3    0    0 -0.10127371075E+01  0.45685800765E+01 -0.28621667486E+02  0.29001679439E+02  0.51100000000E-03 0. -1.
        -11    1    3    3    0    0  0.55321476272E+00 -0.45048845439E+01 -0.26582530686E+01  0.52598803186E+01  0.51100000000E-03 0.  1.
        -12    1    3    3    0    0 -0.72519370119E+00  0.14889780981E+02 -0.65110287486E+01  0.16267297837E+02  0.00000000000E+00 0.  1.
</event>
<event>
 7    1  0.5005325E-012  0.5052886E+02  0.7816164E-02  0.1300439E+00
        -11   -1    0    0    0    0  0.00000000000E+00  0.00000000000E+00  0.45593999997E+02  0.45594000000E+02  0.51100000000E-03 0. -1.
         11   -1    0    0    0    0 -0.00000000000E+00 -0.00000000000E+00 -0.45593999997E+02  0.45594000000E+02  0.51100000000E-03 0.  1.
    9900012    2    1    2    0    0 -0.27126758636E+01  0.39928568541E+02  0.71774996652E+01  0.50528859607E+02  0.29999999262E+02 0.  0.
        -12    1    1    2    0    0  0.27126758636E+01 -0.39928568541E+02 -0.71774996652E+01  0.40659140393E+02  0.00000000000E+00 0.  1.
         11    1    3    3    0    0 -0.95201333662E+00  0.46719718267E+01  0.63000720798E+01  0.79009213776E+01  0.51100000000E-03 0. -1.
        -11    1    3    3    0    0 -0.12729305020E+02  0.19069762702E+02  0.21807194591E+01  0.23031426213E+02  0.51100000000E-03 0.  1.
        -12    1    3    3    0    0  0.10968642493E+02  0.16186834012E+02 -0.13032918738E+01  0.19596512016E+02  0.00000000000E+00 0.  1.
</event>
<event>
 7    1  0.5005325E-012  0.5052887E+02  0.7816164E-02  0.1300439E+00
        -11   -1    0    0    0    0  0.00000000000E+00  0.00000000000E+00  0.45593999997E+02  0.45594000000E+02  0.51100000000E-03 0. -1.
         11   -1    0    0    0    0 -0.00000000000E+00 -0.00000000000E+00 -0.45593999997E+02  0.45594000000E+02  0.51100000000E-03 0.  1.
    9900012    2    1    2    0    0 -0.50321735802E+01  0.34051351316E+02 -0.21641347186E+02  0.50528865658E+02  0.30000017654E+02 0.  0.
         12    1    1    2    0    0  0.50321735802E+01 -0.34051351316E+02  0.21641347186E+02  0.40659134342E+02  0.00000000000E+00 0. -1.
         11    1    3    3    0    0  0.46511430814E+00  0.86022219770E+01 -0.37404064532E+00  0.86229032771E+01  0.51100000000E-03 0.  1.
        -11    1    3    3    0    0  0.90921778268E+01  0.87694495649E+01 -0.13337046129E+02  0.18369750761E+02  0.51100000000E-03 0. -1.
         12    1    3    3    0    0 -0.14589465715E+02  0.16679679774E+02 -0.79302604115E+01  0.23536211620E+02  0.00000000000E+00 0. -1.
</event>
<event>
 7    1  0.5005325E-012  0.5052886E+02  0.7816164E-02  0.1300439E+00
        -11   -1    0    0    0    0  0.00000000000E+00  0.00000000000E+00  0.45593999997E+02  0.45594000000E+02  0.51100000000E-03 0. -1.
         11   -1    0    0    0    0 -0.00000000000E+00 -0.00000000000E+00 -0.45593999997E+02  0.45594000000E+02  0.51100000000E-03 0.  1.
    9900012    2    1    2    0    0  0.29116566031E+02  0.92913386120E+01  0.26815330107E+02  0.50528864257E+02  0.30000013394E+02 0.  0.
        -12    1    1    2    0    0 -0.29116566031E+02 -0.92913386120E+01 -0.26815330107E+02  0.40659135743E+02  0.00000000000E+00 0.  1.
         11    1    3    3    0    0  0.14293218470E+02  0.17511251136E+02  0.12744414431E+02  0.25949183225E+02  0.51100000000E-03 0. -1.
        -11    1    3    3    0    0  0.50567862288E+01  0.23718913384E+01  0.53737765536E+01  0.77507696517E+01  0.51100000000E-03 0.  1.
        -12    1    3    3    0    0  0.97665613327E+01 -0.10591803863E+02  0.86971391223E+01  0.16828911380E+02  0.00000000000E+00 0.  1.
</event>
<event>
 7    1  0.5005325E-012  0.5052877E+02  0.7816164E-02  0.1300439E+00
        -11   -1    0    0    0    0  0.00000000000E+00  0.00000000000E+00  0.45593999997E+02  0.45594000000E+02  0.51100000000E-03 0. -1.
         11   -1    0    0    0    0 -0.00000000000E+00 -0.00000000000E+00 -0.45593999997E+02  0.45594000000E+02  0.51100000000E-03 0.  1.
    9900012    2    1    2    0    0 -0.65587460593E+01 -0.35066323307E+02 -0.19506637035E+02  0.50528768963E+02  0.29999723738E+02 0.  0.
         12    1    1    2    0    0  0.65587460593E+01  0.35066323307E+02  0.19506637035E+02  0.40659231037E+02  0.00000000000E+00 0. -1.
         11    1    3    3    0    0 -0.20193085209E+01 -0.10144311760E+02 -0.40620949229E+01  0.11112393235E+02  0.51100000000E-03 0. -1.
        -11    1    3    3    0    0 -0.34282085267E+01 -0.30423822243E+02 -0.13670807108E+02  0.33529875348E+02  0.51100000000E-03 0.  1.
         12    1    3    3    0    0 -0.11112290116E+01  0.55018106967E+01 -0.17737350037E+01  0.58865003799E+01  0.00000000000E+00 0. -1.
</event>
<event>
 7    1  0.5005325E-012  0.5052884E+02  0.7816164E-02  0.1300439E+00
        -11   -1    0    0    0    0  0.00000000000E+00  0.00000000000E+00  0.45593999997E+02  0.45594000000E+02  0.51100000000E-03 0. -1.
         11   -1    0    0    0    0 -0.00000000000E+00 -0.00000000000E+00 -0.45593999997E+02  0.45594000000E+02  0.51100000000E-03 0.  1.
    9900012    2    1    2    0    0  0.38652060730E+02  0.63560531198E+01  0.10898912165E+02  0.50528837486E+02  0.29999932023E+02 0.  0.
        -12    1    1    2    0    0 -0.38652060730E+02 -0.63560531198E+01 -0.10898912165E+02  0.40659162514E+02  0.00000000000E+00 0.  1.
         11    1    3    3    0    0  0.16967908872E+02 -0.13968800869E+00 -0.34422435123E+01  0.17314112304E+02  0.51100000000E-03 0. -1.
        -11    1    3    3    0    0  0.13754569948E+02  0.10050246574E+02  0.71078090492E+00  0.17049951918E+02  0.51100000000E-03 0.  1.
        -12    1    3    3    0    0  0.79295819104E+01 -0.35545054455E+01  0.13630374773E+02  0.16164773264E+02  0.00000000000E+00 0.  1.
</event>
<event>
 7    1  0.5005325E-012  0.5052885E+02  0.7816164E-02  0.1300439E+00
        -11   -1    0    0    0    0  0.00000000000E+00  0.00000000000E+00  0.45593999997E+02  0.45594000000E+02  0.51100000000E-03 0. -1.
         11   -1    0    0    0    0 -0.00000000000E+00 -0.00000000000E+00 -0.45593999997E+02  0.45594000000E+02  0.51100000000E-03 0.  1.
    9900012    2    1    2    0    0  0.27066732696E+02  0.18826245576E+02 -0.23793499155E+02  0.50528854124E+02  0.29999982595E+02 0.  0.
         12    1    1    2    0    0 -0.27066732696E+02 -0.18826245576E+02  0.23793499155E+02  0.40659145876E+02  0.00000000000E+00 0. -1.
         11    1    3    3    0    0  0.22738909036E+01 -0.13258659104E+01 -0.78481753674E+01  0.82778232110E+01  0.51100000000E-03 0. -1.
        -11    1    3    3    0    0  0.25132756031E+02  0.88290189115E+01 -0.15698689663E+02  0.30920152944E+02  0.51100000000E-03 0.  1.
        -12    1    3    3    0    0 -0.33991423833E+00  0.11323092575E+02 -0.24663412396E+00  0.11330877969E+02  0.00000000000E+00 0.  1.
</event>
<event>
 7    1  0.5005325E-012  0.5052886E+02  0.7816164E-02  0.1300439E+00
        -11   -1    0    0    0    0  0.00000000000E+00  0.00000000000E+00  0.45593999997E+02  0.45594000000E+02  0.51100000000E-03 0. -1.
         11   -1    0    0    0    0 -0.00000000000E+00 -0.00000000000E+00 -0.45593999997E+02  0.45594000000E+02  0.51100000000E-03 0.  1.
    9900012    2    1    2    0    0  0.24437520013E+02 -0.31820633331E+02  0.65894374558E+01  0.50528858642E+02  0.29999996330E+02 0.  0.
        -12    1    1    2    0    0 -0.24437520013E+02  0.31820633331E+02 -0.65894374558E+01  0.40659141358E+02  0.00000000000E+00 0.  1.
         11    1    3    3    0    0 -0.30544680412E+01 -0.15981061975E+01 -0.10748079740E+01  0.36109459807E+01  0.51100000000E-03 0. -1.
        -11    1    3    3    0    0  0.11477819783E+02 -0.50888198970E+01  0.11304286687E+02  0.16894476396E+02  0.51100000000E-03 0.  1.
         12    1    3    3    0    0  0.16014168271E+02 -0.25133707236E+02 -0.36400412577E+01  0.30023436266E+02  0.00000000000E+00 0. -1.
</event>
<event>
 7    1  0.5005325E-012  0.5052886E+02  0.7816164E-02  0.1300439E+00
        -11   -1    0    0    0    0  0.00000000000E+00  0.00000000000E+00  0.45593999997E+02  0.45594000000E+02  0.51100000000E-03 0. -1.
         11   -1    0    0    0    0 -0.00000000000E+00 -0.00000000000E+00 -0.45593999997E+02  0.45594000000E+02  0.51100000000E-03 0.  1.
    9900012    2    1    2    0    0 -0.66233819134E+01 -0.14793360725E+02  0.37288777453E+02  0.50528860395E+02  0.30000001656E+02 0.  0.
        -12    1    1    2    0    0  0.66233819134E+01  0.14793360725E+02 -0.37288777453E+02  0.40659139605E+02  0.00000000000E+00 0.  1.
         11    1    3    3    0    0  0.33826003859E+01  0.20286268503E+01  0.25855638567E+01  0.47161905163E+01  0.51100000000E-03 0. -1.
        -11    1    3    3    0    0 -0.69577746677E+01 -0.52374962558E+01 -0.40398502855E+00  0.87180960949E+01  0.51100000000E-03 0.  1.
         12    1    3    3    0    0 -0.30482076315E+01 -0.11584491319E+02  0.35107198625E+02  0.37094573783E+02  0.00000000000E+00 0. -1.
</event>
<event>
 7    1  0.5005325E-012  0.5052886E+02  0.7816164E-02  0.1300439E+00
        -11   -1    0    0    0    0  0.00000000000E+00  0.00000000000E+00  0.45593999997E+02  0.45594000000E+02  0.51100000000E-03 0.  1.
         11   -1    0    0    0    0 -0.00000000000E+00 -0.00000000000E+00 -0.45593999997E+02  0.45594000000E+02  0.51100000000E-03 0. -1.
    9900012    2    1    2    0    0  0.23683218551E+02  0.32436305701E+02 -0.63369585207E+01  0.50528858202E+02  0.29999994991E+02 0.  0.
        -12    1    1    2    0    0 -0.23683218551E+02 -0.32436305701E+02  0.63369585207E+01  0.40659141798E+02  0.00000000000E+00 0.  1.
         11    1    3    3    0    0  0.18459365231E+02  0.19512550654E+02  0.52486305642E+01  0.27368520618E+02  0.51100000000E-03 0. -1.
        -11    1    3    3    0    0  0.42095845695E+01  0.23736584800E+01  0.25724138528E+01  0.54746844766E+01  0.51100000000E-03 0.  1.
         12    1    3    3    0    0  0.10142687508E+01  0.10550096567E+02 -0.14158002938E+02  0.17685653108E+02  0.00000000000E+00 0. -1.
</event>
<event>
 7    1  0.5005325E-012  0.5052885E+02  0.7816164E-02  0.1300439E+00
        -11   -1    0    0    0    0  0.00000000000E+00  0.00000000000E+00  0.45593999997E+02  0.45594000000E+02  0.51100000000E-03 0. -1.
         11   -1    0    0    0    0 -0.00000000000E+00 -0.00000000000E+00 -0.45593999997E+02  0.45594000000E+02  0.51100000000E-03 0.  1.
    9900012    2    1    2    0    0  0.51748050898E+01  0.19738604879E+01  0.40280166911E+02  0.50528848762E+02  0.29999966298E+02 0.  0.
        -12    1    1    2    0    0 -0.51748050898E+01 -0.19738604879E+01 -0.40280166911E+02  0.40659151238E+02  0.00000000000E+00 0.  1.
         11    1    3    3    0    0  0.57419977521E+01 -0.14752346769E+01  0.14862935775E+02  0.16001678526E+02  0.51100000000E-03 0. -1.
        -11    1    3    3    0    0 -0.92632611519E-01  0.12275885748E+02  0.21712443172E+02  0.24942657045E+02  0.51100000000E-03 0.  1.
        -12    1    3    3    0    0 -0.47456005075E+00 -0.88267905835E+01  0.37047879636E+01  0.95845131907E+01  0.00000000000E+00 0.  1.
</event>
<event>
 7    1  0.5005325E-012  0.5052885E+02  0.7816164E-02  0.1300439E+00
        -11   -1    0    0    0    0  0.00000000000E+00  0.00000000000E+00  0.45593999997E+02  0.45594000000E+02  0.51100000000E-03 0. -1.
         11   -1    0    0    0    0 -0.00000000000E+00 -0.00000000000E+00 -0.45593999997E+02  0.45594000000E+02  0.51100000000E-03 0.  1.
    9900012    2    1    2    0    0  0.20839923932E+02 -0.11602019950E+02 -0.32928065373E+02  0.50528846226E+02  0.29999958588E+02 0.  0.
         12    1    1    2    0    0 -0.20839923932E+02  0.11602019950E+02  0.32928065373E+02  0.40659153774E+02  0.00000000000E+00 0. -1.
         11    1    3    3    0    0 -0.15861358249E+01  0.84095218559E+00  0.11718445627E+01  0.21438860449E+01  0.51100000000E-03 0. -1.
        -11    1    3    3    0    0 -0.66201479296E+00 -0.11182838332E+02 -0.10915473566E+02  0.15641026187E+02  0.51100000000E-03 0.  1.
         12    1    3    3    0    0  0.23088074550E+02 -0.12601338028E+01 -0.23184436370E+02  0.32743933994E+02  0.00000000000E+00 0. -1.
</event>
<event>
 7    1  0.5005325E-012  0.5052886E+02  0.7816164E-02  0.1300439E+00
        -11   -1    0    0    0    0  0.00000000000E+00  0.00000000000E+00  0.45593999997E+02  0.45594000000E+02  0.51100000000E-03 0. -1.
         11   -1    0    0    0    0 -0.00000000000E+00 -0.00000000000E+00 -0.45593999997E+02  0.45594000000E+02  0.51100000000E-03 0.  1.
    9900012    2    1    2    0    0 -0.23427036852E+01 -0.32869653747E+02 -0.23817292981E+02  0.50528857818E+02  0.29999993825E+02 0.  0.
         12    1    1    2    0    0  0.23427036852E+01  0.32869653747E+02  0.23817292981E+02  0.40659142182E+02  0.00000000000E+00 0. -1.
         11    1    3    3    0    0  0.69533097892E+01 -0.91567088859E+00 -0.38969243640E+01  0.80232780060E+01  0.51100000000E-03 0. -1.
        -11    1    3    3    0    0 -0.33970586314E+01 -0.11290591769E+02 -0.17188442945E+02  0.20843705069E+02  0.51100000000E-03 0.  1.
         12    1    3    3    0    0 -0.58989548430E+01 -0.20663391089E+02 -0.27319256716E+01  0.21661874744E+02  0.00000000000E+00 0. -1.
</event>
<event>
 7    1  0.5005325E-012  0.5052885E+02  0.7816164E-02  0.1300439E+00
        -11   -1    0    0    0    0  0.00000000000E+00  0.00000000000E+00  0.45593999997E+02  0.45594000000E+02  0.51100000000E-03 0.  1.
         11   -1    0    0    0    0 -0.00000000000E+00 -0.00000000000E+00 -0.45593999997E+02  0.45594000000E+02  0.51100000000E-03 0. -1.
    9900012    2    1    2    0    0 -0.23408982146E+00  0.40407060749E+02 -0.45145275729E+01  0.50528852006E+02  0.29999976156E+02 0.  0.
         12    1    1    2    0    0  0.23408982146E+00 -0.40407060749E+02  0.45145275729E+01  0.40659147994E+02  0.00000000000E+00 0. -1.
         11    1    3    3    0    0 -0.34237184342E+00 -0.17585170525E+01  0.53491038490E+00  0.18696871621E+01  0.51100000000E-03 0. -1.
        -11    1    3    3    0    0  0.11396907717E+02  0.19695867678E+02  0.10648824939E+01  0.22780489110E+02  0.51100000000E-03 0.  1.
         12    1    3    3    0    0 -0.11288625695E+02  0.22469710123E+02 -0.61143204518E+01  0.25878675733E+02  0.00000000000E+00 0. -1.
</event>
<event>
 7    1  0.5005325E-012  0.5052886E+02  0.7816164E-02  0.1300439E+00
        -11   -1    0    0    0    0  0.00000000000E+00  0.00000000000E+00  0.45593999997E+02  0.45594000000E+02  0.51100000000E-03 0. -1.
         11   -1    0    0    0    0 -0.00000000000E+00 -0.00000000000E+00 -0.45593999997E+02  0.45594000000E+02  0.51100000000E-03 0.  1.
    9900012    2    1    2    0    0 -0.20909648481E+02  0.25280732726E+02  0.24017425572E+02  0.50528861078E+02  0.30000003731E+02 0.  0.
        -12    1    1    2    0    0  0.20909648481E+02 -0.25280732726E+02 -0.24017425572E+02  0.40659138922E+02  0.00000000000E+00 0.  1.
         11    1    3    3    0    0 -0.66405525190E+01  0.83403467699E+01  0.19783708997E+02  0.22473394580E+02  0.51100000000E-03 0. -1.
        -11    1    3    3    0    0  0.10290840819E+01  0.10039240213E+02  0.49850266668E+01  0.11255925072E+02  0.51100000000E-03 0.  1.
        -12    1    3    3    0    0 -0.15298180044E+02  0.69011457433E+01 -0.75131009200E+00  0.16799541425E+02  0.00000000000E+00 0.  1.
</event>
<event>
 7    1  0.5005325E-012  0.5052885E+02  0.7816164E-02  0.1300439E+00
        -11   -1    0    0    0    0  0.00000000000E+00  0.00000000000E+00  0.45593999997E+02  0.45594000000E+02  0.51100000000E-03 0. -1.
         11   -1    0    0    0    0 -0.00000000000E+00 -0.00000000000E+00 -0.45593999997E+02  0.45594000000E+02  0.51100000000E-03 0.  1.
    9900012    2    1    2    0    0  0.27131168514E+02 -0.16324714499E+02 -0.25506266489E+02  0.50528852953E+02  0.29999979035E+02 0.  0.
         12    1    1    2    0    0 -0.27131168514E+02  0.16324714499E+02  0.25506266489E+02  0.40659147047E+02  0.00000000000E+00 0. -1.
         11    1    3    3    0    0  0.10587981524E+02  0.47459117362E+01 -0.11238367890E+02  0.16153326099E+02  0.51100000000E-03 0. -1.
        -11    1    3    3    0    0  0.89770338016E+01 -0.12762493499E+02 -0.16724495722E+02  0.22873065680E+02  0.51100000000E-03 0.  1.
        -12    1    3    3    0    0  0.75661531884E+01 -0.83081327360E+01  0.24565971228E+01  0.11502461174E+02  0.00000000000E+00 0.  1.
</event>
<event>
 7    1  0.5005325E-012  0.5052886E+02  0.7816164E-02  0.1300439E+00
        -11   -1    0    0    0    0  0.00000000000E+00  0.00000000000E+00  0.45593999997E+02  0.45594000000E+02  0.51100000000E-03 0. -1.
         11   -1    0    0    0    0 -0.00000000000E+00 -0.00000000000E+00 -0.45593999997E+02  0.45594000000E+02  0.51100000000E-03 0.  1.
    9900012    2    1    2    0    0 -0.11457302950E+02  0.15159418300E+02  0.35945618901E+02  0.50528864836E+02  0.30000015156E+02 0.  0.
        -12    1    1    2    0    0  0.11457302950E+02 -0.15159418300E+02 -0.35945618901E+02  0.40659135164E+02  0.00000000000E+00 0.  1.
         11    1    3    3    0    0 -0.70441689077E+01  0.81386908853E+00  0.16465557704E+02  0.17927556701E+02  0.51100000000E-03 0. -1.
        -11    1    3    3    0    0 -0.29021617855E+01  0.16607741372E+02  0.22770088762E+02  0.28332252981E+02  0.51100000000E-03 0.  1.
        -12    1    3    3    0    0 -0.15109722567E+01 -0.22621921607E+01 -0.32900275646E+01  0.42690551541E+01  0.00000000000E+00 0.  1.
</event>
<event>
 7    1  0.5005325E-012  0.5052881E+02  0.7816164E-02  0.1300439E+00
        -11   -1    0    0    0    0  0.00000000000E+00  0.00000000000E+00  0.45593999997E+02  0.45594000000E+02  0.51100000000E-03 0. -1.
         11   -1    0    0    0    0 -0.00000000000E+00 -0.00000000000E+00 -0.45593999997E+02  0.45594000000E+02  0.51100000000E-03 0.  1.
    9900012    2    1    2    0    0 -0.20022879242E+02  0.30326582503E+02 -0.18236023438E+02  0.50528808539E+02  0.29999844034E+02 0.  0.
         12    1    1    2    0    0  0.20022879242E+02 -0.30326582503E+02  0.18236023438E+02  0.40659191461E+02  0.00000000000E+00 0. -1.
         11    1    3    3    0    0 -0.93152775492E+01  0.23887354263E+02 -0.45768689138E+01  0.26044727275E+02  0.51100000000E-03 0. -1.
        -11    1    3    3    0    0  0.28356777386E+01  0.43737464238E+01 -0.10692821521E+00  0.52136513041E+01  0.51100000000E-03 0.  1.
        -12    1    3    3    0    0 -0.13543279431E+02  0.20654818158E+01 -0.13552226309E+02  0.19270429959E+02  0.00000000000E+00 0.  1.
</event>
<event>
 7    1  0.5005325E-012  0.5052887E+02  0.7816164E-02  0.1300439E+00
        -11   -1    0    0    0    0  0.00000000000E+00  0.00000000000E+00  0.45593999997E+02  0.45594000000E+02  0.51100000000E-03 0. -1.
         11   -1    0    0    0    0 -0.00000000000E+00 -0.00000000000E+00 -0.45593999997E+02  0.45594000000E+02  0.51100000000E-03 0.  1.
    9900012    2    1    2    0    0 -0.24839338202E+00  0.58810102282E+01 -0.40230800064E+02  0.50528865056E+02  0.30000015825E+02 0.  0.
         12    1    1    2    0    0  0.24839338202E+00 -0.58810102282E+01  0.40230800064E+02  0.40659134944E+02  0.00000000000E+00 0. -1.
         11    1    3    3    0    0  0.23370603201E+01  0.98577390127E+01 -0.84114427247E+01  0.13167734747E+02  0.51100000000E-03 0. -1.
        -11    1    3    3    0    0  0.22595441587E+01  0.33456340262E+01 -0.27088253725E+02  0.27387447800E+02  0.51100000000E-03 0.  1.
         12    1    3    3    0    0 -0.48449978608E+01 -0.73223628107E+01 -0.47311036141E+01  0.99736825100E+01  0.00000000000E+00 0. -1.
</event>
<event>
 7    1  0.5005325E-012  0.5052885E+02  0.7816164E-02  0.1300439E+00
        -11   -1    0    0    0    0  0.00000000000E+00  0.00000000000E+00  0.45593999997E+02  0.45594000000E+02  0.51100000000E-03 0. -1.
         11   -1    0    0    0    0 -0.00000000000E+00 -0.00000000000E+00 -0.45593999997E+02  0.45594000000E+02  0.51100000000E-03 0.  1.
    9900012    2    1    2    0    0  0.46948922202E+01 -0.21811128059E+02 -0.33991158342E+02  0.50528853851E+02  0.29999981764E+02 0.  0.
         12    1    1    2    0    0 -0.46948922202E+01  0.21811128059E+02  0.33991158342E+02  0.40659146149E+02  0.00000000000E+00 0. -1.
         11    1    3    3    0    0  0.50915342148E+01 -0.15504873766E+02 -0.31284967452E+02  0.35285606412E+02  0.51100000000E-03 0.  1.
        -11    1    3    3    0    0  0.45559348820E+01 -0.70492655299E+01 -0.49622682361E+01  0.97505278559E+01  0.51100000000E-03 0. -1.
         12    1    3    3    0    0 -0.49525768766E+01  0.74301123649E+00  0.22560773464E+01  0.54927195822E+01  0.00000000000E+00 0. -1.
</event>
<event>
 7    1  0.5005325E-012  0.5052888E+02  0.7816164E-02  0.1300439E+00
        -11   -1    0    0    0    0  0.00000000000E+00  0.00000000000E+00  0.45593999997E+02  0.45594000000E+02  0.51100000000E-03 0.  1.
         11   -1    0    0    0    0 -0.00000000000E+00 -0.00000000000E+00 -0.45593999997E+02  0.45594000000E+02  0.51100000000E-03 0. -1.
    9900012    2    1    2    0    0 -0.28506942932E+02  0.25870808842E+02  0.13085095791E+02  0.50528877072E+02  0.30000052347E+02 0.  0.
         12    1    1    2    0    0  0.28506942932E+02 -0.25870808842E+02 -0.13085095791E+02  0.40659122928E+02  0.00000000000E+00 0. -1.
         11    1    3    3    0    0 -0.11761085074E+02  0.14959927711E+02  0.95935887735E+01  0.21311018396E+02  0.51100000000E-03 0. -1.
        -11    1    3    3    0    0 -0.61901943412E+01 -0.43589998040E+01  0.70172281007E+01  0.10322832739E+02  0.51100000000E-03 0.  1.
         12    1    3    3    0    0 -0.10555663516E+02  0.15269880934E+02 -0.35257210832E+01  0.18895025937E+02  0.00000000000E+00 0. -1.
</event>
<event>
 7    1  0.5005325E-012  0.5052886E+02  0.7816164E-02  0.1300439E+00
        -11   -1    0    0    0    0  0.00000000000E+00  0.00000000000E+00  0.45593999997E+02  0.45594000000E+02  0.51100000000E-03 0.  1.
         11   -1    0    0    0    0 -0.00000000000E+00 -0.00000000000E+00 -0.45593999997E+02  0.45594000000E+02  0.51100000000E-03 0. -1.
    9900012    2    1    2    0    0 -0.11395725904E+02  0.36431370228E+02  0.14002071772E+02  0.50528864255E+02  0.30000013391E+02 0.  0.
        -12    1    1    2    0    0  0.11395725904E+02 -0.36431370228E+02 -0.14002071772E+02  0.40659135745E+02  0.00000000000E+00 0.  1.
         11    1    3    3    0    0  0.11128860842E+01  0.44099699121E+01 -0.31418821190E+01  0.55279086074E+01  0.51100000000E-03 0. -1.
        -11    1    3    3    0    0 -0.12292882857E+02  0.35696195213E+02  0.14387345020E+02  0.40402091760E+02  0.51100000000E-03 0.  1.
         12    1    3    3    0    0 -0.21572913157E+00 -0.36747948967E+01  0.27566088709E+01  0.45988638877E+01  0.00000000000E+00 0. -1.
</event>
<event>
 7    1  0.5005325E-012  0.5052886E+02  0.7816164E-02  0.1300439E+00
        -11   -1    0    0    0    0  0.00000000000E+00  0.00000000000E+00  0.45593999997E+02  0.45594000000E+02  0.51100000000E-03 0. -1.
         11   -1    0    0    0    0 -0.00000000000E+00 -0.00000000000E+00 -0.45593999997E+02  0.45594000000E+02  0.51100000000E-03 0.  1.
    9900012    2    1    2    0    0  0.54641587115E+01 -0.37744590560E+02 -0.14094471112E+02  0.50528864952E+02  0.30000015507E+02 0.  0.
         12    1    1    2    0    0 -0.54641587115E+01  0.37744590560E+02  0.14094471112E+02  0.40659135048E+02  0.00000000000E+00 0. -1.
         11    1    3    3    0    0 -0.22282207770E+01 -0.18436332217E+01 -0.47804380426E+01  0.55871763376E+01  0.51100000000E-03 0. -1.
        -11    1    3    3    0    0  0.11330341462E+02 -0.25111272280E+02 -0.15879492595E+02  0.31797970351E+02  0.51100000000E-03 0.  1.
        -12    1    3    3    0    0 -0.36379619730E+01 -0.10789685059E+02  0.65654595258E+01  0.13143718263E+02  0.00000000000E+00 0.  1.
</event>
<event>
 7    1  0.5005325E-012  0.5052886E+02  0.7816164E-02  0.1300439E+00
        -11   -1    0    0    0    0  0.00000000000E+00  0.00000000000E+00  0.45593999997E+02  0.45594000000E+02  0.51100000000E-03 0. -1.
         11   -1    0    0    0    0 -0.00000000000E+00 -0.00000000000E+00 -0.45593999997E+02  0.45594000000E+02  0.51100000000E-03 0.  1.
    9900012    2    1    2    0    0  0.12859776446E+00 -0.26972273948E+01 -0.40569369673E+02  0.50528864143E+02  0.30000013048E+02 0.  0.
         12    1    1    2    0    0 -0.12859776446E+00  0.26972273948E+01  0.40569369673E+02  0.40659135857E+02  0.00000000000E+00 0. -1.
         11    1    3    3    0    0  0.38119144830E+00  0.48217601352E+01 -0.22293865804E+02  0.22812521353E+02  0.51100000000E-03 0. -1.
        -11    1    3    3    0    0  0.40129185688E-01 -0.86479711731E+01 -0.22092660729E+02  0.23724979960E+02  0.51100000000E-03 0.  1.
        -12    1    3    3    0    0 -0.29272286953E+00  0.11289836431E+01  0.38171568600E+01  0.39913628297E+01  0.00000000000E+00 0.  1.
</event>
<event>
 7    1  0.5005325E-012  0.5052888E+02  0.7816164E-02  0.1300439E+00
        -11   -1    0    0    0    0  0.00000000000E+00  0.00000000000E+00  0.45593999997E+02  0.45594000000E+02  0.51100000000E-03 0.  1.
         11   -1    0    0    0    0 -0.00000000000E+00 -0.00000000000E+00 -0.45593999997E+02  0.45594000000E+02  0.51100000000E-03 0. -1.
    9900012    2    1    2    0    0 -0.31015464377E+02  0.48085955329E+01 -0.25847295719E+02  0.50528876577E+02  0.30000050843E+02 0.  0.
         12    1    1    2    0    0  0.31015464377E+02 -0.48085955329E+01  0.25847295719E+02  0.40659123423E+02  0.00000000000E+00 0. -1.
         11    1    3    3    0    0 -0.51253373285E+01 -0.92816610803E+01 -0.76420727881E+01  0.13069796934E+02  0.51100000000E-03 0. -1.
        -11    1    3    3    0    0 -0.15383850093E+02  0.32254357306E+00 -0.77414492921E+01  0.17224892320E+02  0.51100000000E-03 0.  1.
        -12    1    3    3    0    0 -0.10506276956E+02  0.13767713040E+02 -0.10463773639E+02  0.20234187323E+02  0.00000000000E+00 0.  1.
</event>
<event>
 7    1  0.5005325E-012  0.5052886E+02  0.7816164E-02  0.1300439E+00
        -11   -1    0    0    0    0  0.00000000000E+00  0.00000000000E+00  0.45593999997E+02  0.45594000000E+02  0.51100000000E-03 0. -1.
         11   -1    0    0    0    0 -0.00000000000E+00 -0.00000000000E+00 -0.45593999997E+02  0.45594000000E+02  0.51100000000E-03 0.  1.
    9900012    2    1    2    0    0  0.59102585844E+01 -0.19310834160E+02 -0.35289179067E+02  0.50528860416E+02  0.30000001721E+02 0.  0.
         12    1    1    2    0    0 -0.59102585844E+01  0.19310834160E+02  0.35289179067E+02  0.40659139584E+02  0.00000000000E+00 0. -1.
         11    1    3    3    0    0 -0.16499007079E+01  0.17824898272E+00  0.24662163682E+01  0.29725693401E+01  0.51100000000E-03 0. -1.
        -11    1    3    3    0    0 -0.45956992294E+01 -0.15043432876E+02 -0.17620427684E+02  0.23620008386E+02  0.51100000000E-03 0.  1.
        -12    1    3    3    0    0  0.12155858522E+02 -0.44456502665E+01 -0.20134967751E+02  0.23936282690E+02  0.00000000000E+00 0.  1.
</event>
<event>
 7    1  0.5005325E-012  0.5052885E+02  0.7816164E-02  0.1300439E+00
        -11   -1    0    0    0    0  0.00000000000E+00  0.00000000000E+00  0.45593999997E+02  0.45594000000E+02  0.51100000000E-03 0. -1.
         11   -1    0    0    0    0 -0.00000000000E+00 -0.00000000000E+00 -0.45593999997E+02  0.45594000000E+02  0.51100000000E-03 0.  1.
    9900012    2    1    2    0    0 -0.21550054000E+02 -0.11491906805E+02  0.32506888152E+02  0.50528849410E+02  0.29999968265E+02 0.  0.
        -12    1    1    2    0    0  0.21550054000E+02  0.11491906805E+02 -0.32506888152E+02  0.40659150590E+02  0.00000000000E+00 0.  1.
         11    1    3    3    0    0 -0.13311431053E+02 -0.11257790048E+02  0.13433699001E+02  0.22009005033E+02  0.51100000000E-03 0. -1.
        -11    1    3    3    0    0  0.55565047752E+00 -0.62509056074E+01 -0.43567361905E+00  0.62906581634E+01  0.51100000000E-03 0.  1.
         12    1    3    3    0    0 -0.87942734246E+01  0.60167888497E+01  0.19508862769E+02  0.22229186213E+02  0.00000000000E+00 0. -1.
</event>
<event>
 7    1  0.5005325E-012  0.5052887E+02  0.7816164E-02  0.1300439E+00
        -11   -1    0    0    0    0  0.00000000000E+00  0.00000000000E+00  0.45593999997E+02  0.45594000000E+02  0.51100000000E-03 0. -1.
         11   -1    0    0    0    0 -0.00000000000E+00 -0.00000000000E+00 -0.45593999997E+02  0.45594000000E+02  0.51100000000E-03 0.  1.
    9900012    2    1    2    0    0  0.20387102993E+02 -0.14908484342E+02 -0.31863270913E+02  0.50528869327E+02  0.30000028807E+02 0.  0.
         12    1    1    2    0    0 -0.20387102993E+02  0.14908484342E+02  0.31863270913E+02  0.40659130673E+02  0.00000000000E+00 0. -1.
         11    1    3    3    0    0  0.91108013564E+01 -0.12454456310E+02 -0.11302612179E+02  0.19127708322E+02  0.51100000000E-03 0. -1.
        -11    1    3    3    0    0  0.14974689307E+02 -0.44480880486E+00 -0.22285119438E+02  0.26852666969E+02  0.51100000000E-03 0.  1.
         12    1    3    3    0    0 -0.36983876709E+01 -0.20092192278E+01  0.17244607047E+01  0.45484940356E+01  0.00000000000E+00 0. -1.
</event>
<event>
 7    1  0.5005325E-012  0.5052887E+02  0.7816164E-02  0.1300439E+00
        -11   -1    0    0    0    0  0.00000000000E+00  0.00000000000E+00  0.45593999997E+02  0.45594000000E+02  0.51100000000E-03 0.  1.
         11   -1    0    0    0    0 -0.00000000000E+00 -0.00000000000E+00 -0.45593999997E+02  0.45594000000E+02  0.51100000000E-03 0. -1.
    9900012    2    1    2    0    0  0.21559714519E+02 -0.33289217593E+02 -0.89538598412E+01  0.50528869363E+02  0.30000028915E+02 0.  0.
         12    1    1    2    0    0 -0.21559714519E+02  0.33289217593E+02  0.89538598412E+01  0.40659130637E+02  0.00000000000E+00 0. -1.
         11    1    3    3    0    0  0.10485924926E+02  0.71374315915E+00 -0.29764761342E+01  0.10923527878E+02  0.51100000000E-03 0. -1.
        -11    1    3    3    0    0  0.26634444484E+01  0.10558277627E+01 -0.16150071586E+01  0.32889142552E+01  0.51100000000E-03 0.  1.
        -12    1    3    3    0    0  0.84103451440E+01 -0.35058788515E+02 -0.43623765484E+01  0.36316427230E+02  0.00000000000E+00 0.  1.
</event>
<event>
 7    1  0.5005325E-012  0.5052886E+02  0.7816164E-02  0.1300439E+00
        -11   -1    0    0    0    0  0.00000000000E+00  0.00000000000E+00  0.45593999997E+02  0.45594000000E+02  0.51100000000E-03 0. -1.
         11   -1    0    0    0    0 -0.00000000000E+00 -0.00000000000E+00 -0.45593999997E+02  0.45594000000E+02  0.51100000000E-03 0.  1.
    9900012    2    1    2    0    0  0.95275517928E+01  0.12362256298E+02 -0.37544186421E+02  0.50528861323E+02  0.30000004477E+02 0.  0.
         12    1    1    2    0    0 -0.95275517928E+01 -0.12362256298E+02  0.37544186421E+02  0.40659138677E+02  0.00000000000E+00 0. -1.
         11    1    3    3    0    0  0.77640549738E+01 -0.39813135056E+01 -0.53206862184E+01  0.10219643289E+02  0.51100000000E-03 0. -1.
        -11    1    3    3    0    0 -0.40106662325E+01  0.49114295593E+01 -0.24600764832E+02  0.25404826599E+02  0.51100000000E-03 0.  1.
         12    1    3    3    0    0  0.57741630515E+01  0.11432140244E+02 -0.76227353712E+01  0.14904391435E+02  0.00000000000E+00 0. -1.
</event>
<event>
 7    1  0.5005325E-012  0.5052886E+02  0.7816164E-02  0.1300439E+00
        -11   -1    0    0    0    0  0.00000000000E+00  0.00000000000E+00  0.45593999997E+02  0.45594000000E+02  0.51100000000E-03 0. -1.
         11   -1    0    0    0    0 -0.00000000000E+00 -0.00000000000E+00 -0.45593999997E+02  0.45594000000E+02  0.51100000000E-03 0.  1.
    9900012    2    1    2    0    0 -0.16752010580E+02 -0.18509176079E+02  0.32092770056E+02  0.50528863912E+02  0.30000012346E+02 0.  0.
        -12    1    1    2    0    0  0.16752010580E+02  0.18509176079E+02 -0.32092770056E+02  0.40659136088E+02  0.00000000000E+00 0.  1.
         11    1    3    3    0    0 -0.12844895512E+02 -0.59345495306E+01  0.19222640426E+02  0.23868810696E+02  0.51100000000E-03 0. -1.
        -11    1    3    3    0    0  0.51007650895E+01 -0.18620228749E+01  0.11349025488E+02  0.12581149132E+02  0.51100000000E-03 0.  1.
         12    1    3    3    0    0 -0.90078801575E+01 -0.10712603673E+02  0.15211041422E+01  0.14078904084E+02  0.00000000000E+00 0. -1.
</event>
<event>
 7    1  0.5005325E-012  0.5052885E+02  0.7816164E-02  0.1300439E+00
        -11   -1    0    0    0    0  0.00000000000E+00  0.00000000000E+00  0.45593999997E+02  0.45594000000E+02  0.51100000000E-03 0. -1.
         11   -1    0    0    0    0 -0.00000000000E+00 -0.00000000000E+00 -0.45593999997E+02  0.45594000000E+02  0.51100000000E-03 0.  1.
    9900012    2    1    2    0    0 -0.58684971372E+01 -0.17196466237E+01 -0.40196641094E+02  0.50528850987E+02  0.29999973061E+02 0.  0.
         12    1    1    2    0    0  0.58684971372E+01  0.17196466237E+01  0.40196641094E+02  0.40659149013E+02  0.00000000000E+00 0. -1.
         11    1    3    3    0    0 -0.18887777991E+01  0.50420675999E+01 -0.76967244558E+01  0.93930556725E+01  0.51100000000E-03 0. -1.
        -11    1    3    3    0    0 -0.12643312931E+02 -0.21434759829E+01 -0.89978065674E+01  0.15665515454E+02  0.51100000000E-03 0.  1.
        -12    1    3    3    0    0  0.86635935927E+01 -0.46182382408E+01 -0.23502110071E+02  0.25470279861E+02  0.00000000000E+00 0.  1.
</event>
<event>
 7    1  0.5005325E-012  0.5052885E+02  0.7816164E-02  0.1300439E+00
        -11   -1    0    0    0    0  0.00000000000E+00  0.00000000000E+00  0.45593999997E+02  0.45594000000E+02  0.51100000000E-03 0. -1.
         11   -1    0    0    0    0 -0.00000000000E+00 -0.00000000000E+00 -0.45593999997E+02  0.45594000000E+02  0.51100000000E-03 0.  1.
    9900012    2    1    2    0    0  0.97436390758E+01  0.25506485397E+02 -0.30127177247E+02  0.50528854552E+02  0.29999983896E+02 0.  0.
         12    1    1    2    0    0 -0.97436390758E+01 -0.25506485397E+02  0.30127177247E+02  0.40659145448E+02  0.00000000000E+00 0. -1.
         11    1    3    3    0    0 -0.34151057755E+01 -0.29228038051E+01 -0.14107742638E+01  0.47112645676E+01  0.51100000000E-03 0.  1.
        -11    1    3    3    0    0 -0.34965374671E+01  0.85774599719E+01 -0.11225878718E+02  0.14554001068E+02  0.51100000000E-03 0. -1.
        -12    1    3    3    0    0  0.16655282318E+02  0.19851829230E+02 -0.17490524265E+02  0.31263588917E+02  0.00000000000E+00 0.  1.
</event>
<event>
 7    1  0.5005325E-012  0.5052886E+02  0.7816164E-02  0.1300439E+00
        -11   -1    0    0    0    0  0.00000000000E+00  0.00000000000E+00  0.45593999997E+02  0.45594000000E+02  0.51100000000E-03 0. -1.
         11   -1    0    0    0    0 -0.00000000000E+00 -0.00000000000E+00 -0.45593999997E+02  0.45594000000E+02  0.51100000000E-03 0.  1.
    9900012    2    1    2    0    0 -0.14372553450E+02  0.80944029533E+01  0.37162826582E+02  0.50528864109E+02  0.30000012945E+02 0.  0.
        -12    1    1    2    0    0  0.14372553450E+02 -0.80944029533E+01 -0.37162826582E+02  0.40659135891E+02  0.00000000000E+00 0.  1.
         11    1    3    3    0    0 -0.55585220247E+01  0.13098355763E+01 -0.12859449396E+01  0.58537587057E+01  0.51100000000E-03 0.  1.
        -11    1    3    3    0    0 -0.15541428828E+01  0.13053703811E+02  0.21512310250E+02  0.25210990378E+02  0.51100000000E-03 0. -1.
         12    1    3    3    0    0 -0.72598885424E+01 -0.62691364345E+01  0.16936461272E+02  0.19464115025E+02  0.00000000000E+00 0. -1.
</event>
<event>
 7    1  0.5005325E-012  0.5052887E+02  0.7816164E-02  0.1300439E+00
        -11   -1    0    0    0    0  0.00000000000E+00  0.00000000000E+00  0.45593999997E+02  0.45594000000E+02  0.51100000000E-03 0. -1.
         11   -1    0    0    0    0 -0.00000000000E+00 -0.00000000000E+00 -0.45593999997E+02  0.45594000000E+02  0.51100000000E-03 0.  1.
    9900012    2    1    2    0    0  0.81376960920E+00  0.28258356080E+01  0.40552650912E+02  0.50528867399E+02  0.30000022946E+02 0.  0.
        -12    1    1    2    0    0 -0.81376960920E+00 -0.28258356080E+01 -0.40552650912E+02  0.40659132601E+02  0.00000000000E+00 0.  1.
         11    1    3    3    0    0 -0.18767915591E+01 -0.31267141070E+01  0.27581084248E+01  0.45722915488E+01  0.51100000000E-03 0. -1.
        -11    1    3    3    0    0 -0.96226321901E+01  0.65839532255E+01  0.27588315093E+02  0.29950936885E+02  0.51100000000E-03 0.  1.
        -12    1    3    3    0    0  0.12313193358E+02 -0.63140351048E+00  0.10206227394E+02  0.16005638966E+02  0.00000000000E+00 0.  1.
</event>
<event>
 7    1  0.5005325E-012  0.5052891E+02  0.7816164E-02  0.1300439E+00
        -11   -1    0    0    0    0  0.00000000000E+00  0.00000000000E+00  0.45593999997E+02  0.45594000000E+02  0.51100000000E-03 0.  1.
         11   -1    0    0    0    0 -0.00000000000E+00 -0.00000000000E+00 -0.45593999997E+02  0.45594000000E+02  0.51100000000E-03 0. -1.
    9900012    2    1    2    0    0 -0.45728679721E+01 -0.33962932287E+02  0.21880799769E+02  0.50528913813E+02  0.30000164026E+02 0.  0.
        -12    1    1    2    0    0  0.45728679721E+01  0.33962932287E+02 -0.21880799769E+02  0.40659086187E+02  0.00000000000E+00 0.  1.
         11    1    3    3    0    0 -0.10549183570E+02 -0.29085644460E+02  0.20060428628E+02  0.36873849604E+02  0.51100000000E-03 0. -1.
        -11    1    3    3    0    0  0.16477216794E+01  0.35186853502E-01  0.57752902662E+01  0.60058473813E+01  0.51100000000E-03 0.  1.
        -12    1    3    3    0    0  0.43285939181E+01 -0.49124746804E+01 -0.39549191247E+01  0.76492168276E+01  0.00000000000E+00 0.  1.
</event>
<event>
 7    1  0.5005325E-012  0.5052886E+02  0.7816164E-02  0.1300439E+00
        -11   -1    0    0    0    0  0.00000000000E+00  0.00000000000E+00  0.45593999997E+02  0.45594000000E+02  0.51100000000E-03 0. -1.
         11   -1    0    0    0    0 -0.00000000000E+00 -0.00000000000E+00 -0.45593999997E+02  0.45594000000E+02  0.51100000000E-03 0.  1.
    9900012    2    1    2    0    0 -0.32424325300E+01 -0.25378386005E+01 -0.40450110349E+02  0.50528863010E+02  0.30000009606E+02 0.  0.
         12    1    1    2    0    0  0.32424325300E+01  0.25378386005E+01  0.40450110349E+02  0.40659136990E+02  0.00000000000E+00 0. -1.
         11    1    3    3    0    0 -0.36384206579E+01 -0.82909062806E+01 -0.56171759657E+01  0.10655040963E+02  0.51100000000E-03 0. -1.
        -11    1    3    3    0    0 -0.88057187541E+01  0.10059207004E+01 -0.13325021869E+02  0.16003398617E+02  0.51100000000E-03 0.  1.
        -12    1    3    3    0    0  0.92017068820E+01  0.47471469797E+01 -0.21507912515E+02  0.23870423430E+02  0.00000000000E+00 0.  1.
</event>
<event>
 7    1  0.5005325E-012  0.5052886E+02  0.7816164E-02  0.1300439E+00
        -11   -1    0    0    0    0  0.00000000000E+00  0.00000000000E+00  0.45593999997E+02  0.45594000000E+02  0.51100000000E-03 0. -1.
         11   -1    0    0    0    0 -0.00000000000E+00 -0.00000000000E+00 -0.45593999997E+02  0.45594000000E+02  0.51100000000E-03 0.  1.
    9900012    2    1    2    0    0  0.23541959669E+02 -0.16134340530E+02 -0.28959018108E+02  0.50528861554E+02  0.30000005180E+02 0.  0.
         12    1    1    2    0    0 -0.23541959669E+02  0.16134340530E+02  0.28959018108E+02  0.40659138446E+02  0.00000000000E+00 0. -1.
         11    1    3    3    0    0  0.18669486361E+02 -0.58132167273E+01 -0.26083443735E+02  0.32598914814E+02  0.51100000000E-03 0. -1.
        -11    1    3    3    0    0  0.50494907166E+01 -0.22365295977E+01 -0.69483019112E+01  0.88757152303E+01  0.51100000000E-03 0.  1.
         12    1    3    3    0    0 -0.17701740911E+00 -0.80845942050E+01  0.40727275389E+01  0.90542315096E+01  0.00000000000E+00 0. -1.
</event>
<event>
 7    1  0.5005325E-012  0.5052887E+02  0.7816164E-02  0.1300439E+00
        -11   -1    0    0    0    0  0.00000000000E+00  0.00000000000E+00  0.45593999997E+02  0.45594000000E+02  0.51100000000E-03 0.  1.
         11   -1    0    0    0    0 -0.00000000000E+00 -0.00000000000E+00 -0.45593999997E+02  0.45594000000E+02  0.51100000000E-03 0. -1.
    9900012    2    1    2    0    0  0.22158859671E+02  0.11065719415E+02 -0.32244373240E+02  0.50528870475E+02  0.30000032294E+02 0.  0.
         12    1    1    2    0    0 -0.22158859671E+02 -0.11065719415E+02  0.32244373240E+02  0.40659129525E+02  0.00000000000E+00 0. -1.
         11    1    3    3    0    0  0.41922354682E+01  0.59210182632E+01 -0.19325695339E+01  0.75078705875E+01  0.51100000000E-03 0. -1.
        -11    1    3    3    0    0  0.19753791511E+02  0.10097150939E+02 -0.30544385747E+02  0.37750817700E+02  0.51100000000E-03 0.  1.
        -12    1    3    3    0    0 -0.17871673082E+01 -0.49524497867E+01  0.23258203997E+00  0.52701821868E+01  0.00000000000E+00 0.  1.
</event>
<event>
 7    1  0.5005325E-012  0.5052886E+02  0.7816164E-02  0.1300439E+00
        -11   -1    0    0    0    0  0.00000000000E+00  0.00000000000E+00  0.45593999997E+02  0.45594000000E+02  0.51100000000E-03 0. -1.
         11   -1    0    0    0    0 -0.00000000000E+00 -0.00000000000E+00 -0.45593999997E+02  0.45594000000E+02  0.51100000000E-03 0.  1.
    9900012    2    1    2    0    0  0.18594882397E+02 -0.18752039750E+02 -0.30915317772E+02  0.50528861801E+02  0.30000005929E+02 0.  0.
         12    1    1    2    0    0 -0.18594882397E+02  0.18752039750E+02  0.30915317772E+02  0.40659138199E+02  0.00000000000E+00 0. -1.
         11    1    3    3    0    0  0.26557351070E+01 -0.31289968197E+01  0.22137345873E+01  0.46630645654E+01  0.51100000000E-03 0. -1.
        -11    1    3    3    0    0  0.18891107039E+02 -0.18876034947E+02 -0.31199170165E+02  0.41067832177E+02  0.51100000000E-03 0.  1.
         12    1    3    3    0    0 -0.29519597490E+01  0.32529920161E+01 -0.19298821949E+01  0.47979650585E+01  0.00000000000E+00 0. -1.
</event>
<event>
 7    1  0.5005325E-012  0.5052886E+02  0.7816164E-02  0.1300439E+00
        -11   -1    0    0    0    0  0.00000000000E+00  0.00000000000E+00  0.45593999997E+02  0.45594000000E+02  0.51100000000E-03 0. -1.
         11   -1    0    0    0    0 -0.00000000000E+00 -0.00000000000E+00 -0.45593999997E+02  0.45594000000E+02  0.51100000000E-03 0.  1.
    9900012    2    1    2    0    0  0.16196485727E+02  0.30207003762E+02  0.21871823146E+02  0.50528857437E+02  0.29999992665E+02 0.  0.
        -12    1    1    2    0    0 -0.16196485727E+02 -0.30207003762E+02 -0.21871823146E+02  0.40659142563E+02  0.00000000000E+00 0.  1.
         11    1    3    3    0    0  0.12476850331E+02  0.17741856565E+02  0.24457840324E+01  0.21827210732E+02  0.51100000000E-03 0. -1.
        -11    1    3    3    0    0  0.45123178757E+01  0.12987180924E+02  0.56038679384E+01  0.14846926183E+02  0.51100000000E-03 0.  1.
        -12    1    3    3    0    0 -0.79268247960E+00 -0.52203372623E+00  0.13822171175E+02  0.13854720521E+02  0.00000000000E+00 0.  1.
</event>
<event>
 7    1  0.5005325E-012  0.5052885E+02  0.7816164E-02  0.1300439E+00
        -11   -1    0    0    0    0  0.00000000000E+00  0.00000000000E+00  0.45593999997E+02  0.45594000000E+02  0.51100000000E-03 0. -1.
         11   -1    0    0    0    0 -0.00000000000E+00 -0.00000000000E+00 -0.45593999997E+02  0.45594000000E+02  0.51100000000E-03 0.  1.
    9900012    2    1    2    0    0  0.56883113366E+01  0.62984018858E+01 -0.39763544076E+02  0.50528853555E+02  0.29999980864E+02 0.  0.
         12    1    1    2    0    0 -0.56883113366E+01 -0.62984018858E+01  0.39763544076E+02  0.40659146445E+02  0.00000000000E+00 0. -1.
         11    1    3    3    0    0  0.10813733093E+01 -0.25341819627E-01  0.24338031090E+01  0.26633453168E+01  0.51100000000E-03 0. -1.
        -11    1    3    3    0    0  0.11957508409E+02 -0.12279960724E+01 -0.23812118732E+02  0.26674088184E+02  0.51100000000E-03 0.  1.
        -12    1    3    3    0    0 -0.73505703814E+01  0.75517397779E+01 -0.18385228453E+02  0.21191420054E+02  0.00000000000E+00 0.  1.
</event>
<event>
 7    1  0.5005325E-012  0.5052886E+02  0.7816164E-02  0.1300439E+00
        -11   -1    0    0    0    0  0.00000000000E+00  0.00000000000E+00  0.45593999997E+02  0.45594000000E+02  0.51100000000E-03 0. -1.
         11   -1    0    0    0    0 -0.00000000000E+00 -0.00000000000E+00 -0.45593999997E+02  0.45594000000E+02  0.51100000000E-03 0.  1.
    9900012    2    1    2    0    0  0.27963393256E+01 -0.12668057514E+02  0.38533960942E+02  0.50528863995E+02  0.30000012599E+02 0.  0.
        -12    1    1    2    0    0 -0.27963393256E+01  0.12668057514E+02 -0.38533960942E+02  0.40659136005E+02  0.00000000000E+00 0.  1.
         11    1    3    3    0    0 -0.12301362353E+01 -0.82647831739E+01  0.13864034125E+02  0.16187381461E+02  0.51100000000E-03 0. -1.
        -11    1    3    3    0    0  0.77255884573E+01  0.43249234274E+01  0.23092245056E+02  0.24731386165E+02  0.51100000000E-03 0.  1.
         12    1    3    3    0    0 -0.36991128964E+01 -0.87281977670E+01  0.15776817605E+01  0.96100963688E+01  0.00000000000E+00 0. -1.
</event>
<event>
 7    1  0.5005325E-012  0.5052886E+02  0.7816164E-02  0.1300439E+00
        -11   -1    0    0    0    0  0.00000000000E+00  0.00000000000E+00  0.45593999997E+02  0.45594000000E+02  0.51100000000E-03 0. -1.
         11   -1    0    0    0    0 -0.00000000000E+00 -0.00000000000E+00 -0.45593999997E+02  0.45594000000E+02  0.51100000000E-03 0.  1.
    9900012    2    1    2    0    0 -0.26221015841E+02 -0.26011377480E+02 -0.17000938807E+02  0.50528863874E+02  0.30000012233E+02 0.  0.
         12    1    1    2    0    0  0.26221015841E+02  0.26011377480E+02  0.17000938807E+02  0.40659136126E+02  0.00000000000E+00 0. -1.
         11    1    3    3    0    0 -0.11184327978E+02 -0.77009557355E+01  0.45683316988E+01  0.14327022243E+02  0.51100000000E-03 0. -1.
        -11    1    3    3    0    0  0.31990275471E+01 -0.32437406611E+01 -0.72135772035E+01  0.85317833455E+01  0.51100000000E-03 0.  1.
         12    1    3    3    0    0 -0.18235715409E+02 -0.15066681084E+02 -0.14355693302E+02  0.27670058286E+02  0.00000000000E+00 0. -1.
</event>
<event>
 7    1  0.5005325E-012  0.5052890E+02  0.7816164E-02  0.1300439E+00
        -11   -1    0    0    0    0  0.00000000000E+00  0.00000000000E+00  0.45593999997E+02  0.45594000000E+02  0.51100000000E-03 0. -1.
         11   -1    0    0    0    0 -0.00000000000E+00 -0.00000000000E+00 -0.45593999997E+02  0.45594000000E+02  0.51100000000E-03 0.  1.
    9900012    2    1    2    0    0  0.17975895142E+02 -0.54317202653E+01 -0.36062802143E+02  0.50528903975E+02  0.30000134121E+02 0.  0.
         12    1    1    2    0    0 -0.17975895142E+02  0.54317202653E+01  0.36062802143E+02  0.40659096025E+02  0.00000000000E+00 0. -1.
         11    1    3    3    0    0  0.33959840192E+01  0.74602660710E+01  0.96022286740E+00  0.82528967960E+01  0.51100000000E-03 0. -1.
        -11    1    3    3    0    0  0.25207094186E+01 -0.21395742360E-01 -0.71927971108E+01  0.76217297439E+01  0.51100000000E-03 0.  1.
         12    1    3    3    0    0  0.12059201705E+02 -0.12870590594E+02 -0.29830227899E+02  0.34654277435E+02  0.00000000000E+00 0. -1.
</event>
<event>
 7    1  0.5005325E-012  0.5052887E+02  0.7816164E-02  0.1300439E+00
        -11   -1    0    0    0    0  0.00000000000E+00  0.00000000000E+00  0.45593999997E+02  0.45594000000E+02  0.51100000000E-03 0.  1.
         11   -1    0    0    0    0 -0.00000000000E+00 -0.00000000000E+00 -0.45593999997E+02  0.45594000000E+02  0.51100000000E-03 0. -1.
    9900012    2    1    2    0    0 -0.11967208674E+02  0.27473889336E+02 -0.27479738369E+02  0.50528871880E+02  0.30000036565E+02 0.  0.
         12    1    1    2    0    0  0.11967208674E+02 -0.27473889336E+02  0.27479738369E+02  0.40659128120E+02  0.00000000000E+00 0. -1.
         11    1    3    3    0    0 -0.48336454744E+01 -0.66581094130E+00  0.10261643493E+01  0.49860251017E+01  0.51100000000E-03 0. -1.
        -11    1    3    3    0    0 -0.11934149595E+02  0.99661444148E+01 -0.18772698526E+02  0.24375441971E+02  0.51100000000E-03 0.  1.
        -12    1    3    3    0    0  0.48005863956E+01  0.18173555862E+02 -0.97332041921E+01  0.21167404807E+02  0.00000000000E+00 0.  1.
</event>
<event>
 7    1  0.5005325E-012  0.5052887E+02  0.7816164E-02  0.1300439E+00
        -11   -1    0    0    0    0  0.00000000000E+00  0.00000000000E+00  0.45593999997E+02  0.45594000000E+02  0.51100000000E-03 0. -1.
         11   -1    0    0    0    0 -0.00000000000E+00 -0.00000000000E+00 -0.45593999997E+02  0.45594000000E+02  0.51100000000E-03 0.  1.
    9900012    2    1    2    0    0  0.96388606184E+01  0.11438610157E+02  0.37807606176E+02  0.50528874073E+02  0.30000043233E+02 0.  0.
        -12    1    1    2    0    0 -0.96388606184E+01 -0.11438610157E+02 -0.37807606176E+02  0.40659125927E+02  0.00000000000E+00 0.  1.
         11    1    3    3    0    0  0.44568592712E+01  0.92036965472E+01  0.78251068690E+01  0.12876487194E+02  0.51100000000E-03 0. -1.
        -11    1    3    3    0    0 -0.81177747850E+01 -0.54551439907E+00  0.17062120502E+02  0.18902693187E+02  0.51100000000E-03 0.  1.
         12    1    3    3    0    0  0.13299776132E+02  0.27804280091E+01  0.12920378805E+02  0.18749693692E+02  0.00000000000E+00 0. -1.
</event>
<event>
 7    1  0.5005325E-012  0.5052885E+02  0.7816164E-02  0.1300439E+00
        -11   -1    0    0    0    0  0.00000000000E+00  0.00000000000E+00  0.45593999997E+02  0.45594000000E+02  0.51100000000E-03 0.  1.
         11   -1    0    0    0    0 -0.00000000000E+00 -0.00000000000E+00 -0.45593999997E+02  0.45594000000E+02  0.51100000000E-03 0. -1.
    9900012    2    1    2    0    0  0.15105226306E+02 -0.34510215389E+02 -0.15298479531E+02  0.50528852150E+02  0.29999976594E+02 0.  0.
         12    1    1    2    0    0 -0.15105226306E+02  0.34510215389E+02  0.15298479531E+02  0.40659147850E+02  0.00000000000E+00 0. -1.
         11    1    3    3    0    0  0.74979662860E+01 -0.77746314330E+01 -0.72042613129E+01  0.12983288246E+02  0.51100000000E-03 0. -1.
        -11    1    3    3    0    0  0.51044450017E+01 -0.30180033773E+02 -0.10848881695E+02  0.32474421190E+02  0.51100000000E-03 0.  1.
         12    1    3    3    0    0  0.25028150182E+01  0.34444498166E+01  0.27546634775E+01  0.50711427143E+01  0.00000000000E+00 0. -1.
</event>
<event>
 7    1  0.5005325E-012  0.5052886E+02  0.7816164E-02  0.1300439E+00
        -11   -1    0    0    0    0  0.00000000000E+00  0.00000000000E+00  0.45593999997E+02  0.45594000000E+02  0.51100000000E-03 0. -1.
         11   -1    0    0    0    0 -0.00000000000E+00 -0.00000000000E+00 -0.45593999997E+02  0.45594000000E+02  0.51100000000E-03 0.  1.
    9900012    2    1    2    0    0 -0.77041393776E+01  0.24507876885E+02  0.31514691019E+02  0.50528861507E+02  0.30000005038E+02 0.  0.
        -12    1    1    2    0    0  0.77041393776E+01 -0.24507876885E+02 -0.31514691019E+02  0.40659138493E+02  0.00000000000E+00 0.  1.
         11    1    3    3    0    0 -0.10591161070E+02  0.13895241216E+02  0.22596752694E+02  0.28563327079E+02  0.51100000000E-03 0. -1.
        -11    1    3    3    0    0  0.56593997718E+01 -0.20668911884E+01  0.63148124739E+01  0.87279838338E+01  0.51100000000E-03 0.  1.
        -12    1    3    3    0    0 -0.27723780791E+01  0.12679526857E+02  0.26031258507E+01  0.13237550594E+02  0.00000000000E+00 0.  1.
</event>
<event>
 7    1  0.5005325E-012  0.5052887E+02  0.7816164E-02  0.1300439E+00
        -11   -1    0    0    0    0  0.00000000000E+00  0.00000000000E+00  0.45593999997E+02  0.45594000000E+02  0.51100000000E-03 0. -1.
         11   -1    0    0    0    0 -0.00000000000E+00 -0.00000000000E+00 -0.45593999997E+02  0.45594000000E+02  0.51100000000E-03 0.  1.
    9900012    2    1    2    0    0 -0.28649030143E+01  0.13582309559E+02  0.38216203622E+02  0.50528867920E+02  0.30000024528E+02 0.  0.
        -12    1    1    2    0    0  0.28649030143E+01 -0.13582309559E+02 -0.38216203622E+02  0.40659132080E+02  0.00000000000E+00 0.  1.
         11    1    3    3    0    0  0.31089969705E+01 -0.46811963647E+01  0.11189314850E+02  0.12521191183E+02  0.51100000000E-03 0.  1.
        -11    1    3    3    0    0 -0.41771377717E+01  0.37032321068E+01  0.21689277575E+02  0.22396141855E+02  0.51100000000E-03 0. -1.
         12    1    3    3    0    0 -0.17967622131E+01  0.14560273817E+02  0.53376111976E+01  0.15611534882E+02  0.00000000000E+00 0. -1.
</event>
<event>
 7    1  0.5005325E-012  0.5052885E+02  0.7816164E-02  0.1300439E+00
        -11   -1    0    0    0    0  0.00000000000E+00  0.00000000000E+00  0.45593999997E+02  0.45594000000E+02  0.51100000000E-03 0. -1.
         11   -1    0    0    0    0 -0.00000000000E+00 -0.00000000000E+00 -0.45593999997E+02  0.45594000000E+02  0.51100000000E-03 0.  1.
    9900012    2    1    2    0    0  0.69426430017E+00  0.18960669678E+02  0.35960773859E+02  0.50528852762E+02  0.29999978455E+02 0.  0.
        -12    1    1    2    0    0 -0.69426430017E+00 -0.18960669678E+02 -0.35960773859E+02  0.40659147238E+02  0.00000000000E+00 0.  1.
         11    1    3    3    0    0 -0.64495669869E+01  0.14434081750E+02  0.33640590381E+02  0.37170269728E+02  0.51100000000E-03 0. -1.
        -11    1    3    3    0    0  0.34278208288E+01  0.58438156983E+01  0.51461495234E+01  0.85078195050E+01  0.51100000000E-03 0.  1.
        -12    1    3    3    0    0  0.37160104583E+01 -0.13172277694E+01 -0.28259660449E+01  0.48507635285E+01  0.00000000000E+00 0.  1.
</event>
<event>
 7    1  0.5005325E-012  0.5052885E+02  0.7816164E-02  0.1300439E+00
        -11   -1    0    0    0    0  0.00000000000E+00  0.00000000000E+00  0.45593999997E+02  0.45594000000E+02  0.51100000000E-03 0. -1.
         11   -1    0    0    0    0 -0.00000000000E+00 -0.00000000000E+00 -0.45593999997E+02  0.45594000000E+02  0.51100000000E-03 0.  1.
    9900012    2    1    2    0    0 -0.32178117205E+02 -0.36850492076E+00 -0.24851542635E+02  0.50528853500E+02  0.29999980700E+02 0.  0.
         12    1    1    2    0    0  0.32178117205E+02  0.36850492076E+00  0.24851542635E+02  0.40659146500E+02  0.00000000000E+00 0. -1.
         11    1    3    3    0    0 -0.88010106928E+00  0.36430349675E+01  0.48971985687E-01  0.37481569048E+01  0.51100000000E-03 0. -1.
        -11    1    3    3    0    0 -0.24240057794E+02  0.79542410350E+01 -0.18323539434E+02  0.31410228429E+02  0.51100000000E-03 0.  1.
        -12    1    3    3    0    0 -0.70579583412E+01 -0.11965780923E+02 -0.65769751868E+01  0.15370468166E+02  0.00000000000E+00 0.  1.
</event>
<event>
 7    1  0.5005325E-012  0.5052885E+02  0.7816164E-02  0.1300439E+00
        -11   -1    0    0    0    0  0.00000000000E+00  0.00000000000E+00  0.45593999997E+02  0.45594000000E+02  0.51100000000E-03 0. -1.
         11   -1    0    0    0    0 -0.00000000000E+00 -0.00000000000E+00 -0.45593999997E+02  0.45594000000E+02  0.51100000000E-03 0.  1.
    9900012    2    1    2    0    0  0.33334708609E+02  0.30621156787E+01  0.23077842578E+02  0.50528853815E+02  0.29999981656E+02 0.  0.
        -12    1    1    2    0    0 -0.33334708609E+02 -0.30621156787E+01 -0.23077842578E+02  0.40659146185E+02  0.00000000000E+00 0.  1.
         11    1    3    3    0    0 -0.58485437412E+00 -0.49001171554E+00  0.10042448164E+02  0.10071391737E+02  0.51100000000E-03 0.  1.
        -11    1    3    3    0    0  0.51592700636E+01  0.45534393826E+00  0.10140257534E+02  0.11386405439E+02  0.51100000000E-03 0. -1.
        -12    1    3    3    0    0  0.28760292919E+02  0.30967834560E+01  0.28951368790E+01  0.29071056639E+02  0.00000000000E+00 0.  1.
</event>
<event>
 7    1  0.5005325E-012  0.5052887E+02  0.7816164E-02  0.1300439E+00
        -11   -1    0    0    0    0  0.00000000000E+00  0.00000000000E+00  0.45593999997E+02  0.45594000000E+02  0.51100000000E-03 0. -1.
         11   -1    0    0    0    0 -0.00000000000E+00 -0.00000000000E+00 -0.45593999997E+02  0.45594000000E+02  0.51100000000E-03 0.  1.
    9900012    2    1    2    0    0 -0.15881617742E+02  0.83531101777E+01 -0.36485132960E+02  0.50528866231E+02  0.30000019395E+02 0.  0.
         12    1    1    2    0    0  0.15881617742E+02 -0.83531101777E+01  0.36485132960E+02  0.40659133769E+02  0.00000000000E+00 0. -1.
         11    1    3    3    0    0 -0.10167940339E+02 -0.58263241551E+01 -0.13201420302E+02  0.17652494503E+02  0.51100000000E-03 0. -1.
        -11    1    3    3    0    0 -0.26532531633E-01  0.68249096595E+01 -0.22539015455E+02  0.23549677572E+02  0.51100000000E-03 0.  1.
         12    1    3    3    0    0 -0.56871448710E+01  0.73545246733E+01 -0.74469720305E+00  0.93266941560E+01  0.00000000000E+00 0. -1.
</event>
<event>
 7    1  0.5005325E-012  0.5052887E+02  0.7816164E-02  0.1300439E+00
        -11   -1    0    0    0    0  0.00000000000E+00  0.00000000000E+00  0.45593999997E+02  0.45594000000E+02  0.51100000000E-03 0. -1.
         11   -1    0    0    0    0 -0.00000000000E+00 -0.00000000000E+00 -0.45593999997E+02  0.45594000000E+02  0.51100000000E-03 0.  1.
    9900012    2    1    2    0    0 -0.12306468695E+02 -0.40745696977E+01  0.38537172125E+02  0.50528869103E+02  0.30000028125E+02 0.  0.
        -12    1    1    2    0    0  0.12306468695E+02  0.40745696977E+01 -0.38537172125E+02  0.40659130897E+02  0.00000000000E+00 0.  1.
         11    1    3    3    0    0 -0.18197372864E+01 -0.47136365923E+00  0.17837909825E+02  0.17936684606E+02  0.51100000000E-03 0. -1.
        -11    1    3    3    0    0  0.77098356275E+00  0.39496309334E+01  0.18408723912E+02  0.18843436960E+02  0.51100000000E-03 0.  1.
        -12    1    3    3    0    0 -0.11257714971E+02 -0.75528369719E+01  0.22905383883E+01  0.13748747536E+02  0.00000000000E+00 0.  1.
</event>
<event>
 7    1  0.5005325E-012  0.5052886E+02  0.7816164E-02  0.1300439E+00
        -11   -1    0    0    0    0  0.00000000000E+00  0.00000000000E+00  0.45593999997E+02  0.45594000000E+02  0.51100000000E-03 0. -1.
         11   -1    0    0    0    0 -0.00000000000E+00 -0.00000000000E+00 -0.45593999997E+02  0.45594000000E+02  0.51100000000E-03 0.  1.
    9900012    2    1    2    0    0  0.15460734738E+02 -0.34965545056E+02  0.13839875526E+02  0.50528858171E+02  0.29999994896E+02 0.  0.
        -12    1    1    2    0    0 -0.15460734738E+02  0.34965545056E+02 -0.13839875526E+02  0.40659141829E+02  0.00000000000E+00 0.  1.
         11    1    3    3    0    0  0.15995818533E+02 -0.16821620565E+02  0.19771336125E+02  0.30491619527E+02  0.51100000000E-03 0. -1.
        -11    1    3    3    0    0  0.24807085027E+01 -0.45690569823E+01 -0.10850134759E+01  0.53110687142E+01  0.51100000000E-03 0.  1.
         12    1    3    3    0    0 -0.30157922975E+01 -0.13574867509E+02 -0.48464471229E+01  0.14726169929E+02  0.00000000000E+00 0. -1.
</event>
<event>
 7    1  0.5005325E-012  0.5052886E+02  0.7816164E-02  0.1300439E+00
        -11   -1    0    0    0    0  0.00000000000E+00  0.00000000000E+00  0.45593999997E+02  0.45594000000E+02  0.51100000000E-03 0. -1.
         11   -1    0    0    0    0 -0.00000000000E+00 -0.00000000000E+00 -0.45593999997E+02  0.45594000000E+02  0.51100000000E-03 0.  1.
    9900012    2    1    2    0    0  0.39990521409E+02 -0.26988871055E+01 -0.68293475151E+01  0.50528858572E+02  0.29999996117E+02 0.  0.
         12    1    1    2    0    0 -0.39990521409E+02  0.26988871055E+01  0.68293475151E+01  0.40659141428E+02  0.00000000000E+00 0. -1.
         11    1    3    3    0    0  0.53939043573E+01  0.51979678461E+01 -0.34408566723E+01  0.82433348133E+01  0.51100000000E-03 0. -1.
        -11    1    3    3    0    0  0.33249403955E+02 -0.15140275830E+01 -0.80796019234E+01  0.34250476061E+02  0.51100000000E-03 0.  1.
         12    1    3    3    0    0  0.13472130966E+01 -0.63828273687E+01  0.46911110805E+01  0.80350476984E+01  0.00000000000E+00 0. -1.
</event>
<event>
 7    1  0.5005325E-012  0.5052886E+02  0.7816164E-02  0.1300439E+00
        -11   -1    0    0    0    0  0.00000000000E+00  0.00000000000E+00  0.45593999997E+02  0.45594000000E+02  0.51100000000E-03 0. -1.
         11   -1    0    0    0    0 -0.00000000000E+00 -0.00000000000E+00 -0.45593999997E+02  0.45594000000E+02  0.51100000000E-03 0.  1.
    9900012    2    1    2    0    0  0.36879785081E+02  0.12014867952E+02 -0.12193870245E+02  0.50528855013E+02  0.29999985299E+02 0.  0.
         12    1    1    2    0    0 -0.36879785081E+02 -0.12014867952E+02  0.12193870245E+02  0.40659144987E+02  0.00000000000E+00 0. -1.
         11    1    3    3    0    0  0.17391800806E+02 -0.18779789500E+01 -0.37120458138E+01  0.17882416632E+02  0.51100000000E-03 0.  1.
        -11    1    3    3    0    0  0.13853491622E+02  0.91286772591E+01 -0.15323074662E+02  0.22584255489E+02  0.51100000000E-03 0. -1.
         12    1    3    3    0    0  0.56344926527E+01  0.47641696429E+01  0.68412502312E+01  0.10062182893E+02  0.00000000000E+00 0. -1.
</event>
<event>
 7    1  0.5005325E-012  0.5052887E+02  0.7816164E-02  0.1300439E+00
        -11   -1    0    0    0    0  0.00000000000E+00  0.00000000000E+00  0.45593999997E+02  0.45594000000E+02  0.51100000000E-03 0. -1.
         11   -1    0    0    0    0 -0.00000000000E+00 -0.00000000000E+00 -0.45593999997E+02  0.45594000000E+02  0.51100000000E-03 0.  1.
    9900012    2    1    2    0    0 -0.55258972461E+01 -0.25365781935E+02  0.31292279558E+02  0.50528865805E+02  0.30000018101E+02 0.  0.
        -12    1    1    2    0    0  0.55258972461E+01  0.25365781935E+02 -0.31292279558E+02  0.40659134195E+02  0.00000000000E+00 0.  1.
         11    1    3    3    0    0 -0.36748704535E+01 -0.14032999610E+01  0.20410977099E+01  0.44317043847E+01  0.51100000000E-03 0. -1.
        -11    1    3    3    0    0  0.62088904135E+01 -0.24950255358E+02  0.15199345268E+02  0.29867803057E+02  0.51100000000E-03 0.  1.
         12    1    3    3    0    0 -0.80599172061E+01  0.98777338373E+00  0.14051836580E+02  0.16229358363E+02  0.00000000000E+00 0. -1.
</event>
<event>
 7    1  0.5005325E-012  0.5052887E+02  0.7816164E-02  0.1300439E+00
        -11   -1    0    0    0    0  0.00000000000E+00  0.00000000000E+00  0.45593999997E+02  0.45594000000E+02  0.51100000000E-03 0. -1.
         11   -1    0    0    0    0 -0.00000000000E+00 -0.00000000000E+00 -0.45593999997E+02  0.45594000000E+02  0.51100000000E-03 0.  1.
    9900012    2    1    2    0    0 -0.20513934336E+02  0.17978938514E+01 -0.35058676319E+02  0.50528871757E+02  0.30000036194E+02 0.  0.
         12    1    1    2    0    0  0.20513934336E+02 -0.17978938514E+01  0.35058676319E+02  0.40659128243E+02  0.00000000000E+00 0. -1.
         11    1    3    3    0    0  0.57857478680E+00 -0.47470562958E+01 -0.12729833800E+02  0.13598454364E+02  0.51100000000E-03 0. -1.
        -11    1    3    3    0    0 -0.14206760451E+02  0.90056977184E+00 -0.23968591448E+02  0.27877167085E+02  0.51100000000E-03 0.  1.
        -12    1    3    3    0    0 -0.68857486716E+01  0.56443803753E+01  0.16397489294E+01  0.90532503081E+01  0.00000000000E+00 0.  1.
</event>
<event>
 7    1  0.5005325E-012  0.5052886E+02  0.7816164E-02  0.1300439E+00
        -11   -1    0    0    0    0  0.00000000000E+00  0.00000000000E+00  0.45593999997E+02  0.45594000000E+02  0.51100000000E-03 0. -1.
         11   -1    0    0    0    0 -0.00000000000E+00 -0.00000000000E+00 -0.45593999997E+02  0.45594000000E+02  0.51100000000E-03 0.  1.
    9900012    2    1    2    0    0 -0.26326116352E+02  0.25667799744E-01 -0.30985492224E+02  0.50528858477E+02  0.29999995828E+02 0.  0.
         12    1    1    2    0    0  0.26326116352E+02 -0.25667799744E-01  0.30985492224E+02  0.40659141523E+02  0.00000000000E+00 0. -1.
         11    1    3    3    0    0 -0.59531509731E+01 -0.80422696226E+01 -0.54199344848E+01  0.11379534141E+02  0.51100000000E-03 0. -1.
        -11    1    3    3    0    0 -0.19834468862E+02 -0.10996811545E+01 -0.20951988556E+02  0.28872154031E+02  0.51100000000E-03 0.  1.
         12    1    3    3    0    0 -0.53849651667E+00  0.91676185768E+01 -0.46135691830E+01  0.10277170305E+02  0.00000000000E+00 0. -1.
</event>
<event>
 7    1  0.5005325E-012  0.5052886E+02  0.7816164E-02  0.1300439E+00
        -11   -1    0    0    0    0  0.00000000000E+00  0.00000000000E+00  0.45593999997E+02  0.45594000000E+02  0.51100000000E-03 0.  1.
         11   -1    0    0    0    0 -0.00000000000E+00 -0.00000000000E+00 -0.45593999997E+02  0.45594000000E+02  0.51100000000E-03 0. -1.
    9900012    2    1    2    0    0 -0.38980546118E+02 -0.81003911033E+00  0.11533722745E+02  0.50528857124E+02  0.29999991715E+02 0.  0.
        -12    1    1    2    0    0  0.38980546118E+02  0.81003911033E+00 -0.11533722745E+02  0.40659142876E+02  0.00000000000E+00 0.  1.
         11    1    3    3    0    0 -0.50875979980E+01 -0.12319955655E+00  0.23655679831E+01  0.56120177890E+01  0.51100000000E-03 0. -1.
        -11    1    3    3    0    0  0.19963133307E+01 -0.34015922521E+01 -0.48852563281E+01  0.62786803085E+01  0.51100000000E-03 0.  1.
        -12    1    3    3    0    0 -0.35889261451E+02  0.27147526983E+01  0.14053411090E+02  0.38638159027E+02  0.00000000000E+00 0.  1.
</event>
<event>
 7    1  0.5005325E-012  0.5052886E+02  0.7816164E-02  0.1300439E+00
        -11   -1    0    0    0    0  0.00000000000E+00  0.00000000000E+00  0.45593999997E+02  0.45594000000E+02  0.51100000000E-03 0. -1.
         11   -1    0    0    0    0 -0.00000000000E+00 -0.00000000000E+00 -0.45593999997E+02  0.45594000000E+02  0.51100000000E-03 0.  1.
    9900012    2    1    2    0    0  0.79165732196E+01  0.20758797493E+02  0.34052396502E+02  0.50528861883E+02  0.30000006179E+02 0.  0.
        -12    1    1    2    0    0 -0.79165732196E+01 -0.20758797493E+02 -0.34052396502E+02  0.40659138117E+02  0.00000000000E+00 0.  1.
         11    1    3    3    0    0  0.41534158346E+01  0.62569181208E+01  0.11729471877E+02  0.13927684597E+02  0.51100000000E-03 0. -1.
        -11    1    3    3    0    0  0.98895662606E+01  0.28651239597E+01  0.20994454512E+02  0.23383318341E+02  0.51100000000E-03 0.  1.
        -12    1    3    3    0    0 -0.61264088756E+01  0.11636755412E+02  0.13284701135E+01  0.13217858944E+02  0.00000000000E+00 0.  1.
</event>
<event>
 7    1  0.5005325E-012  0.5052887E+02  0.7816164E-02  0.1300439E+00
        -11   -1    0    0    0    0  0.00000000000E+00  0.00000000000E+00  0.45593999997E+02  0.45594000000E+02  0.51100000000E-03 0. -1.
         11   -1    0    0    0    0 -0.00000000000E+00 -0.00000000000E+00 -0.45593999997E+02  0.45594000000E+02  0.51100000000E-03 0.  1.
    9900012    2    1    2    0    0 -0.78560796823E+01 -0.73592394185E+01  0.39208274945E+02  0.50528865517E+02  0.30000017224E+02 0.  0.
        -12    1    1    2    0    0  0.78560796823E+01  0.73592394185E+01 -0.39208274945E+02  0.40659134483E+02  0.00000000000E+00 0.  1.
         11    1    3    3    0    0 -0.11631977256E+02 -0.12099379361E+02  0.20399725745E+02  0.26416787967E+02  0.51100000000E-03 0. -1.
        -11    1    3    3    0    0  0.75211381573E+01 -0.15163284336E+01  0.81027023714E+01  0.11158877949E+02  0.51100000000E-03 0.  1.
        -12    1    3    3    0    0 -0.37452405837E+01  0.62564683758E+01  0.10705846829E+02  0.12953199600E+02  0.00000000000E+00 0.  1.
</event>
<event>
 7    1  0.5005325E-012  0.5052886E+02  0.7816164E-02  0.1300439E+00
        -11   -1    0    0    0    0  0.00000000000E+00  0.00000000000E+00  0.45593999997E+02  0.45594000000E+02  0.51100000000E-03 0. -1.
         11   -1    0    0    0    0 -0.00000000000E+00 -0.00000000000E+00 -0.45593999997E+02  0.45594000000E+02  0.51100000000E-03 0.  1.
    9900012    2    1    2    0    0  0.17473684339E+02  0.34739410049E+02 -0.11874753730E+02  0.50528855505E+02  0.29999986792E+02 0.  0.
         12    1    1    2    0    0 -0.17473684339E+02 -0.34739410049E+02  0.11874753730E+02  0.40659144495E+02  0.00000000000E+00 0. -1.
         11    1    3    3    0    0  0.11039361640E+02  0.19097065399E+01  0.74080346876E+00  0.11227790278E+02  0.51100000000E-03 0. -1.
        -11    1    3    3    0    0  0.81173119182E+01  0.16918934923E+02 -0.13746345496E+02  0.23261623470E+02  0.51100000000E-03 0.  1.
         12    1    3    3    0    0 -0.16829892185E+01  0.15910768586E+02  0.11307882973E+01  0.16039441757E+02  0.00000000000E+00 0. -1.
</event>
<event>
 7    1  0.5005325E-012  0.5052886E+02  0.7816164E-02  0.1300439E+00
        -11   -1    0    0    0    0  0.00000000000E+00  0.00000000000E+00  0.45593999997E+02  0.45594000000E+02  0.51100000000E-03 0. -1.
         11   -1    0    0    0    0 -0.00000000000E+00 -0.00000000000E+00 -0.45593999997E+02  0.45594000000E+02  0.51100000000E-03 0.  1.
    9900012    2    1    2    0    0  0.26466138580E+01  0.37104368787E+02 -0.16414225907E+02  0.50528861297E+02  0.30000004397E+02 0.  0.
         12    1    1    2    0    0 -0.26466138580E+01 -0.37104368787E+02  0.16414225907E+02  0.40659138703E+02  0.00000000000E+00 0. -1.
         11    1    3    3    0    0 -0.10025114900E+02  0.12470923304E+02 -0.29460190374E+01  0.16269784425E+02  0.51100000000E-03 0. -1.
        -11    1    3    3    0    0  0.28073932906E+01  0.18284163508E+02 -0.12826890959E+02  0.22510469214E+02  0.51100000000E-03 0.  1.
        -12    1    3    3    0    0  0.98643354672E+01  0.63492819741E+01 -0.64131591032E+00  0.11748607658E+02  0.00000000000E+00 0.  1.
</event>
<event>
 7    1  0.5005325E-012  0.5052885E+02  0.7816164E-02  0.1300439E+00
        -11   -1    0    0    0    0  0.00000000000E+00  0.00000000000E+00  0.45593999997E+02  0.45594000000E+02  0.51100000000E-03 0. -1.
         11   -1    0    0    0    0 -0.00000000000E+00 -0.00000000000E+00 -0.45593999997E+02  0.45594000000E+02  0.51100000000E-03 0.  1.
    9900012    2    1    2    0    0 -0.14989299768E+02  0.18027358740E+02 -0.33218999211E+02  0.50528847534E+02  0.29999962565E+02 0.  0.
         12    1    1    2    0    0  0.14989299768E+02 -0.18027358740E+02  0.33218999211E+02  0.40659152466E+02  0.00000000000E+00 0. -1.
         11    1    3    3    0    0  0.26584525913E+01  0.45971352308E+00 -0.40720767302E+00  0.27284656958E+01  0.51100000000E-03 0. -1.
        -11    1    3    3    0    0 -0.10345493583E+02  0.91434861358E+01 -0.71828469166E+00  0.13825646797E+02  0.51100000000E-03 0.  1.
         12    1    3    3    0    0 -0.73022587764E+01  0.84241590810E+01 -0.32093506846E+02  0.33974735042E+02  0.00000000000E+00 0. -1.
</event>
<event>
 7    1  0.5005325E-012  0.5052886E+02  0.7816164E-02  0.1300439E+00
        -11   -1    0    0    0    0  0.00000000000E+00  0.00000000000E+00  0.45593999997E+02  0.45594000000E+02  0.51100000000E-03 0. -1.
         11   -1    0    0    0    0 -0.00000000000E+00 -0.00000000000E+00 -0.45593999997E+02  0.45594000000E+02  0.51100000000E-03 0.  1.
    9900012    2    1    2    0    0  0.13973332461E+02 -0.12360161307E+02 -0.36126698747E+02  0.50528856257E+02  0.29999989078E+02 0.  0.
         12    1    1    2    0    0 -0.13973332461E+02  0.12360161307E+02  0.36126698747E+02  0.40659143743E+02  0.00000000000E+00 0. -1.
         11    1    3    3    0    0 -0.26220746935E+01  0.21518795112E+01  0.77560001587E+00  0.34795713493E+01  0.51100000000E-03 0. -1.
        -11    1    3    3    0    0  0.16977471711E+02 -0.34362774608E+01 -0.27575413689E+02  0.32564489691E+02  0.51100000000E-03 0.  1.
        -12    1    3    3    0    0 -0.38206455622E+00 -0.11075763357E+02 -0.93268850738E+01  0.14484795216E+02  0.00000000000E+00 0.  1.
</event>
<event>
 7    1  0.5005325E-012  0.5052885E+02  0.7816164E-02  0.1300439E+00
        -11   -1    0    0    0    0  0.00000000000E+00  0.00000000000E+00  0.45593999997E+02  0.45594000000E+02  0.51100000000E-03 0. -1.
         11   -1    0    0    0    0 -0.00000000000E+00 -0.00000000000E+00 -0.45593999997E+02  0.45594000000E+02  0.51100000000E-03 0.  1.
    9900012    2    1    2    0    0 -0.72879244875E+01  0.27912900001E+01 -0.39903146387E+02  0.50528853000E+02  0.29999979177E+02 0.  0.
         12    1    1    2    0    0  0.72879244875E+01 -0.27912900001E+01  0.39903146387E+02  0.40659147000E+02  0.00000000000E+00 0. -1.
         11    1    3    3    0    0  0.12749543011E+01 -0.37344287160E+01 -0.33298481613E+02  0.33531482882E+02  0.51100000000E-03 0.  1.
        -11    1    3    3    0    0 -0.51877180473E+01  0.70577022459E+00 -0.85219370424E+01  0.10001696924E+02  0.51100000000E-03 0. -1.
         12    1    3    3    0    0 -0.33751607413E+01  0.58199484915E+01  0.19172722680E+01  0.69956731929E+01  0.00000000000E+00 0. -1.
</event>
<event>
 7    1  0.5005325E-012  0.5052886E+02  0.7816164E-02  0.1300439E+00
        -11   -1    0    0    0    0  0.00000000000E+00  0.00000000000E+00  0.45593999997E+02  0.45594000000E+02  0.51100000000E-03 0. -1.
         11   -1    0    0    0    0 -0.00000000000E+00 -0.00000000000E+00 -0.45593999997E+02  0.45594000000E+02  0.51100000000E-03 0.  1.
    9900012    2    1    2    0    0 -0.32615332399E+02  0.10375583903E+02  0.21948875215E+02  0.50528858690E+02  0.29999996474E+02 0.  0.
        -12    1    1    2    0    0  0.32615332399E+02 -0.10375583903E+02 -0.21948875215E+02  0.40659141310E+02  0.00000000000E+00 0.  1.
         11    1    3    3    0    0 -0.20380659952E+02 -0.27984628341E+01  0.19257561349E+02  0.28179005725E+02  0.51100000000E-03 0. -1.
        -11    1    3    3    0    0 -0.62339535191E+01  0.99266765365E+00 -0.37265647564E+01  0.73304059024E+01  0.51100000000E-03 0.  1.
         12    1    3    3    0    0 -0.60007189284E+01  0.12181379084E+02  0.64178786226E+01  0.15019447062E+02  0.00000000000E+00 0. -1.
</event>
<event>
 7    1  0.5005325E-012  0.5052888E+02  0.7816164E-02  0.1300439E+00
        -11   -1    0    0    0    0  0.00000000000E+00  0.00000000000E+00  0.45593999997E+02  0.45594000000E+02  0.51100000000E-03 0. -1.
         11   -1    0    0    0    0 -0.00000000000E+00 -0.00000000000E+00 -0.45593999997E+02  0.45594000000E+02  0.51100000000E-03 0.  1.
    9900012    2    1    2    0    0 -0.15342867544E+02  0.31874694475E+02 -0.20044056881E+02  0.50528881114E+02  0.30000064634E+02 0.  0.
         12    1    1    2    0    0  0.15342867544E+02 -0.31874694475E+02  0.20044056881E+02  0.40659118886E+02  0.00000000000E+00 0. -1.
         11    1    3    3    0    0  0.27051704336E+01  0.42074660887E+01  0.25426997874E+01  0.56112423252E+01  0.51100000000E-03 0. -1.
        -11    1    3    3    0    0  0.24417174415E+01  0.10153533048E+02 -0.12129019560E+02  0.16005290787E+02  0.51100000000E-03 0.  1.
         12    1    3    3    0    0 -0.20489755419E+02  0.17513695339E+02 -0.10457737108E+02  0.28912348002E+02  0.00000000000E+00 0. -1.
</event>
<event>
 7    1  0.5005325E-012  0.5052887E+02  0.7816164E-02  0.1300439E+00
        -11   -1    0    0    0    0  0.00000000000E+00  0.00000000000E+00  0.45593999997E+02  0.45594000000E+02  0.51100000000E-03 0. -1.
         11   -1    0    0    0    0 -0.00000000000E+00 -0.00000000000E+00 -0.45593999997E+02  0.45594000000E+02  0.51100000000E-03 0.  1.
    9900012    2    1    2    0    0  0.13737967624E+02 -0.45486784478E+01  0.37996616431E+02  0.50528867075E+02  0.30000021960E+02 0.  0.
        -12    1    1    2    0    0 -0.13737967624E+02  0.45486784478E+01 -0.37996616431E+02  0.40659132925E+02  0.00000000000E+00 0.  1.
         11    1    3    3    0    0 -0.27114127258E+00  0.47116787005E+01  0.80604914975E+01  0.93405009078E+01  0.51100000000E-03 0. -1.
        -11    1    3    3    0    0  0.11589451973E+02  0.17247385929E+01  0.31452279863E+01  0.12131882772E+02  0.51100000000E-03 0.  1.
         12    1    3    3    0    0  0.24196569241E+01 -0.10985095741E+02  0.26790896947E+02  0.29056483395E+02  0.00000000000E+00 0. -1.
</event>
<event>
 7    1  0.5005325E-012  0.5052885E+02  0.7816164E-02  0.1300439E+00
        -11   -1    0    0    0    0  0.00000000000E+00  0.00000000000E+00  0.45593999997E+02  0.45594000000E+02  0.51100000000E-03 0. -1.
         11   -1    0    0    0    0 -0.00000000000E+00 -0.00000000000E+00 -0.45593999997E+02  0.45594000000E+02  0.51100000000E-03 0.  1.
    9900012    2    1    2    0    0  0.11697169451E+02  0.20810349733E+02  0.32913093625E+02  0.50528853905E+02  0.29999981930E+02 0.  0.
        -12    1    1    2    0    0 -0.11697169451E+02 -0.20810349733E+02 -0.32913093625E+02  0.40659146095E+02  0.00000000000E+00 0.  1.
         11    1    3    3    0    0  0.15949902099E+02  0.15102801511E+02  0.32384609512E+02  0.39131278077E+02  0.51100000000E-03 0. -1.
        -11    1    3    3    0    0 -0.40521536545E+01  0.72882495670E+01  0.26449362688E+01  0.87483838004E+01  0.51100000000E-03 0.  1.
        -12    1    3    3    0    0 -0.20057899371E+00 -0.15807013445E+01 -0.21164521557E+01  0.26491920279E+01  0.00000000000E+00 0.  1.
</event>
<event>
 7    1  0.5005325E-012  0.5052886E+02  0.7816164E-02  0.1300439E+00
        -11   -1    0    0    0    0  0.00000000000E+00  0.00000000000E+00  0.45593999997E+02  0.45594000000E+02  0.51100000000E-03 0. -1.
         11   -1    0    0    0    0 -0.00000000000E+00 -0.00000000000E+00 -0.45593999997E+02  0.45594000000E+02  0.51100000000E-03 0.  1.
    9900012    2    1    2    0    0  0.23631281025E+02 -0.70999957876E+01 -0.32315919199E+02  0.50528855681E+02  0.29999987328E+02 0.  0.
         12    1    1    2    0    0 -0.23631281025E+02  0.70999957876E+01  0.32315919199E+02  0.40659144319E+02  0.00000000000E+00 0. -1.
         11    1    3    3    0    0  0.11187251497E+01 -0.10395854804E+02 -0.12086427125E+02  0.15981460007E+02  0.51100000000E-03 0. -1.
        -11    1    3    3    0    0  0.15393434289E+02 -0.11431301257E+01 -0.34933958053E+01  0.15826192852E+02  0.51100000000E-03 0.  1.
         12    1    3    3    0    0  0.71191215870E+01  0.44389891417E+01 -0.16736096269E+02  0.18721202822E+02  0.00000000000E+00 0. -1.
</event>
<event>
 7    1  0.5005325E-012  0.5052886E+02  0.7816164E-02  0.1300439E+00
        -11   -1    0    0    0    0  0.00000000000E+00  0.00000000000E+00  0.45593999997E+02  0.45594000000E+02  0.51100000000E-03 0. -1.
         11   -1    0    0    0    0 -0.00000000000E+00 -0.00000000000E+00 -0.45593999997E+02  0.45594000000E+02  0.51100000000E-03 0.  1.
    9900012    2    1    2    0    0 -0.61538368760E+01  0.26567274722E+02 -0.30157520227E+02  0.50528858092E+02  0.29999994658E+02 0.  0.
         12    1    1    2    0    0  0.61538368760E+01 -0.26567274722E+02  0.30157520227E+02  0.40659141908E+02  0.00000000000E+00 0. -1.
         11    1    3    3    0    0 -0.57410735866E+01 -0.22394722127E+01 -0.95340753483E+01  0.11352257693E+02  0.51100000000E-03 0.  1.
        -11    1    3    3    0    0 -0.27294178199E+01 -0.85412757290E+00 -0.45145826015E+01  0.53442222889E+01  0.51100000000E-03 0. -1.
        -12    1    3    3    0    0  0.23166545305E+01  0.29660874508E+02 -0.16108862277E+02  0.33832378111E+02  0.00000000000E+00 0.  1.
</event>
<event>
 7    1  0.5005325E-012  0.5052886E+02  0.7816164E-02  0.1300439E+00
        -11   -1    0    0    0    0  0.00000000000E+00  0.00000000000E+00  0.45593999997E+02  0.45594000000E+02  0.51100000000E-03 0. -1.
         11   -1    0    0    0    0 -0.00000000000E+00 -0.00000000000E+00 -0.45593999997E+02  0.45594000000E+02  0.51100000000E-03 0.  1.
    9900012    2    1    2    0    0  0.19619631139E+02  0.22201210881E+02  0.27844965710E+02  0.50528858273E+02  0.29999995205E+02 0.  0.
        -12    1    1    2    0    0 -0.19619631139E+02 -0.22201210881E+02 -0.27844965710E+02  0.40659141727E+02  0.00000000000E+00 0.  1.
         11    1    3    3    0    0  0.67121688798E+01 -0.30843849191E+01  0.54013161745E+00  0.74066445727E+01  0.51100000000E-03 0. -1.
        -11    1    3    3    0    0 -0.22213388539E+01 -0.41223293150E+00  0.61729574180E+01  0.65734074755E+01  0.51100000000E-03 0.  1.
         12    1    3    3    0    0  0.15128801113E+02  0.25697828732E+02  0.21131876674E+02  0.36548806224E+02  0.00000000000E+00 0. -1.
</event>
<event>
 7    1  0.5005325E-012  0.5052885E+02  0.7816164E-02  0.1300439E+00
        -11   -1    0    0    0    0  0.00000000000E+00  0.00000000000E+00  0.45593999997E+02  0.45594000000E+02  0.51100000000E-03 0. -1.
         11   -1    0    0    0    0 -0.00000000000E+00 -0.00000000000E+00 -0.45593999997E+02  0.45594000000E+02  0.51100000000E-03 0.  1.
    9900012    2    1    2    0    0  0.40912191480E+01 -0.96681555340E+01 -0.39280471016E+02  0.50528847171E+02  0.29999961462E+02 0.  0.
         12    1    1    2    0    0 -0.40912191480E+01  0.96681555340E+01  0.39280471016E+02  0.40659152829E+02  0.00000000000E+00 0. -1.
         11    1    3    3    0    0  0.10726289038E+02 -0.45586262630E+01 -0.15540786438E+02  0.19425508830E+02  0.51100000000E-03 0.  1.
        -11    1    3    3    0    0  0.16325972720E+01 -0.10101279698E+02 -0.99867334584E+01  0.14298114240E+02  0.51100000000E-03 0. -1.
        -12    1    3    3    0    0 -0.82676671617E+01  0.49917504269E+01 -0.13752951119E+02  0.16805224102E+02  0.00000000000E+00 0.  1.
</event>
<event>
 7    1  0.5005325E-012  0.5052889E+02  0.7816164E-02  0.1300439E+00
        -11   -1    0    0    0    0  0.00000000000E+00  0.00000000000E+00  0.45593999997E+02  0.45594000000E+02  0.51100000000E-03 0. -1.
         11   -1    0    0    0    0 -0.00000000000E+00 -0.00000000000E+00 -0.45593999997E+02  0.45594000000E+02  0.51100000000E-03 0.  1.
    9900012    2    1    2    0    0  0.14191777022E+02 -0.15508240359E+02 -0.34803039181E+02  0.50528885520E+02  0.30000078025E+02 0.  0.
         12    1    1    2    0    0 -0.14191777022E+02  0.15508240359E+02  0.34803039181E+02  0.40659114480E+02  0.00000000000E+00 0. -1.
         11    1    3    3    0    0 -0.26262524538E+01 -0.31002472599E+01 -0.10414367519E+02  0.11178899146E+02  0.51100000000E-03 0. -1.
        -11    1    3    3    0    0  0.83466253466E+01 -0.18006029121E+02 -0.11484362975E+02  0.22929758668E+02  0.51100000000E-03 0.  1.
         12    1    3    3    0    0  0.84714041288E+01  0.55980360218E+01 -0.12904308687E+02  0.16420227706E+02  0.00000000000E+00 0. -1.
</event>
<event>
 7    1  0.5005325E-012  0.5052884E+02  0.7816164E-02  0.1300439E+00
        -11   -1    0    0    0    0  0.00000000000E+00  0.00000000000E+00  0.45593999997E+02  0.45594000000E+02  0.51100000000E-03 0. -1.
         11   -1    0    0    0    0 -0.00000000000E+00 -0.00000000000E+00 -0.45593999997E+02  0.45594000000E+02  0.51100000000E-03 0.  1.
    9900012    2    1    2    0    0 -0.18234631570E+02 -0.13397261289E+02 -0.33781339328E+02  0.50528840081E+02  0.29999939910E+02 0.  0.
         12    1    1    2    0    0  0.18234631570E+02  0.13397261289E+02  0.33781339328E+02  0.40659159919E+02  0.00000000000E+00 0. -1.
         11    1    3    3    0    0 -0.29694311930E+01 -0.80833751764E+01 -0.19942864358E+01  0.88394374539E+01  0.51100000000E-03 0. -1.
        -11    1    3    3    0    0 -0.62450712631E+01 -0.68072981958E+01 -0.31187417905E+02  0.32526839066E+02  0.51100000000E-03 0.  1.
         12    1    3    3    0    0 -0.90201291141E+01  0.14934120830E+01 -0.59963498696E+00  0.91625635606E+01  0.00000000000E+00 0. -1.
</event>
<event>
 7    1  0.5005325E-012  0.5052889E+02  0.7816164E-02  0.1300439E+00
        -11   -1    0    0    0    0  0.00000000000E+00  0.00000000000E+00  0.45593999997E+02  0.45594000000E+02  0.51100000000E-03 0. -1.
         11   -1    0    0    0    0 -0.00000000000E+00 -0.00000000000E+00 -0.45593999997E+02  0.45594000000E+02  0.51100000000E-03 0.  1.
    9900012    2    1    2    0    0 -0.32078147094E+02 -0.15231642983E+02 -0.19802855927E+02  0.50528885747E+02  0.30000078717E+02 0.  0.
         12    1    1    2    0    0  0.32078147094E+02  0.15231642983E+02  0.19802855927E+02  0.40659114253E+02  0.00000000000E+00 0. -1.
         11    1    3    3    0    0  0.54065225637E+00 -0.45821878066E+01 -0.18062276978E+01  0.49549176295E+01  0.51100000000E-03 0. -1.
        -11    1    3    3    0    0 -0.22930565702E+02 -0.46524944271E+01  0.10034771070E+01  0.23419297905E+02  0.51100000000E-03 0.  1.
         12    1    3    3    0    0 -0.96882336491E+01 -0.59969607489E+01 -0.19000105336E+02  0.22154670213E+02  0.00000000000E+00 0. -1.
</event>
<event>
 7    1  0.5005325E-012  0.5052886E+02  0.7816164E-02  0.1300439E+00
        -11   -1    0    0    0    0  0.00000000000E+00  0.00000000000E+00  0.45593999997E+02  0.45594000000E+02  0.51100000000E-03 0. -1.
         11   -1    0    0    0    0 -0.00000000000E+00 -0.00000000000E+00 -0.45593999997E+02  0.45594000000E+02  0.51100000000E-03 0.  1.
    9900012    2    1    2    0    0 -0.35945428161E+02  0.94872813402E+01  0.16464604958E+02  0.50528861675E+02  0.30000005547E+02 0.  0.
        -12    1    1    2    0    0  0.35945428161E+02 -0.94872813402E+01 -0.16464604958E+02  0.40659138325E+02  0.00000000000E+00 0.  1.
         11    1    3    3    0    0 -0.20439483635E+02  0.15643613628E+01  0.13986671243E+02  0.24816258592E+02  0.51100000000E-03 0. -1.
        -11    1    3    3    0    0 -0.99046027837E+01  0.13654860631E+02  0.44767645611E+01  0.17452730341E+02  0.51100000000E-03 0.  1.
         12    1    3    3    0    0 -0.56013417421E+01 -0.57319406536E+01 -0.19988308462E+01  0.82598727424E+01  0.00000000000E+00 0. -1.
</event>
<event>
 7    1  0.5005325E-012  0.5052887E+02  0.7816164E-02  0.1300439E+00
        -11   -1    0    0    0    0  0.00000000000E+00  0.00000000000E+00  0.45593999997E+02  0.45594000000E+02  0.51100000000E-03 0. -1.
         11   -1    0    0    0    0 -0.00000000000E+00 -0.00000000000E+00 -0.45593999997E+02  0.45594000000E+02  0.51100000000E-03 0.  1.
    9900012    2    1    2    0    0 -0.80146006026E+00  0.64755237607E+01  0.40132159012E+02  0.50528869007E+02  0.30000027832E+02 0.  0.
        -12    1    1    2    0    0  0.80146006026E+00 -0.64755237607E+01 -0.40132159012E+02  0.40659130993E+02  0.00000000000E+00 0.  1.
         11    1    3    3    0    0 -0.77815796453E+01  0.60917138870E+01  0.85183286845E+01  0.13046987533E+02  0.51100000000E-03 0. -1.
        -11    1    3    3    0    0  0.50230464617E+01  0.26667585325E+01 -0.38353841485E-01  0.56871845500E+01  0.51100000000E-03 0.  1.
         12    1    3    3    0    0  0.19570731233E+01 -0.22829486587E+01  0.31652184169E+02  0.31794696923E+02  0.00000000000E+00 0. -1.
</event>
<event>
 7    1  0.5005325E-012  0.5052886E+02  0.7816164E-02  0.1300439E+00
        -11   -1    0    0    0    0  0.00000000000E+00  0.00000000000E+00  0.45593999997E+02  0.45594000000E+02  0.51100000000E-03 0.  1.
         11   -1    0    0    0    0 -0.00000000000E+00 -0.00000000000E+00 -0.45593999997E+02  0.45594000000E+02  0.51100000000E-03 0. -1.
    9900012    2    1    2    0    0 -0.40327073695E+02  0.38415005073E+00  0.51716005354E+01  0.50528857164E+02  0.29999991835E+02 0.  0.
        -12    1    1    2    0    0  0.40327073695E+02 -0.38415005073E+00 -0.51716005354E+01  0.40659142836E+02  0.00000000000E+00 0.  1.
         11    1    3    3    0    0 -0.23207280712E+01  0.23663368535E+01 -0.58786031927E+01  0.67485779719E+01  0.51100000000E-03 0. -1.
        -11    1    3    3    0    0 -0.22923783847E+02 -0.15580560120E+01 -0.29892868474E+01  0.23170309461E+02  0.51100000000E-03 0.  1.
        -12    1    3    3    0    0 -0.15082561777E+02 -0.42413079077E+00  0.14039490575E+02  0.20609969731E+02  0.00000000000E+00 0.  1.
</event>
<event>
 7    1  0.5005325E-012  0.5052886E+02  0.7816164E-02  0.1300439E+00
        -11   -1    0    0    0    0  0.00000000000E+00  0.00000000000E+00  0.45593999997E+02  0.45594000000E+02  0.51100000000E-03 0. -1.
         11   -1    0    0    0    0 -0.00000000000E+00 -0.00000000000E+00 -0.45593999997E+02  0.45594000000E+02  0.51100000000E-03 0.  1.
    9900012    2    1    2    0    0  0.11096664503E+02 -0.73966768892E+01 -0.38409875430E+02  0.50528864217E+02  0.30000013273E+02 0.  0.
         12    1    1    2    0    0 -0.11096664503E+02  0.73966768892E+01  0.38409875430E+02  0.40659135783E+02  0.00000000000E+00 0. -1.
         11    1    3    3    0    0  0.32986969734E+01 -0.70392924152E+01 -0.13065975948E+02  0.15203708993E+02  0.51100000000E-03 0. -1.
        -11    1    3    3    0    0 -0.28074071581E+01 -0.69771687757E+01 -0.52955727823E+00  0.75394197554E+01  0.51100000000E-03 0.  1.
        -12    1    3    3    0    0  0.10605374688E+02  0.66197843017E+01 -0.24814342204E+02  0.27785735468E+02  0.00000000000E+00 0.  1.
</event>
<event>
 7    1  0.5005325E-012  0.5052886E+02  0.7816164E-02  0.1300439E+00
        -11   -1    0    0    0    0  0.00000000000E+00  0.00000000000E+00  0.45593999997E+02  0.45594000000E+02  0.51100000000E-03 0. -1.
         11   -1    0    0    0    0 -0.00000000000E+00 -0.00000000000E+00 -0.45593999997E+02  0.45594000000E+02  0.51100000000E-03 0.  1.
    9900012    2    1    2    0    0  0.17237429824E+02 -0.27047807405E+02  0.24989061235E+02  0.50528855226E+02  0.29999985944E+02 0.  0.
        -12    1    1    2    0    0 -0.17237429824E+02  0.27047807405E+02 -0.24989061235E+02  0.40659144774E+02  0.00000000000E+00 0.  1.
         11    1    3    3    0    0  0.79802237340E+01 -0.20057912193E+02  0.19921611812E+02  0.29374724336E+02  0.51100000000E-03 0. -1.
        -11    1    3    3    0    0 -0.47976172531E+01 -0.33510802055E+01  0.26970080378E+01  0.64436575381E+01  0.51100000000E-03 0.  1.
         12    1    3    3    0    0  0.14054823343E+02 -0.36388150067E+01  0.23704413850E+01  0.14710473351E+02  0.00000000000E+00 0. -1.
</event>
<event>
 7    1  0.5005325E-012  0.5052886E+02  0.7816164E-02  0.1300439E+00
        -11   -1    0    0    0    0  0.00000000000E+00  0.00000000000E+00  0.45593999997E+02  0.45594000000E+02  0.51100000000E-03 0. -1.
         11   -1    0    0    0    0 -0.00000000000E+00 -0.00000000000E+00 -0.45593999997E+02  0.45594000000E+02  0.51100000000E-03 0.  1.
    9900012    2    1    2    0    0  0.23792006027E+02  0.30994743756E+02  0.11244212985E+02  0.50528855679E+02  0.29999987321E+02 0.  0.
        -12    1    1    2    0    0 -0.23792006027E+02 -0.30994743756E+02 -0.11244212985E+02  0.40659144321E+02  0.00000000000E+00 0.  1.
         11    1    3    3    0    0  0.65772179755E+01  0.19649150146E+01 -0.33757537605E+01  0.76496013637E+01  0.51100000000E-03 0.  1.
        -11    1    3    3    0    0  0.17451069244E+02  0.28410888044E+02  0.19049436795E+02  0.38400513274E+02  0.51100000000E-03 0. -1.
         12    1    3    3    0    0 -0.23628119292E+00  0.61894069742E+00 -0.44294700498E+01  0.44787410409E+01  0.00000000000E+00 0. -1.
</event>
<event>
 7    1  0.5005325E-012  0.5052886E+02  0.7816164E-02  0.1300439E+00
        -11   -1    0    0    0    0  0.00000000000E+00  0.00000000000E+00  0.45593999997E+02  0.45594000000E+02  0.51100000000E-03 0. -1.
         11   -1    0    0    0    0 -0.00000000000E+00 -0.00000000000E+00 -0.45593999997E+02  0.45594000000E+02  0.51100000000E-03 0.  1.
    9900012    2    1    2    0    0 -0.16674701480E+01 -0.28869872041E+02 -0.28581740243E+02  0.50528857810E+02  0.29999993798E+02 0.  0.
         12    1    1    2    0    0  0.16674701480E+01  0.28869872041E+02  0.28581740243E+02  0.40659142190E+02  0.00000000000E+00 0. -1.
         11    1    3    3    0    0  0.14888098346E+01  0.32630045728E+01 -0.36156811577E+01  0.50928286896E+01  0.51100000000E-03 0. -1.
        -11    1    3    3    0    0 -0.89559431205E+01 -0.51168458182E+01 -0.62031988556E+01  0.12036224683E+02  0.51100000000E-03 0.  1.
        -12    1    3    3    0    0  0.57996631379E+01 -0.27016030796E+02 -0.18762860229E+02  0.33399804437E+02  0.00000000000E+00 0.  1.
</event>
<event>
 7    1  0.5005325E-012  0.5052884E+02  0.7816164E-02  0.1300439E+00
        -11   -1    0    0    0    0  0.00000000000E+00  0.00000000000E+00  0.45593999997E+02  0.45594000000E+02  0.51100000000E-03 0. -1.
         11   -1    0    0    0    0 -0.00000000000E+00 -0.00000000000E+00 -0.45593999997E+02  0.45594000000E+02  0.51100000000E-03 0.  1.
    9900012    2    1    2    0    0  0.81009539744E+01 -0.21570646279E+02 -0.33499979909E+02  0.50528844942E+02  0.29999954685E+02 0.  0.
         12    1    1    2    0    0 -0.81009539744E+01  0.21570646279E+02  0.33499979909E+02  0.40659155058E+02  0.00000000000E+00 0. -1.
         11    1    3    3    0    0 -0.30653703744E+01 -0.58091691285E+01 -0.41757848720E+00  0.65815889836E+01  0.51100000000E-03 0. -1.
        -11    1    3    3    0    0 -0.44069682711E+01 -0.92806799660E+01 -0.20408228349E+02  0.22848373565E+02  0.51100000000E-03 0.  1.
         12    1    3    3    0    0  0.15573292620E+02 -0.64807971841E+01 -0.12674173073E+02  0.21098882393E+02  0.00000000000E+00 0. -1.
</event>
<event>
 7    1  0.5005325E-012  0.5052886E+02  0.7816164E-02  0.1300439E+00
        -11   -1    0    0    0    0  0.00000000000E+00  0.00000000000E+00  0.45593999997E+02  0.45594000000E+02  0.51100000000E-03 0. -1.
         11   -1    0    0    0    0 -0.00000000000E+00 -0.00000000000E+00 -0.45593999997E+02  0.45594000000E+02  0.51100000000E-03 0.  1.
    9900012    2    1    2    0    0 -0.32667359688E+01 -0.24442105176E+02  0.32327657425E+02  0.50528861988E+02  0.30000006498E+02 0.  0.
        -12    1    1    2    0    0  0.32667359688E+01  0.24442105176E+02 -0.32327657425E+02  0.40659138012E+02  0.00000000000E+00 0.  1.
         11    1    3    3    0    0 -0.83596529869E+00 -0.16101137054E+02  0.76009022249E+01  0.17824678603E+02  0.51100000000E-03 0. -1.
        -11    1    3    3    0    0 -0.20539880552E+01 -0.75243837290E+01 -0.15985294185E+00  0.78013313387E+01  0.51100000000E-03 0.  1.
         12    1    3    3    0    0 -0.37678261491E+00 -0.81658439319E+00  0.24886608142E+02  0.24902852046E+02  0.00000000000E+00 0. -1.
</event>
<event>
 7    1  0.5005325E-012  0.5052887E+02  0.7816164E-02  0.1300439E+00
        -11   -1    0    0    0    0  0.00000000000E+00  0.00000000000E+00  0.45593999997E+02  0.45594000000E+02  0.51100000000E-03 0. -1.
         11   -1    0    0    0    0 -0.00000000000E+00 -0.00000000000E+00 -0.45593999997E+02  0.45594000000E+02  0.51100000000E-03 0.  1.
    9900012    2    1    2    0    0  0.21798661700E+02  0.22133800974E+02  0.26231237819E+02  0.50528872673E+02  0.30000038978E+02 0.  0.
        -12    1    1    2    0    0 -0.21798661700E+02 -0.22133800974E+02 -0.26231237819E+02  0.40659127327E+02  0.00000000000E+00 0.  1.
         11    1    3    3    0    0  0.21003219360E+01  0.12364102661E+02  0.69664769719E+01  0.14346225584E+02  0.51100000000E-03 0. -1.
        -11    1    3    3    0    0  0.11178174888E+02  0.62644470446E+01 -0.20362234172E+01  0.12974632815E+02  0.51100000000E-03 0.  1.
         12    1    3    3    0    0  0.85201648756E+01  0.35052512679E+01  0.21300984264E+02  0.23208014275E+02  0.00000000000E+00 0. -1.
</event>
<event>
 7    1  0.5005325E-012  0.5052884E+02  0.7816164E-02  0.1300439E+00
        -11   -1    0    0    0    0  0.00000000000E+00  0.00000000000E+00  0.45593999997E+02  0.45594000000E+02  0.51100000000E-03 0. -1.
         11   -1    0    0    0    0 -0.00000000000E+00 -0.00000000000E+00 -0.45593999997E+02  0.45594000000E+02  0.51100000000E-03 0.  1.
    9900012    2    1    2    0    0 -0.12270192441E+02  0.25022770333E+02 -0.29605248095E+02  0.50528839010E+02  0.29999936654E+02 0.  0.
         12    1    1    2    0    0  0.12270192441E+02 -0.25022770333E+02  0.29605248095E+02  0.40659160990E+02  0.00000000000E+00 0. -1.
         11    1    3    3    0    0 -0.57656805895E+01  0.20165898869E+02 -0.90108358632E+01  0.22827652378E+02  0.51100000000E-03 0. -1.
        -11    1    3    3    0    0 -0.82763522026E+01  0.95411037059E+01 -0.18191648724E+02  0.22146483903E+02  0.51100000000E-03 0.  1.
        -12    1    3    3    0    0  0.17718403514E+01 -0.46842322422E+01 -0.24027635075E+01  0.55547027286E+01  0.00000000000E+00 0.  1.
</event>
<event>
 7    1  0.5005325E-012  0.5052886E+02  0.7816164E-02  0.1300439E+00
        -11   -1    0    0    0    0  0.00000000000E+00  0.00000000000E+00  0.45593999997E+02  0.45594000000E+02  0.51100000000E-03 0. -1.
         11   -1    0    0    0    0 -0.00000000000E+00 -0.00000000000E+00 -0.45593999997E+02  0.45594000000E+02  0.51100000000E-03 0.  1.
    9900012    2    1    2    0    0  0.18061124415E+02 -0.25404167128E+02  0.26107280438E+02  0.50528855709E+02  0.29999987412E+02 0.  0.
        -12    1    1    2    0    0 -0.18061124415E+02  0.25404167128E+02 -0.26107280438E+02  0.40659144291E+02  0.00000000000E+00 0.  1.
         11    1    3    3    0    0  0.54865929758E+01 -0.14589018172E+02 -0.17264415918E+01  0.15681924453E+02  0.51100000000E-03 0. -1.
        -11    1    3    3    0    0 -0.25408684410E+01 -0.36693971158E+00  0.28860662306E+01  0.38626462089E+01  0.51100000000E-03 0.  1.
         12    1    3    3    0    0  0.15115399880E+02 -0.10448209244E+02  0.24947655799E+02  0.30984285047E+02  0.00000000000E+00 0. -1.
</event>
<event>
 7    1  0.5005325E-012  0.5052886E+02  0.7816164E-02  0.1300439E+00
        -11   -1    0    0    0    0  0.00000000000E+00  0.00000000000E+00  0.45593999997E+02  0.45594000000E+02  0.51100000000E-03 0. -1.
         11   -1    0    0    0    0 -0.00000000000E+00 -0.00000000000E+00 -0.45593999997E+02  0.45594000000E+02  0.51100000000E-03 0.  1.
    9900012    2    1    2    0    0  0.31584050128E+02 -0.21005562436E+02 -0.14641700467E+02  0.50528864885E+02  0.30000015305E+02 0.  0.
         12    1    1    2    0    0 -0.31584050128E+02  0.21005562436E+02  0.14641700467E+02  0.40659135115E+02  0.00000000000E+00 0. -1.
         11    1    3    3    0    0  0.12974879195E+02 -0.14652972960E+02 -0.21279290828E+01  0.19687183373E+02  0.51100000000E-03 0. -1.
        -11    1    3    3    0    0  0.38020726126E+01  0.58575548135E+00  0.53721405909E+01  0.66074776144E+01  0.51100000000E-03 0.  1.
        -12    1    3    3    0    0  0.14807098320E+02 -0.69383449570E+01 -0.17885911975E+02  0.24234203898E+02  0.00000000000E+00 0.  1.
</event>
<event>
 7    1  0.5005325E-012  0.5052885E+02  0.7816164E-02  0.1300439E+00
        -11   -1    0    0    0    0  0.00000000000E+00  0.00000000000E+00  0.45593999997E+02  0.45594000000E+02  0.51100000000E-03 0. -1.
         11   -1    0    0    0    0 -0.00000000000E+00 -0.00000000000E+00 -0.45593999997E+02  0.45594000000E+02  0.51100000000E-03 0.  1.
    9900012    2    1    2    0    0 -0.14827020995E+02  0.27850208232E+02  0.25645498577E+02  0.50528852844E+02  0.29999978706E+02 0.  0.
        -12    1    1    2    0    0  0.14827020995E+02 -0.27850208232E+02 -0.25645498577E+02  0.40659147156E+02  0.00000000000E+00 0.  1.
         11    1    3    3    0    0 -0.21679935725E+01  0.22711949607E+02  0.14509843510E+02  0.27038276758E+02  0.51100000000E-03 0. -1.
        -11    1    3    3    0    0 -0.90692713069E+00  0.25196439892E+01 -0.35839170340E+01  0.44738779845E+01  0.51100000000E-03 0.  1.
        -12    1    3    3    0    0 -0.11752100292E+02  0.26186146365E+01  0.14719572101E+02  0.19016698102E+02  0.00000000000E+00 0.  1.
</event>
<event>
 7    1  0.5005325E-012  0.5052886E+02  0.7816164E-02  0.1300439E+00
        -11   -1    0    0    0    0  0.00000000000E+00  0.00000000000E+00  0.45593999997E+02  0.45594000000E+02  0.51100000000E-03 0. -1.
         11   -1    0    0    0    0 -0.00000000000E+00 -0.00000000000E+00 -0.45593999997E+02  0.45594000000E+02  0.51100000000E-03 0.  1.
    9900012    2    1    2    0    0  0.24508881216E+02 -0.88735129638E+00  0.32429821689E+02  0.50528856064E+02  0.29999988493E+02 0.  0.
        -12    1    1    2    0    0 -0.24508881216E+02  0.88735129638E+00 -0.32429821689E+02  0.40659143936E+02  0.00000000000E+00 0.  1.
         11    1    3    3    0    0  0.12923865978E+02  0.36753064409E+01  0.72571659295E+01  0.15270908514E+02  0.51100000000E-03 0. -1.
        -11    1    3    3    0    0 -0.11528370779E+01 -0.10083939156E+02  0.67469926589E+01  0.12187566304E+02  0.51100000000E-03 0.  1.
         12    1    3    3    0    0  0.12737852316E+02  0.55212814185E+01  0.18425663101E+02  0.23070381246E+02  0.00000000000E+00 0. -1.
</event>
<event>
 7    1  0.5005325E-012  0.5052886E+02  0.7816164E-02  0.1300439E+00
        -11   -1    0    0    0    0  0.00000000000E+00  0.00000000000E+00  0.45593999997E+02  0.45594000000E+02  0.51100000000E-03 0. -1.
         11   -1    0    0    0    0 -0.00000000000E+00 -0.00000000000E+00 -0.45593999997E+02  0.45594000000E+02  0.51100000000E-03 0.  1.
    9900012    2    1    2    0    0  0.14175482820E+02 -0.28655505701E+02 -0.25121373376E+02  0.50528859325E+02  0.29999998404E+02 0.  0.
         12    1    1    2    0    0 -0.14175482820E+02  0.28655505701E+02  0.25121373376E+02  0.40659140675E+02  0.00000000000E+00 0. -1.
         11    1    3    3    0    0  0.74658951188E+01 -0.10502454162E+02 -0.12981353348E+02  0.18290890310E+02  0.51100000000E-03 0. -1.
        -11    1    3    3    0    0  0.59334128211E+01 -0.15757616327E+02 -0.18728552819E+02  0.25184649114E+02  0.51100000000E-03 0.  1.
         12    1    3    3    0    0  0.77617487980E+00 -0.23954352115E+01  0.65885327903E+01  0.70533199010E+01  0.00000000000E+00 0. -1.
</event>
<event>
 7    1  0.5005325E-012  0.5052887E+02  0.7816164E-02  0.1300439E+00
        -11   -1    0    0    0    0  0.00000000000E+00  0.00000000000E+00  0.45593999997E+02  0.45594000000E+02  0.51100000000E-03 0. -1.
         11   -1    0    0    0    0 -0.00000000000E+00 -0.00000000000E+00 -0.45593999997E+02  0.45594000000E+02  0.51100000000E-03 0.  1.
    9900012    2    1    2    0    0  0.49672549257E+01  0.19048097473E+02  0.35576137737E+02  0.50528865539E+02  0.30000017293E+02 0.  0.
        -12    1    1    2    0    0 -0.49672549257E+01 -0.19048097473E+02 -0.35576137737E+02  0.40659134461E+02  0.00000000000E+00 0.  1.
         11    1    3    3    0    0 -0.56898947529E+01  0.19792837702E+02  0.18937578955E+02  0.27977905989E+02  0.51100000000E-03 0. -1.
        -11    1    3    3    0    0 -0.16491361570E+01 -0.22814027806E+01  0.33044708694E+01  0.43409649503E+01  0.51100000000E-03 0.  1.
        -12    1    3    3    0    0  0.12306285836E+02  0.15366625514E+01  0.13334087913E+02  0.18209994600E+02  0.00000000000E+00 0.  1.
</event>
<event>
 7    1  0.5005325E-012  0.5052885E+02  0.7816164E-02  0.1300439E+00
        -11   -1    0    0    0    0  0.00000000000E+00  0.00000000000E+00  0.45593999997E+02  0.45594000000E+02  0.51100000000E-03 0.  1.
         11   -1    0    0    0    0 -0.00000000000E+00 -0.00000000000E+00 -0.45593999997E+02  0.45594000000E+02  0.51100000000E-03 0. -1.
    9900012    2    1    2    0    0  0.11643516501E+02 -0.30538938319E+02 -0.24186113767E+02  0.50528851837E+02  0.29999975645E+02 0.  0.
         12    1    1    2    0    0 -0.11643516501E+02  0.30538938319E+02  0.24186113767E+02  0.40659148163E+02  0.00000000000E+00 0. -1.
         11    1    3    3    0    0 -0.98531833871E+00  0.17428807478E+01 -0.80298992364E+01  0.82757336555E+01  0.51100000000E-03 0. -1.
        -11    1    3    3    0    0 -0.15351482509E+01 -0.10762041008E+02  0.15662698190E+01  0.10983233049E+02  0.51100000000E-03 0.  1.
         12    1    3    3    0    0  0.14163983091E+02 -0.21519778059E+02 -0.17722484349E+02  0.31269885133E+02  0.00000000000E+00 0. -1.
</event>
<event>
 7    1  0.5005325E-012  0.5052886E+02  0.7816164E-02  0.1300439E+00
        -11   -1    0    0    0    0  0.00000000000E+00  0.00000000000E+00  0.45593999997E+02  0.45594000000E+02  0.51100000000E-03 0.  1.
         11   -1    0    0    0    0 -0.00000000000E+00 -0.00000000000E+00 -0.45593999997E+02  0.45594000000E+02  0.51100000000E-03 0. -1.
    9900012    2    1    2    0    0 -0.34557336055E+02  0.19514370632E+02  0.88400093051E+01  0.50528857105E+02  0.29999991658E+02 0.  0.
        -12    1    1    2    0    0  0.34557336055E+02 -0.19514370632E+02 -0.88400093051E+01  0.40659142895E+02  0.00000000000E+00 0.  1.
         11    1    3    3    0    0  0.85225419271E+00  0.18403805965E+01 -0.20897248468E+01  0.29120934301E+01  0.51100000000E-03 0.  1.
        -11    1    3    3    0    0 -0.12840468164E+02 -0.16950546233E+00  0.13621528291E+02  0.18720373608E+02  0.51100000000E-03 0. -1.
         12    1    3    3    0    0 -0.22569122084E+02  0.17843495498E+02 -0.26917941395E+01  0.28896390068E+02  0.00000000000E+00 0. -1.
</event>
<event>
 7    1  0.5005325E-012  0.5052886E+02  0.7816164E-02  0.1300439E+00
        -11   -1    0    0    0    0  0.00000000000E+00  0.00000000000E+00  0.45593999997E+02  0.45594000000E+02  0.51100000000E-03 0. -1.
         11   -1    0    0    0    0 -0.00000000000E+00 -0.00000000000E+00 -0.45593999997E+02  0.45594000000E+02  0.51100000000E-03 0.  1.
    9900012    2    1    2    0    0 -0.26551350036E+01  0.25867357801E+02  0.31256929650E+02  0.50528860897E+02  0.30000003181E+02 0.  0.
        -12    1    1    2    0    0  0.26551350036E+01 -0.25867357801E+02 -0.31256929650E+02  0.40659139103E+02  0.00000000000E+00 0.  1.
         11    1    3    3    0    0  0.49446242863E+01  0.40355973001E+01 -0.20440559618E+00  0.63856978327E+01  0.51100000000E-03 0. -1.
        -11    1    3    3    0    0 -0.34346865352E+01 -0.30808324222E+01  0.99434000271E+01  0.10961742761E+02  0.51100000000E-03 0.  1.
         12    1    3    3    0    0 -0.41650727547E+01  0.24912592923E+02  0.21517935219E+02  0.33181420302E+02  0.00000000000E+00 0. -1.
</event>
<event>
 7    1  0.5005325E-012  0.5052885E+02  0.7816164E-02  0.1300439E+00
        -11   -1    0    0    0    0  0.00000000000E+00  0.00000000000E+00  0.45593999997E+02  0.45594000000E+02  0.51100000000E-03 0. -1.
         11   -1    0    0    0    0 -0.00000000000E+00 -0.00000000000E+00 -0.45593999997E+02  0.45594000000E+02  0.51100000000E-03 0.  1.
    9900012    2    1    2    0    0 -0.15095943070E+02 -0.11924372742E+02  0.35820223485E+02  0.50528848841E+02  0.29999966538E+02 0.  0.
        -12    1    1    2    0    0  0.15095943070E+02  0.11924372742E+02 -0.35820223485E+02  0.40659151159E+02  0.00000000000E+00 0.  1.
         11    1    3    3    0    0  0.41495027582E+01 -0.33570173428E+01  0.21151431261E+01  0.57412341256E+01  0.51100000000E-03 0. -1.
        -11    1    3    3    0    0 -0.28676341723E+01  0.61446074650E+01  0.42070729994E+01  0.79799116617E+01  0.51100000000E-03 0.  1.
         12    1    3    3    0    0 -0.16377811656E+02 -0.14711962864E+02  0.29498007359E+02  0.36807703054E+02  0.00000000000E+00 0. -1.
</event>
<event>
 7    1  0.5005325E-012  0.5052888E+02  0.7816164E-02  0.1300439E+00
        -11   -1    0    0    0    0  0.00000000000E+00  0.00000000000E+00  0.45593999997E+02  0.45594000000E+02  0.51100000000E-03 0. -1.
         11   -1    0    0    0    0 -0.00000000000E+00 -0.00000000000E+00 -0.45593999997E+02  0.45594000000E+02  0.51100000000E-03 0.  1.
    9900012    2    1    2    0    0  0.28130390565E+02 -0.80598769945E+01 -0.28229119192E+02  0.50528884652E+02  0.30000075388E+02 0.  0.
         12    1    1    2    0    0 -0.28130390565E+02  0.80598769945E+01  0.28229119192E+02  0.40659115348E+02  0.00000000000E+00 0. -1.
         11    1    3    3    0    0  0.10105087703E+02 -0.33946979847E+01 -0.60837544019E+01  0.12273908903E+02  0.51100000000E-03 0. -1.
        -11    1    3    3    0    0  0.24233749351E+02 -0.56897905561E+01 -0.17321402347E+02  0.30326214794E+02  0.51100000000E-03 0.  1.
        -12    1    3    3    0    0 -0.62084464885E+01  0.10246115463E+01 -0.48239624430E+01  0.79287609544E+01  0.00000000000E+00 0.  1.
</event>
<event>
 7    1  0.5005325E-012  0.5052884E+02  0.7816164E-02  0.1300439E+00
        -11   -1    0    0    0    0  0.00000000000E+00  0.00000000000E+00  0.45593999997E+02  0.45594000000E+02  0.51100000000E-03 0. -1.
         11   -1    0    0    0    0 -0.00000000000E+00 -0.00000000000E+00 -0.45593999997E+02  0.45594000000E+02  0.51100000000E-03 0.  1.
    9900012    2    1    2    0    0  0.69977871590E+01  0.21009886148E+02 -0.34099600326E+02  0.50528842563E+02  0.29999947454E+02 0.  0.
         12    1    1    2    0    0 -0.69977871590E+01 -0.21009886148E+02  0.34099600326E+02  0.40659157437E+02  0.00000000000E+00 0. -1.
         11    1    3    3    0    0  0.77530620575E+01  0.11110291938E+01 -0.13797805844E+02  0.15865806110E+02  0.51100000000E-03 0. -1.
        -11    1    3    3    0    0  0.38887694968E+01  0.22448378986E+02 -0.16908620102E+02  0.28371705647E+02  0.51100000000E-03 0.  1.
         12    1    3    3    0    0 -0.46440443953E+01 -0.25495220322E+01 -0.33931743807E+01  0.62913308064E+01  0.00000000000E+00 0. -1.
</event>
<event>
 7    1  0.5005325E-012  0.5052886E+02  0.7816164E-02  0.1300439E+00
        -11   -1    0    0    0    0  0.00000000000E+00  0.00000000000E+00  0.45593999997E+02  0.45594000000E+02  0.51100000000E-03 0. -1.
         11   -1    0    0    0    0 -0.00000000000E+00 -0.00000000000E+00 -0.45593999997E+02  0.45594000000E+02  0.51100000000E-03 0.  1.
    9900012    2    1    2    0    0  0.32680745936E+02 -0.14040590018E+02  0.19697632666E+02  0.50528855203E+02  0.29999985875E+02 0.  0.
        -12    1    1    2    0    0 -0.32680745936E+02  0.14040590018E+02 -0.19697632666E+02  0.40659144797E+02  0.00000000000E+00 0.  1.
         11    1    3    3    0    0  0.70675692472E+01 -0.13674095105E+02  0.46692218283E+01  0.16085180905E+02  0.51100000000E-03 0. -1.
        -11    1    3    3    0    0  0.71167013284E+01  0.81308175714E+00  0.14184385486E+02  0.15890416345E+02  0.51100000000E-03 0.  1.
         12    1    3    3    0    0  0.18496475361E+02 -0.11795766702E+01  0.84402535164E+00  0.18553257953E+02  0.00000000000E+00 0. -1.
</event>
<event>
 7    1  0.5211400E-012  0.5052886E+02  0.7816164E-02  0.1300439E+00
        -11   -1    0    0    0    0  0.00000000000E+00  0.00000000000E+00  0.45593999997E+02  0.45594000000E+02  0.51100000000E-03 0. -1.
         11   -1    0    0    0    0 -0.00000000000E+00 -0.00000000000E+00 -0.45593999997E+02  0.45594000000E+02  0.51100000000E-03 0.  1.
    9900012    2    1    2    0    0  0.22601554958E+02 -0.60105787776E+01  0.33259704826E+02  0.50528864386E+02  0.30000013788E+02 0.  0.
        -12    1    1    2    0    0 -0.22601554958E+02  0.60105787776E+01 -0.33259704826E+02  0.40659135614E+02  0.00000000000E+00 0.  1.
         11    1    3    3    0    0  0.13370090472E+02  0.56801271909E+00  0.18040434198E+02  0.22461950582E+02  0.51100000000E-03 0. -1.
        -11    1    3    3    0    0  0.64061143648E+01  0.66536174821E+01  0.26743855597E+01  0.96156780955E+01  0.51100000000E-03 0.  1.
        -12    1    3    3    0    0  0.28253501213E+01 -0.13232208979E+02  0.12544885069E+02  0.18451235708E+02  0.00000000000E+00 0.  1.
</event>
<event>
 7    1  0.5005325E-012  0.5052886E+02  0.7816164E-02  0.1300439E+00
        -11   -1    0    0    0    0  0.00000000000E+00  0.00000000000E+00  0.45593999997E+02  0.45594000000E+02  0.51100000000E-03 0. -1.
         11   -1    0    0    0    0 -0.00000000000E+00 -0.00000000000E+00 -0.45593999997E+02  0.45594000000E+02  0.51100000000E-03 0.  1.
    9900012    2    1    2    0    0 -0.15051553680E+02 -0.17346172326E+02  0.33551850115E+02  0.50528860699E+02  0.30000002582E+02 0.  0.
        -12    1    1    2    0    0  0.15051553680E+02  0.17346172326E+02 -0.33551850115E+02  0.40659139301E+02  0.00000000000E+00 0.  1.
         11    1    3    3    0    0  0.29308241637E+01 -0.62897191234E+01  0.13397969779E+02  0.15088269993E+02  0.51100000000E-03 0. -1.
        -11    1    3    3    0    0 -0.13729346452E+01  0.33806295528E+01 -0.20444345056E+01  0.41825014551E+01  0.51100000000E-03 0.  1.
         12    1    3    3    0    0 -0.16609443198E+02 -0.14437082755E+02  0.22198314842E+02  0.31258089251E+02  0.00000000000E+00 0. -1.
</event>
<event>
 7    1  0.5005325E-012  0.5052882E+02  0.7816164E-02  0.1300439E+00
        -11   -1    0    0    0    0  0.00000000000E+00  0.00000000000E+00  0.45593999997E+02  0.45594000000E+02  0.51100000000E-03 0. -1.
         11   -1    0    0    0    0 -0.00000000000E+00 -0.00000000000E+00 -0.45593999997E+02  0.45594000000E+02  0.51100000000E-03 0.  1.
    9900012    2    1    2    0    0  0.34324295976E+01  0.30001408125E+02  0.27226877455E+02  0.50528819999E+02  0.29999878868E+02 0.  0.
        -12    1    1    2    0    0 -0.34324295976E+01 -0.30001408125E+02 -0.27226877455E+02  0.40659180001E+02  0.00000000000E+00 0.  1.
         11    1    3    3    0    0 -0.63357576748E+01 -0.14778193610E+01  0.62059559908E+01  0.89910881098E+01  0.51100000000E-03 0. -1.
        -11    1    3    3    0    0 -0.24685635240E+01  0.69731740949E+00  0.25221535896E+01  0.35974041241E+01  0.51100000000E-03 0.  1.
        -12    1    3    3    0    0  0.12236750796E+02  0.30781910077E+02  0.18498767875E+02  0.37940327765E+02  0.00000000000E+00 0.  1.
</event>
<event>
 7    1  0.5005325E-012  0.5052886E+02  0.7816164E-02  0.1300439E+00
        -11   -1    0    0    0    0  0.00000000000E+00  0.00000000000E+00  0.45593999997E+02  0.45594000000E+02  0.51100000000E-03 0. -1.
         11   -1    0    0    0    0 -0.00000000000E+00 -0.00000000000E+00 -0.45593999997E+02  0.45594000000E+02  0.51100000000E-03 0.  1.
    9900012    2    1    2    0    0  0.21530625647E+01  0.11735476046E+02  0.38869124461E+02  0.50528856959E+02  0.29999991213E+02 0.  0.
        -12    1    1    2    0    0 -0.21530625647E+01 -0.11735476046E+02 -0.38869124461E+02  0.40659143041E+02  0.00000000000E+00 0.  1.
         11    1    3    3    0    0  0.74694594112E+00  0.71962881756E+01  0.63387979988E+01  0.96189839420E+01  0.51100000000E-03 0. -1.
        -11    1    3    3    0    0  0.73117689618E+01 -0.46782566703E+01  0.26321826499E+01  0.90706359527E+01  0.51100000000E-03 0.  1.
         12    1    3    3    0    0 -0.59056523382E+01  0.92174445408E+01  0.29898143813E+02  0.31839237064E+02  0.00000000000E+00 0. -1.
</event>
<event>
 7    1  0.5005325E-012  0.5052885E+02  0.7816164E-02  0.1300439E+00
        -11   -1    0    0    0    0  0.00000000000E+00  0.00000000000E+00  0.45593999997E+02  0.45594000000E+02  0.51100000000E-03 0. -1.
         11   -1    0    0    0    0 -0.00000000000E+00 -0.00000000000E+00 -0.45593999997E+02  0.45594000000E+02  0.51100000000E-03 0.  1.
    9900012    2    1    2    0    0 -0.27156245900E+02 -0.21035962743E+02  0.21752996212E+02  0.50528852639E+02  0.29999978083E+02 0.  0.
        -12    1    1    2    0    0  0.27156245900E+02  0.21035962743E+02 -0.21752996212E+02  0.40659147361E+02  0.00000000000E+00 0.  1.
         11    1    3    3    0    0 -0.13917819417E+02 -0.17900399587E+02  0.17004216647E+02  0.28342078024E+02  0.51100000000E-03 0. -1.
        -11    1    3    3    0    0 -0.89235744674E+01 -0.76956444258E+01  0.88072527751E+01  0.14711248285E+02  0.51100000000E-03 0.  1.
        -12    1    3    3    0    0 -0.43148520158E+01  0.45600812701E+01 -0.40584732104E+01  0.74755263298E+01  0.00000000000E+00 0.  1.
</event>
<event>
 7    1  0.5005325E-012  0.5052886E+02  0.7816164E-02  0.1300439E+00
        -11   -1    0    0    0    0  0.00000000000E+00  0.00000000000E+00  0.45593999997E+02  0.45594000000E+02  0.51100000000E-03 0.  1.
         11   -1    0    0    0    0 -0.00000000000E+00 -0.00000000000E+00 -0.45593999997E+02  0.45594000000E+02  0.51100000000E-03 0. -1.
    9900012    2    1    2    0    0  0.32818865803E+02 -0.22651075072E+02 -0.79382900247E+01  0.50528860768E+02  0.30000002792E+02 0.  0.
         12    1    1    2    0    0 -0.32818865803E+02  0.22651075072E+02  0.79382900247E+01  0.40659139232E+02  0.00000000000E+00 0. -1.
         11    1    3    3    0    0  0.20401567400E+02 -0.18070942295E+02 -0.60211761289E+01  0.27911242718E+02  0.51100000000E-03 0. -1.
        -11    1    3    3    0    0  0.15340453769E+02 -0.56882970217E+01  0.31520746686E+01  0.16661987271E+02  0.51100000000E-03 0.  1.
         12    1    3    3    0    0 -0.29231553657E+01  0.11081642444E+01 -0.50691885644E+01  0.59556307799E+01  0.00000000000E+00 0. -1.
</event>
<event>
 7    1  0.5005325E-012  0.5052885E+02  0.7816164E-02  0.1300439E+00
        -11   -1    0    0    0    0  0.00000000000E+00  0.00000000000E+00  0.45593999997E+02  0.45594000000E+02  0.51100000000E-03 0. -1.
         11   -1    0    0    0    0 -0.00000000000E+00 -0.00000000000E+00 -0.45593999997E+02  0.45594000000E+02  0.51100000000E-03 0.  1.
    9900012    2    1    2    0    0 -0.10032513328E+02  0.50223024362E+01  0.39080574718E+02  0.50528853849E+02  0.29999981760E+02 0.  0.
        -12    1    1    2    0    0  0.10032513328E+02 -0.50223024362E+01 -0.39080574718E+02  0.40659146151E+02  0.00000000000E+00 0.  1.
         11    1    3    3    0    0 -0.12223670174E+00  0.51729013046E+01  0.86806854779E+01  0.10105847334E+02  0.51100000000E-03 0. -1.
        -11    1    3    3    0    0 -0.43457769047E+01  0.57225789072E+01 -0.16458389446E+01  0.73717346905E+01  0.51100000000E-03 0.  1.
        -12    1    3    3    0    0 -0.55644997218E+01 -0.58731777756E+01  0.32045728184E+02  0.33051271824E+02  0.00000000000E+00 0.  1.
</event>
<event>
 7    1  0.5005325E-012  0.5052880E+02  0.7816164E-02  0.1300439E+00
        -11   -1    0    0    0    0  0.00000000000E+00  0.00000000000E+00  0.45593999997E+02  0.45594000000E+02  0.51100000000E-03 0.  1.
         11   -1    0    0    0    0 -0.00000000000E+00 -0.00000000000E+00 -0.45593999997E+02  0.45594000000E+02  0.51100000000E-03 0. -1.
    9900012    2    1    2    0    0 -0.21008656997E+02  0.26116627897E+02 -0.23015829171E+02  0.50528802836E+02  0.29999826700E+02 0.  0.
         12    1    1    2    0    0  0.21008656997E+02 -0.26116627897E+02  0.23015829171E+02  0.40659197164E+02  0.00000000000E+00 0. -1.
         11    1    3    3    0    0  0.12909395850E+01  0.71889175120E+01 -0.50377703830E+01  0.88727780711E+01  0.51100000000E-03 0. -1.
        -11    1    3    3    0    0 -0.20703227783E+02  0.24312482468E+02 -0.14713345151E+02  0.35159678187E+02  0.51100000000E-03 0.  1.
        -12    1    3    3    0    0 -0.15963687991E+01 -0.53847720830E+01 -0.32647136377E+01  0.64963465783E+01  0.00000000000E+00 0.  1.
</event>
<event>
 7    1  0.5005325E-012  0.5052883E+02  0.7816164E-02  0.1300439E+00
        -11   -1    0    0    0    0  0.00000000000E+00  0.00000000000E+00  0.45593999997E+02  0.45594000000E+02  0.51100000000E-03 0. -1.
         11   -1    0    0    0    0 -0.00000000000E+00 -0.00000000000E+00 -0.45593999997E+02  0.45594000000E+02  0.51100000000E-03 0.  1.
    9900012    2    1    2    0    0  0.68711481477E+01 -0.41436108387E+01 -0.39859576176E+02  0.50528831285E+02  0.29999913174E+02 0.  0.
         12    1    1    2    0    0 -0.68711481477E+01  0.41436108387E+01  0.39859576176E+02  0.40659168715E+02  0.00000000000E+00 0. -1.
         11    1    3    3    0    0  0.11292678074E+01  0.15816785235E+01 -0.16285572926E+00  0.19502499794E+01  0.51100000000E-03 0. -1.
        -11    1    3    3    0    0 -0.23393696038E+01  0.96493757304E+01 -0.19920233861E+02  0.22257556457E+02  0.51100000000E-03 0.  1.
         12    1    3    3    0    0  0.80812499441E+01 -0.15374665093E+02 -0.19776486586E+02  0.26321024848E+02  0.00000000000E+00 0. -1.
</event>
<event>
 7    1  0.5005325E-012  0.5052887E+02  0.7816164E-02  0.1300439E+00
        -11   -1    0    0    0    0  0.00000000000E+00  0.00000000000E+00  0.45593999997E+02  0.45594000000E+02  0.51100000000E-03 0. -1.
         11   -1    0    0    0    0 -0.00000000000E+00 -0.00000000000E+00 -0.45593999997E+02  0.45594000000E+02  0.51100000000E-03 0.  1.
    9900012    2    1    2    0    0  0.12829647778E+02  0.43683427394E+01  0.38333835753E+02  0.50528865185E+02  0.30000016216E+02 0.  0.
        -12    1    1    2    0    0 -0.12829647778E+02 -0.43683427394E+01 -0.38333835753E+02  0.40659134815E+02  0.00000000000E+00 0.  1.
         11    1    3    3    0    0 -0.10484622891E+00  0.39895108758E+01  0.37875382613E+01  0.55020574426E+01  0.51100000000E-03 0. -1.
        -11    1    3    3    0    0 -0.77074093901E+01  0.48922014573E+00  0.59034399351E+01  0.97208075378E+01  0.51100000000E-03 0.  1.
         12    1    3    3    0    0  0.20641903397E+02 -0.11038828204E+00  0.28642857556E+02  0.35306000204E+02  0.00000000000E+00 0. -1.
</event>
<event>
 7    1  0.5005325E-012  0.5052894E+02  0.7816164E-02  0.1300439E+00
        -11   -1    0    0    0    0  0.00000000000E+00  0.00000000000E+00  0.45593999997E+02  0.45594000000E+02  0.51100000000E-03 0. -1.
         11   -1    0    0    0    0 -0.00000000000E+00 -0.00000000000E+00 -0.45593999997E+02  0.45594000000E+02  0.51100000000E-03 0.  1.
    9900012    2    1    2    0    0  0.93378903699E+01 -0.29557794135E+01  0.39461711764E+02  0.50528935527E+02  0.30000230026E+02 0.  0.
        -12    1    1    2    0    0 -0.93378903699E+01  0.29557794135E+01 -0.39461711764E+02  0.40659064473E+02  0.00000000000E+00 0.  1.
         11    1    3    3    0    0 -0.68036473327E+01  0.47443621100E+01  0.13551034871E+02  0.15888018605E+02  0.51100000000E-03 0. -1.
        -11    1    3    3    0    0  0.38967567400E+01 -0.10336797090E+01 -0.11564801453E+01  0.41941212928E+01  0.51100000000E-03 0.  1.
        -12    1    3    3    0    0  0.12244780963E+02 -0.66664618145E+01  0.27067157039E+02  0.30446795629E+02  0.00000000000E+00 0.  1.
</event>
<event>
 7    1  0.5005325E-012  0.5052885E+02  0.7816164E-02  0.1300439E+00
        -11   -1    0    0    0    0  0.00000000000E+00  0.00000000000E+00  0.45593999997E+02  0.45594000000E+02  0.51100000000E-03 0. -1.
         11   -1    0    0    0    0 -0.00000000000E+00 -0.00000000000E+00 -0.45593999997E+02  0.45594000000E+02  0.51100000000E-03 0.  1.
    9900012    2    1    2    0    0  0.23181247356E+02  0.33322502708E+02  0.23252429477E+01  0.50528853791E+02  0.29999981582E+02 0.  0.
        -12    1    1    2    0    0 -0.23181247356E+02 -0.33322502708E+02 -0.23252429477E+01  0.40659146209E+02  0.00000000000E+00 0.  1.
         11    1    3    3    0    0  0.17691236301E+02  0.22440093695E+02  0.92955702914E+01  0.30049047809E+02  0.51100000000E-03 0. -1.
        -11    1    3    3    0    0 -0.15019966352E+01  0.95209174127E+01  0.11164178540E+01  0.97031052431E+01  0.51100000000E-03 0.  1.
        -12    1    3    3    0    0  0.69920076908E+01  0.13614915994E+01 -0.80867451977E+01  0.10776700739E+02  0.00000000000E+00 0.  1.
</event>
<event>
 7    1  0.5005325E-012  0.5052886E+02  0.7816164E-02  0.1300439E+00
        -11   -1    0    0    0    0  0.00000000000E+00  0.00000000000E+00  0.45593999997E+02  0.45594000000E+02  0.51100000000E-03 0. -1.
         11   -1    0    0    0    0 -0.00000000000E+00 -0.00000000000E+00 -0.45593999997E+02  0.45594000000E+02  0.51100000000E-03 0.  1.
    9900012    2    1    2    0    0  0.63052934656E+01  0.14865379882E+02  0.37315270754E+02  0.50528859869E+02  0.30000000058E+02 0.  0.
        -12    1    1    2    0    0 -0.63052934656E+01 -0.14865379882E+02 -0.37315270754E+02  0.40659140131E+02  0.00000000000E+00 0.  1.
         11    1    3    3    0    0  0.67172177798E+01  0.11094582698E+02  0.34080177621E+02  0.36464630629E+02  0.51100000000E-03 0. -1.
        -11    1    3    3    0    0 -0.31448696450E+01 -0.24072690200E+01  0.56415055374E+01  0.68928756124E+01  0.51100000000E-03 0.  1.
         12    1    3    3    0    0  0.27329453308E+01  0.61780662036E+01 -0.24064124042E+01  0.71713536279E+01  0.00000000000E+00 0. -1.
</event>
<event>
 7    1  0.5005325E-012  0.5052881E+02  0.7816164E-02  0.1300439E+00
        -11   -1    0    0    0    0  0.00000000000E+00  0.00000000000E+00  0.45593999997E+02  0.45594000000E+02  0.51100000000E-03 0.  1.
         11   -1    0    0    0    0 -0.00000000000E+00 -0.00000000000E+00 -0.45593999997E+02  0.45594000000E+02  0.51100000000E-03 0. -1.
    9900012    2    1    2    0    0  0.31775989443E+02 -0.24005628712E+02 -0.81966950650E+01  0.50528812539E+02  0.29999856195E+02 0.  0.
         12    1    1    2    0    0 -0.31775989443E+02  0.24005628712E+02  0.81966950650E+01  0.40659187461E+02  0.00000000000E+00 0. -1.
         11    1    3    3    0    0  0.65795800626E+01 -0.95297886876E+01  0.75821227564E+01  0.13841832682E+02  0.51100000000E-03 0. -1.
        -11    1    3    3    0    0  0.13108624359E+02 -0.42204184167E+01  0.74168694132E+00  0.13791231416E+02  0.51100000000E-03 0.  1.
         12    1    3    3    0    0  0.12087785022E+02 -0.10255421608E+02 -0.16520504763E+02  0.22895748442E+02  0.00000000000E+00 0. -1.
</event>
<event>
 7    1  0.5005325E-012  0.5052885E+02  0.7816164E-02  0.1300439E+00
        -11   -1    0    0    0    0  0.00000000000E+00  0.00000000000E+00  0.45593999997E+02  0.45594000000E+02  0.51100000000E-03 0. -1.
         11   -1    0    0    0    0 -0.00000000000E+00 -0.00000000000E+00 -0.45593999997E+02  0.45594000000E+02  0.51100000000E-03 0.  1.
    9900012    2    1    2    0    0 -0.23212142443E+02  0.13765546665E+02 -0.30411719888E+02  0.50528849267E+02  0.29999967833E+02 0.  0.
         12    1    1    2    0    0  0.23212142443E+02 -0.13765546665E+02  0.30411719888E+02  0.40659150733E+02  0.00000000000E+00 0. -1.
         11    1    3    3    0    0  0.35948703836E+00  0.95409415254E+01 -0.14286235479E+02  0.17182995098E+02  0.51100000000E-03 0. -1.
        -11    1    3    3    0    0  0.57111429613E+00 -0.29318493488E+01 -0.49829946167E+01  0.58096598657E+01  0.51100000000E-03 0.  1.
        -12    1    3    3    0    0 -0.24142743777E+02  0.71564544888E+01 -0.11142489792E+02  0.27536194303E+02  0.00000000000E+00 0.  1.
</event>
<event>
 7    1  0.5005325E-012  0.5052885E+02  0.7816164E-02  0.1300439E+00
        -11   -1    0    0    0    0  0.00000000000E+00  0.00000000000E+00  0.45593999997E+02  0.45594000000E+02  0.51100000000E-03 0.  1.
         11   -1    0    0    0    0 -0.00000000000E+00 -0.00000000000E+00 -0.45593999997E+02  0.45594000000E+02  0.51100000000E-03 0. -1.
    9900012    2    1    2    0    0 -0.29371395798E+02  0.17072264150E+02  0.22338874233E+02  0.50528851013E+02  0.29999973139E+02 0.  0.
        -12    1    1    2    0    0  0.29371395798E+02 -0.17072264150E+02 -0.22338874233E+02  0.40659148987E+02  0.00000000000E+00 0.  1.
         11    1    3    3    0    0 -0.97487562501E+01  0.59287377185E+01 -0.46262304065E+01  0.12312196693E+02  0.51100000000E-03 0.  1.
        -11    1    3    3    0    0 -0.20801689522E+02  0.10037914128E+02  0.18483061674E+02  0.29581980598E+02  0.51100000000E-03 0. -1.
        -12    1    3    3    0    0  0.11790499742E+01  0.11056123036E+01  0.84820429661E+01  0.86346737220E+01  0.00000000000E+00 0.  1.
</event>
<event>
 7    1  0.5005325E-012  0.5052886E+02  0.7816164E-02  0.1300439E+00
        -11   -1    0    0    0    0  0.00000000000E+00  0.00000000000E+00  0.45593999997E+02  0.45594000000E+02  0.51100000000E-03 0. -1.
         11   -1    0    0    0    0 -0.00000000000E+00 -0.00000000000E+00 -0.45593999997E+02  0.45594000000E+02  0.51100000000E-03 0.  1.
    9900012    2    1    2    0    0  0.25135155060E+02 -0.65389014966E+01  0.31283105009E+02  0.50528856973E+02  0.29999991257E+02 0.  0.
        -12    1    1    2    0    0 -0.25135155060E+02  0.65389014966E+01 -0.31283105009E+02  0.40659143027E+02  0.00000000000E+00 0.  1.
         11    1    3    3    0    0  0.44370373366E+01 -0.10044269898E+02  0.14048280533E+02  0.17830559282E+02  0.51100000000E-03 0. -1.
        -11    1    3    3    0    0 -0.30027450140E+01  0.22096036180E+01  0.75976405408E+00  0.38047427569E+01  0.51100000000E-03 0.  1.
         12    1    3    3    0    0  0.23700862737E+02  0.12957647834E+01  0.16475060421E+02  0.28893554934E+02  0.00000000000E+00 0. -1.
</event>
<event>
 7    1  0.5005325E-012  0.5052886E+02  0.7816164E-02  0.1300439E+00
        -11   -1    0    0    0    0  0.00000000000E+00  0.00000000000E+00  0.45593999997E+02  0.45594000000E+02  0.51100000000E-03 0. -1.
         11   -1    0    0    0    0 -0.00000000000E+00 -0.00000000000E+00 -0.45593999997E+02  0.45594000000E+02  0.51100000000E-03 0.  1.
    9900012    2    1    2    0    0  0.23856723683E+02  0.18622469396E+01  0.32871789723E+02  0.50528858492E+02  0.29999995873E+02 0.  0.
        -12    1    1    2    0    0 -0.23856723683E+02 -0.18622469396E+01 -0.32871789723E+02  0.40659141508E+02  0.00000000000E+00 0.  1.
         11    1    3    3    0    0 -0.15938412282E+01  0.13571007836E+01  0.18714943247E+02  0.18831652965E+02  0.51100000000E-03 0. -1.
        -11    1    3    3    0    0  0.91586650096E-02 -0.84391465374E+00 -0.15518381282E+01  0.17664873793E+01  0.51100000000E-03 0.  1.
        -12    1    3    3    0    0  0.25441406246E+02  0.13490608097E+01  0.15708684604E+02  0.29930718148E+02  0.00000000000E+00 0.  1.
</event>
<event>
 7    1  0.5005325E-012  0.5052886E+02  0.7816164E-02  0.1300439E+00
        -11   -1    0    0    0    0  0.00000000000E+00  0.00000000000E+00  0.45593999997E+02  0.45594000000E+02  0.51100000000E-03 0. -1.
         11   -1    0    0    0    0 -0.00000000000E+00 -0.00000000000E+00 -0.45593999997E+02  0.45594000000E+02  0.51100000000E-03 0.  1.
    9900012    2    1    2    0    0  0.38278969233E+02  0.50911104538E+01  0.12726610789E+02  0.50528861872E+02  0.30000006145E+02 0.  0.
        -12    1    1    2    0    0 -0.38278969233E+02 -0.50911104538E+01 -0.12726610789E+02  0.40659138128E+02  0.00000000000E+00 0.  1.
         11    1    3    3    0    0 -0.27219458953E+01 -0.18444342708E+01  0.27236683838E+01  0.42695780778E+01  0.51100000000E-03 0. -1.
        -11    1    3    3    0    0  0.72837960696E+01  0.75945928560E+01 -0.14970120327E+01  0.10628855588E+02  0.51100000000E-03 0.  1.
        -12    1    3    3    0    0  0.33717119058E+02 -0.65904813137E+00  0.11499954438E+02  0.35630428205E+02  0.00000000000E+00 0.  1.
</event>
<event>
 7    1  0.5005325E-012  0.5052883E+02  0.7816164E-02  0.1300439E+00
        -11   -1    0    0    0    0  0.00000000000E+00  0.00000000000E+00  0.45593999997E+02  0.45594000000E+02  0.51100000000E-03 0. -1.
         11   -1    0    0    0    0 -0.00000000000E+00 -0.00000000000E+00 -0.45593999997E+02  0.45594000000E+02  0.51100000000E-03 0.  1.
    9900012    2    1    2    0    0  0.13603948692E+02 -0.30899855636E+02  0.22656114150E+02  0.50528831209E+02  0.29999912944E+02 0.  0.
        -12    1    1    2    0    0 -0.13603948692E+02  0.30899855636E+02 -0.22656114150E+02  0.40659168791E+02  0.00000000000E+00 0.  1.
         11    1    3    3    0    0  0.12942429573E+02 -0.21708648704E+02  0.17750313908E+02  0.30884390166E+02  0.51100000000E-03 0. -1.
        -11    1    3    3    0    0 -0.11155009234E+01 -0.13899781768E+02  0.41946199598E+01  0.14561700188E+02  0.51100000000E-03 0.  1.
        -12    1    3    3    0    0  0.17770200428E+01  0.47085748353E+01  0.71118028213E+00  0.50827408557E+01  0.00000000000E+00 0.  1.
</event>
<event>
 7    1  0.5005325E-012  0.5052885E+02  0.7816164E-02  0.1300439E+00
        -11   -1    0    0    0    0  0.00000000000E+00  0.00000000000E+00  0.45593999997E+02  0.45594000000E+02  0.51100000000E-03 0.  1.
         11   -1    0    0    0    0 -0.00000000000E+00 -0.00000000000E+00 -0.45593999997E+02  0.45594000000E+02  0.51100000000E-03 0. -1.
    9900012    2    1    2    0    0 -0.16075899957E+02 -0.25860134047E+02 -0.26944110105E+02  0.50528853899E+02  0.29999981910E+02 0.  0.
         12    1    1    2    0    0  0.16075899957E+02  0.25860134047E+02  0.26944110105E+02  0.40659146101E+02  0.00000000000E+00 0. -1.
         11    1    3    3    0    0 -0.35365304977E+01 -0.13108006678E+02 -0.26780596150E+01  0.13838312418E+02  0.51100000000E-03 0. -1.
        -11    1    3    3    0    0 -0.10399206722E+02 -0.18587549625E+02 -0.19094893976E+02  0.28605165228E+02  0.51100000000E-03 0.  1.
         12    1    3    3    0    0 -0.21401627374E+01  0.58354222559E+01 -0.51711565141E+01  0.80853762522E+01  0.00000000000E+00 0. -1.
</event>
<event>
 7    1  0.5005325E-012  0.5052878E+02  0.7816164E-02  0.1300439E+00
        -11   -1    0    0    0    0  0.00000000000E+00  0.00000000000E+00  0.45593999997E+02  0.45594000000E+02  0.51100000000E-03 0. -1.
         11   -1    0    0    0    0 -0.00000000000E+00 -0.00000000000E+00 -0.45593999997E+02  0.45594000000E+02  0.51100000000E-03 0.  1.
    9900012    2    1    2    0    0  0.29908374410E+02 -0.37165693532E+01 -0.27291907192E+02  0.50528782770E+02  0.29999765706E+02 0.  0.
         12    1    1    2    0    0 -0.29908374410E+02  0.37165693532E+01  0.27291907192E+02  0.40659217230E+02  0.00000000000E+00 0. -1.
         11    1    3    3    0    0  0.59171709757E+01  0.51528045388E+01 -0.36646400641E+01  0.86599015024E+01  0.51100000000E-03 0. -1.
        -11    1    3    3    0    0  0.25964813401E+02 -0.67685205658E+01 -0.26561439348E+02  0.37755720972E+02  0.51100000000E-03 0.  1.
         12    1    3    3    0    0 -0.19736099674E+01 -0.21008533262E+01  0.29341722197E+01  0.41131602955E+01  0.00000000000E+00 0. -1.
</event>
<event>
 7    1  0.5005325E-012  0.5052886E+02  0.7816164E-02  0.1300439E+00
        -11   -1    0    0    0    0  0.00000000000E+00  0.00000000000E+00  0.45593999997E+02  0.45594000000E+02  0.51100000000E-03 0. -1.
         11   -1    0    0    0    0 -0.00000000000E+00 -0.00000000000E+00 -0.45593999997E+02  0.45594000000E+02  0.51100000000E-03 0.  1.
    9900012    2    1    2    0    0  0.61620113004E+01  0.14395563454E+02 -0.37522829482E+02  0.50528863723E+02  0.30000011773E+02 0.  0.
         12    1    1    2    0    0 -0.61620113004E+01 -0.14395563454E+02  0.37522829482E+02  0.40659136277E+02  0.00000000000E+00 0. -1.
         11    1    3    3    0    0  0.26019630044E+00 -0.62839339981E+01 -0.12958967820E+02  0.14404526227E+02  0.51100000000E-03 0. -1.
        -11    1    3    3    0    0  0.66224781807E+01  0.93720784188E+01 -0.21525847747E+02  0.24393753147E+02  0.51100000000E-03 0.  1.
         12    1    3    3    0    0 -0.72066318065E+00  0.11307419034E+02 -0.30380139157E+01  0.11730584349E+02  0.00000000000E+00 0. -1.
</event>
<event>
 7    1  0.5005325E-012  0.5052887E+02  0.7816164E-02  0.1300439E+00
        -11   -1    0    0    0    0  0.00000000000E+00  0.00000000000E+00  0.45593999997E+02  0.45594000000E+02  0.51100000000E-03 0. -1.
         11   -1    0    0    0    0 -0.00000000000E+00 -0.00000000000E+00 -0.45593999997E+02  0.45594000000E+02  0.51100000000E-03 0.  1.
    9900012    2    1    2    0    0  0.33414313203E+01  0.46506293093E+00 -0.40518923617E+02  0.50528872884E+02  0.30000039618E+02 0.  0.
         12    1    1    2    0    0 -0.33414313203E+01 -0.46506293093E+00  0.40518923617E+02  0.40659127116E+02  0.00000000000E+00 0. -1.
         11    1    3    3    0    0  0.76103954970E+01 -0.18409803631E+01  0.34419577786E+00  0.78374612798E+01  0.51100000000E-03 0.  1.
        -11    1    3    3    0    0 -0.69812466252E+01  0.16056061151E+01 -0.14429923038E+02  0.16110197224E+02  0.51100000000E-03 0. -1.
        -12    1    3    3    0    0  0.27122824486E+01  0.70043717901E+00 -0.26433196356E+02  0.26581214381E+02  0.00000000000E+00 0.  1.
</event>
<event>
 7    1  0.7852812E-012  0.5052885E+02  0.7816164E-02  0.1300439E+00
        -11   -1    0    0    0    0  0.00000000000E+00  0.00000000000E+00  0.45593999997E+02  0.45594000000E+02  0.51100000000E-03 0. -1.
         11   -1    0    0    0    0 -0.00000000000E+00 -0.00000000000E+00 -0.45593999997E+02  0.45594000000E+02  0.51100000000E-03 0.  1.
    9900012    2    1    2    0    0  0.40211805243E+01  0.21881743270E+02  0.34032130616E+02  0.50528849793E+02  0.29999969429E+02 0.  0.
        -12    1    1    2    0    0 -0.40211805243E+01 -0.21881743270E+02 -0.34032130616E+02  0.40659150207E+02  0.00000000000E+00 0.  1.
         11    1    3    3    0    0  0.61915859963E+01  0.88845383796E+01  0.21553057726E+02  0.24120635501E+02  0.51100000000E-03 0. -1.
        -11    1    3    3    0    0 -0.43183265103E+01  0.16223538295E+02  0.14367271558E+02  0.22096824001E+02  0.51100000000E-03 0.  1.
        -12    1    3    3    0    0  0.21479210384E+01 -0.32263334049E+01 -0.18881986679E+01  0.43113902904E+01  0.00000000000E+00 0.  1.
</event>
<event>
 7    1  0.5005325E-012  0.5052881E+02  0.7816164E-02  0.1300439E+00
        -11   -1    0    0    0    0  0.00000000000E+00  0.00000000000E+00  0.45593999997E+02  0.45594000000E+02  0.51100000000E-03 0. -1.
         11   -1    0    0    0    0 -0.00000000000E+00 -0.00000000000E+00 -0.45593999997E+02  0.45594000000E+02  0.51100000000E-03 0.  1.
    9900012    2    1    2    0    0 -0.19113859620E+02 -0.23015389381E+02 -0.27534013484E+02  0.50528810676E+02  0.29999850531E+02 0.  0.
         12    1    1    2    0    0  0.19113859620E+02  0.23015389381E+02  0.27534013484E+02  0.40659189324E+02  0.00000000000E+00 0. -1.
         11    1    3    3    0    0 -0.23792788899E+02 -0.10223018476E+02 -0.18804260370E+02  0.32003236066E+02  0.51100000000E-03 0.  1.
        -11    1    3    3    0    0  0.18770355430E+01 -0.79500980534E+01 -0.13858335293E-01  0.81686910703E+01  0.51100000000E-03 0. -1.
        -12    1    3    3    0    0  0.28018937358E+01 -0.48422728524E+01 -0.87158947779E+01  0.10356883540E+02  0.00000000000E+00 0.  1.
</event>
<event>
 7    1  0.5005325E-012  0.5052886E+02  0.7816164E-02  0.1300439E+00
        -11   -1    0    0    0    0  0.00000000000E+00  0.00000000000E+00  0.45593999997E+02  0.45594000000E+02  0.51100000000E-03 0.  1.
         11   -1    0    0    0    0 -0.00000000000E+00 -0.00000000000E+00 -0.45593999997E+02  0.45594000000E+02  0.51100000000E-03 0. -1.
    9900012    2    1    2    0    0  0.20900097360E+02 -0.29962205036E+02  0.17849868678E+02  0.50528860658E+02  0.30000002455E+02 0.  0.
        -12    1    1    2    0    0 -0.20900097360E+02  0.29962205036E+02 -0.17849868678E+02  0.40659139342E+02  0.00000000000E+00 0.  1.
         11    1    3    3    0    0  0.26979531885E+01 -0.82647210193E+01 -0.42007791884E+01  0.96556258723E+01  0.51100000000E-03 0. -1.
        -11    1    3    3    0    0  0.26808947552E+01 -0.17772451404E+02  0.14867771108E+02  0.23325904989E+02  0.51100000000E-03 0.  1.
         12    1    3    3    0    0  0.15521249416E+02 -0.39250326124E+01  0.71828767588E+01  0.17547329796E+02  0.00000000000E+00 0. -1.
</event>
<event>
 7    1  0.5005325E-012  0.5052886E+02  0.7816164E-02  0.1300439E+00
        -11   -1    0    0    0    0  0.00000000000E+00  0.00000000000E+00  0.45593999997E+02  0.45594000000E+02  0.51100000000E-03 0.  1.
         11   -1    0    0    0    0 -0.00000000000E+00 -0.00000000000E+00 -0.45593999997E+02  0.45594000000E+02  0.51100000000E-03 0. -1.
    9900012    2    1    2    0    0  0.10449101835E+02  0.20323800495E+02 -0.33629231757E+02  0.50528858048E+02  0.29999994523E+02 0.  0.
         12    1    1    2    0    0 -0.10449101835E+02 -0.20323800495E+02  0.33629231757E+02  0.40659141952E+02  0.00000000000E+00 0. -1.
         11    1    3    3    0    0 -0.42214476633E+01  0.31638296988E+01 -0.85510693517E+01  0.10047448734E+02  0.51100000000E-03 0. -1.
        -11    1    3    3    0    0  0.82838820713E+01  0.35365467090E+01  0.22509122814E+01  0.92842054672E+01  0.51100000000E-03 0.  1.
         12    1    3    3    0    0  0.63866674268E+01  0.13623424087E+02 -0.27329074687E+02  0.31197203847E+02  0.00000000000E+00 0. -1.
</event>
<event>
 7    1  0.5005325E-012  0.5052887E+02  0.7816164E-02  0.1300439E+00
        -11   -1    0    0    0    0  0.00000000000E+00  0.00000000000E+00  0.45593999997E+02  0.45594000000E+02  0.51100000000E-03 0. -1.
         11   -1    0    0    0    0 -0.00000000000E+00 -0.00000000000E+00 -0.45593999997E+02  0.45594000000E+02  0.51100000000E-03 0.  1.
    9900012    2    1    2    0    0  0.10736754004E+02  0.10433563281E+02 -0.37802487515E+02  0.50528865828E+02  0.30000018172E+02 0.  0.
         12    1    1    2    0    0 -0.10736754004E+02 -0.10433563281E+02  0.37802487515E+02  0.40659134172E+02  0.00000000000E+00 0. -1.
         11    1    3    3    0    0  0.42272491635E+01 -0.48053673416E+00 -0.46664440210E+01  0.63147645329E+01  0.51100000000E-03 0. -1.
        -11    1    3    3    0    0  0.93616810517E+01  0.83287570076E+01 -0.18193835891E+01  0.12661730621E+02  0.51100000000E-03 0.  1.
        -12    1    3    3    0    0 -0.28521762112E+01  0.25853430073E+01 -0.31316659905E+02  0.31552370675E+02  0.00000000000E+00 0.  1.
</event>
<event>
 7    1  0.5005325E-012  0.5052884E+02  0.7816164E-02  0.1300439E+00
        -11   -1    0    0    0    0  0.00000000000E+00  0.00000000000E+00  0.45593999997E+02  0.45594000000E+02  0.51100000000E-03 0. -1.
         11   -1    0    0    0    0 -0.00000000000E+00 -0.00000000000E+00 -0.45593999997E+02  0.45594000000E+02  0.51100000000E-03 0.  1.
    9900012    2    1    2    0    0  0.32427804245E+01 -0.23690781897E+02  0.32884622163E+02  0.50528841787E+02  0.29999945095E+02 0.  0.
        -12    1    1    2    0    0 -0.32427804245E+01  0.23690781897E+02 -0.32884622163E+02  0.40659158213E+02  0.00000000000E+00 0.  1.
         11    1    3    3    0    0 -0.89702417729E+01 -0.20501071273E+02  0.25824408554E+02  0.34171029224E+02  0.51100000000E-03 0. -1.
        -11    1    3    3    0    0  0.18421923775E+01 -0.44290960148E+00 -0.16703908229E+01  0.25258755775E+01  0.51100000000E-03 0.  1.
        -12    1    3    3    0    0  0.10370829820E+02 -0.27468010220E+01  0.87306044326E+01  0.13831936985E+02  0.00000000000E+00 0.  1.
</event>
<event>
 7    1  0.5005325E-012  0.5052885E+02  0.7816164E-02  0.1300439E+00
        -11   -1    0    0    0    0  0.00000000000E+00  0.00000000000E+00  0.45593999997E+02  0.45594000000E+02  0.51100000000E-03 0. -1.
         11   -1    0    0    0    0 -0.00000000000E+00 -0.00000000000E+00 -0.45593999997E+02  0.45594000000E+02  0.51100000000E-03 0.  1.
    9900012    2    1    2    0    0  0.27263909791E+02 -0.61352670456E+01  0.29533103486E+02  0.50528849980E+02  0.29999970000E+02 0.  0.
        -12    1    1    2    0    0 -0.27263909791E+02  0.61352670456E+01 -0.29533103486E+02  0.40659150020E+02  0.00000000000E+00 0.  1.
         11    1    3    3    0    0  0.14656798990E+02  0.20268277704E+01  0.19248366328E+02  0.24278167023E+02  0.51100000000E-03 0. -1.
        -11    1    3    3    0    0  0.47360693904E+00  0.24691158335E+01 -0.39858236092E+01  0.47124968580E+01  0.51100000000E-03 0.  1.
         12    1    3    3    0    0  0.12133503862E+02 -0.10631210649E+02  0.14270560767E+02  0.21538186099E+02  0.00000000000E+00 0. -1.
</event>
<event>
 7    1  0.5005325E-012  0.5052886E+02  0.7816164E-02  0.1300439E+00
        -11   -1    0    0    0    0  0.00000000000E+00  0.00000000000E+00  0.45593999997E+02  0.45594000000E+02  0.51100000000E-03 0. -1.
         11   -1    0    0    0    0 -0.00000000000E+00 -0.00000000000E+00 -0.45593999997E+02  0.45594000000E+02  0.51100000000E-03 0.  1.
    9900012    2    1    2    0    0 -0.32328181312E+01 -0.29252007812E+02  0.28054134892E+02  0.50528861315E+02  0.30000004453E+02 0.  0.
        -12    1    1    2    0    0  0.32328181312E+01  0.29252007812E+02 -0.28054134892E+02  0.40659138685E+02  0.00000000000E+00 0.  1.
         11    1    3    3    0    0 -0.17529143069E+01 -0.17064043104E+02  0.22577618235E+02  0.28354948793E+02  0.51100000000E-03 0. -1.
        -11    1    3    3    0    0 -0.84569401713E+01 -0.56661400374E+01  0.72006990678E+01  0.12468963361E+02  0.51100000000E-03 0.  1.
        -12    1    3    3    0    0  0.69770363470E+01 -0.65218246708E+01 -0.17241824110E+01  0.97049491606E+01  0.00000000000E+00 0.  1.
</event>
<event>
 7    1  0.5005325E-012  0.5052886E+02  0.7816164E-02  0.1300439E+00
        -11   -1    0    0    0    0  0.00000000000E+00  0.00000000000E+00  0.45593999997E+02  0.45594000000E+02  0.51100000000E-03 0.  1.
         11   -1    0    0    0    0 -0.00000000000E+00 -0.00000000000E+00 -0.45593999997E+02  0.45594000000E+02  0.51100000000E-03 0. -1.
    9900012    2    1    2    0    0 -0.22152157763E+02 -0.41443710777E+01 -0.33841862212E+02  0.50528861505E+02  0.30000005031E+02 0.  0.
         12    1    1    2    0    0  0.22152157763E+02  0.41443710777E+01  0.33841862212E+02  0.40659138495E+02  0.00000000000E+00 0. -1.
         11    1    3    3    0    0 -0.21844261184E+01  0.10760779024E+02 -0.51236256814E+01  0.12116832220E+02  0.51100000000E-03 0. -1.
        -11    1    3    3    0    0 -0.34299505309E+01 -0.23432508913E+01 -0.21117455804E+01  0.46599200681E+01  0.51100000000E-03 0.  1.
        -12    1    3    3    0    0 -0.16537781113E+02 -0.12561899210E+02 -0.26606490950E+02  0.33752109217E+02  0.00000000000E+00 0.  1.
</event>
<event>
 7    1  0.5005325E-012  0.5052888E+02  0.7816164E-02  0.1300439E+00
        -11   -1    0    0    0    0  0.00000000000E+00  0.00000000000E+00  0.45593999997E+02  0.45594000000E+02  0.51100000000E-03 0. -1.
         11   -1    0    0    0    0 -0.00000000000E+00 -0.00000000000E+00 -0.45593999997E+02  0.45594000000E+02  0.51100000000E-03 0.  1.
    9900012    2    1    2    0    0  0.17417421503E+02  0.22292137919E+02  0.29203729962E+02  0.50528882590E+02  0.30000069122E+02 0.  0.
        -12    1    1    2    0    0 -0.17417421503E+02 -0.22292137919E+02 -0.29203729962E+02  0.40659117410E+02  0.00000000000E+00 0.  1.
         11    1    3    3    0    0  0.15831300428E+02  0.19393334945E+02  0.10033115479E+02  0.26970259917E+02  0.51100000000E-03 0. -1.
        -11    1    3    3    0    0  0.45700462193E+01  0.20782044935E+01  0.19777693910E+02  0.20404936487E+02  0.51100000000E-03 0.  1.
        -12    1    3    3    0    0 -0.29839251439E+01  0.82059848122E+00 -0.60707942754E+00  0.31536861866E+01  0.00000000000E+00 0.  1.
</event>
<event>
 7    1  0.5005325E-012  0.5052886E+02  0.7816164E-02  0.1300439E+00
        -11   -1    0    0    0    0  0.00000000000E+00  0.00000000000E+00  0.45593999997E+02  0.45594000000E+02  0.51100000000E-03 0. -1.
         11   -1    0    0    0    0 -0.00000000000E+00 -0.00000000000E+00 -0.45593999997E+02  0.45594000000E+02  0.51100000000E-03 0.  1.
    9900012    2    1    2    0    0  0.15090397690E+02 -0.56524316395E+01 -0.37329555015E+02  0.50528858795E+02  0.29999996793E+02 0.  0.
         12    1    1    2    0    0 -0.15090397690E+02  0.56524316395E+01  0.37329555015E+02  0.40659141205E+02  0.00000000000E+00 0. -1.
         11    1    3    3    0    0  0.68149578532E+01 -0.47214610318E+01 -0.25322471727E+01  0.86688015793E+01  0.51100000000E-03 0. -1.
        -11    1    3    3    0    0  0.67193995709E+01 -0.93775806211E+01 -0.88846827486E+01  0.14561144759E+02  0.51100000000E-03 0.  1.
         12    1    3    3    0    0  0.15560402660E+01  0.84466100134E+01 -0.25912625094E+02  0.27298912456E+02  0.00000000000E+00 0. -1.
</event>
<event>
 7    1  0.5005325E-012  0.5052883E+02  0.7816164E-02  0.1300439E+00
        -11   -1    0    0    0    0  0.00000000000E+00  0.00000000000E+00  0.45593999997E+02  0.45594000000E+02  0.51100000000E-03 0. -1.
         11   -1    0    0    0    0 -0.00000000000E+00 -0.00000000000E+00 -0.45593999997E+02  0.45594000000E+02  0.51100000000E-03 0.  1.
    9900012    2    1    2    0    0  0.23104102968E+01  0.48265194179E+01 -0.40305514038E+02  0.50528834400E+02  0.29999922641E+02 0.  0.
         12    1    1    2    0    0 -0.23104102968E+01 -0.48265194179E+01  0.40305514038E+02  0.40659165600E+02  0.00000000000E+00 0. -1.
         11    1    3    3    0    0 -0.54249561530E+00 -0.57432489109E+01 -0.67659707870E+01  0.88914324210E+01  0.51100000000E-03 0. -1.
        -11    1    3    3    0    0  0.84433995041E+01  0.89842275167E+01 -0.33637269015E+02  0.35825594291E+02  0.51100000000E-03 0.  1.
         12    1    3    3    0    0 -0.55904935920E+01  0.15855408120E+01  0.97725764078E-01  0.58118076873E+01  0.00000000000E+00 0. -1.
</event>
<event>
 7    1  0.5005325E-012  0.5052887E+02  0.7816164E-02  0.1300439E+00
        -11   -1    0    0    0    0  0.00000000000E+00  0.00000000000E+00  0.45593999997E+02  0.45594000000E+02  0.51100000000E-03 0. -1.
         11   -1    0    0    0    0 -0.00000000000E+00 -0.00000000000E+00 -0.45593999997E+02  0.45594000000E+02  0.51100000000E-03 0.  1.
    9900012    2    1    2    0    0 -0.72226033578E+01 -0.26671402744E+02 -0.29826755821E+02  0.50528867121E+02  0.30000022102E+02 0.  0.
         12    1    1    2    0    0  0.72226033578E+01  0.26671402744E+02  0.29826755821E+02  0.40659132879E+02  0.00000000000E+00 0. -1.
         11    1    3    3    0    0 -0.66749148919E+01 -0.44728606661E+01  0.25484123558E+01  0.84294351619E+01  0.51100000000E-03 0. -1.
        -11    1    3    3    0    0  0.18841920828E+01 -0.13507142081E+02 -0.73411885597E+01  0.15488257382E+02  0.51100000000E-03 0.  1.
        -12    1    3    3    0    0 -0.24318805487E+01 -0.86913999977E+01 -0.25033979618E+02  0.26611174578E+02  0.00000000000E+00 0.  1.
</event>
<event>
 7    1  0.5005325E-012  0.5052886E+02  0.7816164E-02  0.1300439E+00
        -11   -1    0    0    0    0  0.00000000000E+00  0.00000000000E+00  0.45593999997E+02  0.45594000000E+02  0.51100000000E-03 0. -1.
         11   -1    0    0    0    0 -0.00000000000E+00 -0.00000000000E+00 -0.45593999997E+02  0.45594000000E+02  0.51100000000E-03 0.  1.
    9900012    2    1    2    0    0  0.69099532477E+01  0.59764035781E+01  0.39619452505E+02  0.50528857480E+02  0.29999992797E+02 0.  0.
        -12    1    1    2    0    0 -0.69099532477E+01 -0.59764035781E+01 -0.39619452505E+02  0.40659142520E+02  0.00000000000E+00 0.  1.
         11    1    3    3    0    0  0.13418597032E+02  0.78197356941E+01  0.29025029516E+02  0.32918981626E+02  0.51100000000E-03 0. -1.
        -11    1    3    3    0    0  0.32926357728E+01 -0.23182764590E+01  0.17180678127E+01  0.43780832955E+01  0.51100000000E-03 0.  1.
         12    1    3    3    0    0 -0.98012795574E+01  0.47494434295E+00  0.88763551769E+01  0.13231792559E+02  0.00000000000E+00 0. -1.
</event>
<event>
 7    1  0.5005325E-012  0.5052886E+02  0.7816164E-02  0.1300439E+00
        -11   -1    0    0    0    0  0.00000000000E+00  0.00000000000E+00  0.45593999997E+02  0.45594000000E+02  0.51100000000E-03 0. -1.
         11   -1    0    0    0    0 -0.00000000000E+00 -0.00000000000E+00 -0.45593999997E+02  0.45594000000E+02  0.51100000000E-03 0.  1.
    9900012    2    1    2    0    0 -0.74214194718E+01  0.90436760187E+01  0.38939699525E+02  0.50528859059E+02  0.29999997597E+02 0.  0.
        -12    1    1    2    0    0  0.74214194718E+01 -0.90436760187E+01 -0.38939699525E+02  0.40659140941E+02  0.00000000000E+00 0.  1.
         11    1    3    3    0    0 -0.11672007155E+02  0.30775139290E+00  0.27298588440E+02  0.29690796437E+02  0.51100000000E-03 0. -1.
        -11    1    3    3    0    0 -0.16398977283E+01  0.93034490619E+01  0.22065500344E+01  0.97011490207E+01  0.51100000000E-03 0.  1.
        -12    1    3    3    0    0  0.58904854112E+01 -0.56752443615E+00  0.94345610506E+01  0.11136913602E+02  0.00000000000E+00 0.  1.
</event>
<event>
 7    1  0.5005325E-012  0.5052886E+02  0.7816164E-02  0.1300439E+00
        -11   -1    0    0    0    0  0.00000000000E+00  0.00000000000E+00  0.45593999997E+02  0.45594000000E+02  0.51100000000E-03 0. -1.
         11   -1    0    0    0    0 -0.00000000000E+00 -0.00000000000E+00 -0.45593999997E+02  0.45594000000E+02  0.51100000000E-03 0.  1.
    9900012    2    1    2    0    0  0.27771157452E+02  0.93462363119E+01 -0.28188228453E+02  0.50528861510E+02  0.30000005045E+02 0.  0.
         12    1    1    2    0    0 -0.27771157452E+02 -0.93462363119E+01  0.28188228453E+02  0.40659138490E+02  0.00000000000E+00 0. -1.
         11    1    3    3    0    0  0.13063612581E+02  0.38322932158E+01 -0.25055114550E+01  0.13842761028E+02  0.51100000000E-03 0. -1.
        -11    1    3    3    0    0  0.20087985075E+02  0.54548813643E+01 -0.20315078668E+02  0.29085826387E+02  0.51100000000E-03 0.  1.
        -12    1    3    3    0    0 -0.53804402037E+01  0.59061731830E-01 -0.53676383298E+01  0.76002740946E+01  0.00000000000E+00 0.  1.
</event>
<event>
 7    1  0.5005325E-012  0.5052887E+02  0.7816164E-02  0.1300439E+00
        -11   -1    0    0    0    0  0.00000000000E+00  0.00000000000E+00  0.45593999997E+02  0.45594000000E+02  0.51100000000E-03 0. -1.
         11   -1    0    0    0    0 -0.00000000000E+00 -0.00000000000E+00 -0.45593999997E+02  0.45594000000E+02  0.51100000000E-03 0.  1.
    9900012    2    1    2    0    0  0.12075182486E+02 -0.32761136691E+02  0.20834178728E+02  0.50528866799E+02  0.30000021123E+02 0.  0.
        -12    1    1    2    0    0 -0.12075182486E+02  0.32761136691E+02 -0.20834178728E+02  0.40659133201E+02  0.00000000000E+00 0.  1.
         11    1    3    3    0    0  0.58485023679E+01 -0.17251521979E+02  0.21184421194E+02  0.27939214236E+02  0.51100000000E-03 0. -1.
        -11    1    3    3    0    0 -0.50352419282E+01 -0.60684578267E+01  0.12011406259E+00  0.78863343398E+01  0.51100000000E-03 0.  1.
        -12    1    3    3    0    0  0.11261922046E+02 -0.94411568851E+01 -0.47035652893E+00  0.14703318223E+02  0.00000000000E+00 0.  1.
</event>
<event>
 7    1  0.5005325E-012  0.5052886E+02  0.7816164E-02  0.1300439E+00
        -11   -1    0    0    0    0  0.00000000000E+00  0.00000000000E+00  0.45593999997E+02  0.45594000000E+02  0.51100000000E-03 0. -1.
         11   -1    0    0    0    0 -0.00000000000E+00 -0.00000000000E+00 -0.45593999997E+02  0.45594000000E+02  0.51100000000E-03 0.  1.
    9900012    2    1    2    0    0 -0.23445452309E+02 -0.18284595162E+02 -0.27733549855E+02  0.50528862751E+02  0.30000008819E+02 0.  0.
         12    1    1    2    0    0  0.23445452309E+02  0.18284595162E+02  0.27733549855E+02  0.40659137249E+02  0.00000000000E+00 0. -1.
         11    1    3    3    0    0 -0.60630306144E+01 -0.13605674762E+02 -0.35106927170E+01  0.15303584206E+02  0.51100000000E-03 0. -1.
        -11    1    3    3    0    0 -0.58673161866E+01  0.12737782470E+01  0.17017462697E+01  0.62405008520E+01  0.51100000000E-03 0.  1.
         12    1    3    3    0    0 -0.11515105508E+02 -0.59526986472E+01 -0.25924603408E+02  0.28984777693E+02  0.00000000000E+00 0. -1.
</event>
<event>
 7    1  0.5005325E-012  0.5052879E+02  0.7816164E-02  0.1300439E+00
        -11   -1    0    0    0    0  0.00000000000E+00  0.00000000000E+00  0.45593999997E+02  0.45594000000E+02  0.51100000000E-03 0. -1.
         11   -1    0    0    0    0 -0.00000000000E+00 -0.00000000000E+00 -0.45593999997E+02  0.45594000000E+02  0.51100000000E-03 0.  1.
    9900012    2    1    2    0    0 -0.27261502555E+02  0.26489983657E+02 -0.14431303764E+02  0.50528790908E+02  0.29999790443E+02 0.  0.
         12    1    1    2    0    0  0.27261502555E+02 -0.26489983657E+02  0.14431303764E+02  0.40659209092E+02  0.00000000000E+00 0. -1.
         11    1    3    3    0    0 -0.29460347519E+01  0.12755647670E+01 -0.82632585576E+01  0.88649663555E+01  0.51100000000E-03 0. -1.
        -11    1    3    3    0    0 -0.48150199981E+01  0.16980149550E+02 -0.97984022251E+01  0.20187089506E+02  0.51100000000E-03 0.  1.
        -12    1    3    3    0    0 -0.19500447805E+02  0.82342693400E+01  0.36303570188E+01  0.21476735046E+02  0.00000000000E+00 0.  1.
</event>
<event>
 7    1  0.5005325E-012  0.5052888E+02  0.7816164E-02  0.1300439E+00
        -11   -1    0    0    0    0  0.00000000000E+00  0.00000000000E+00  0.45593999997E+02  0.45594000000E+02  0.51100000000E-03 0. -1.
         11   -1    0    0    0    0 -0.00000000000E+00 -0.00000000000E+00 -0.45593999997E+02  0.45594000000E+02  0.51100000000E-03 0.  1.
    9900012    2    1    2    0    0  0.10686755496E+02 -0.15760438951E+02  0.35924449438E+02  0.50528877451E+02  0.30000053501E+02 0.  0.
        -12    1    1    2    0    0 -0.10686755496E+02  0.15760438951E+02 -0.35924449438E+02  0.40659122549E+02  0.00000000000E+00 0.  1.
         11    1    3    3    0    0  0.35082606141E+01  0.37257108626E+01  0.73225285445E+00  0.51696236296E+01  0.51100000000E-03 0. -1.
        -11    1    3    3    0    0  0.16895531058E+01  0.13099569176E+01  0.17158314325E+02  0.17290989780E+02  0.51100000000E-03 0.  1.
         12    1    3    3    0    0  0.54889417763E+01 -0.20796106731E+02  0.18033882259E+02  0.28068264042E+02  0.00000000000E+00 0. -1.
</event>
<event>
 7    1  0.5005325E-012  0.5052886E+02  0.7816164E-02  0.1300439E+00
        -11   -1    0    0    0    0  0.00000000000E+00  0.00000000000E+00  0.45593999997E+02  0.45594000000E+02  0.51100000000E-03 0. -1.
         11   -1    0    0    0    0 -0.00000000000E+00 -0.00000000000E+00 -0.45593999997E+02  0.45594000000E+02  0.51100000000E-03 0.  1.
    9900012    2    1    2    0    0 -0.10112604505E+02  0.33224120272E+02  0.21143765296E+02  0.50528858978E+02  0.29999997351E+02 0.  0.
        -12    1    1    2    0    0  0.10112604505E+02 -0.33224120272E+02 -0.21143765296E+02  0.40659141022E+02  0.00000000000E+00 0.  1.
         11    1    3    3    0    0  0.41259088578E+01  0.66368772214E+01  0.44903697278E+01  0.90130285536E+01  0.51100000000E-03 0. -1.
        -11    1    3    3    0    0 -0.85103563954E+01  0.20014764996E+02  0.22283242182E+02  0.31137756281E+02  0.51100000000E-03 0.  1.
        -12    1    3    3    0    0 -0.57281569669E+01  0.65724780550E+01 -0.56298466147E+01  0.10378074143E+02  0.00000000000E+00 0.  1.
</event>
<event>
 7    1  0.5005325E-012  0.5052886E+02  0.7816164E-02  0.1300439E+00
        -11   -1    0    0    0    0  0.00000000000E+00  0.00000000000E+00  0.45593999997E+02  0.45594000000E+02  0.51100000000E-03 0.  1.
         11   -1    0    0    0    0 -0.00000000000E+00 -0.00000000000E+00 -0.45593999997E+02  0.45594000000E+02  0.51100000000E-03 0. -1.
    9900012    2    1    2    0    0  0.12978337190E+01 -0.30101760038E+02 -0.27301379524E+02  0.50528860146E+02  0.30000000900E+02 0.  0.
         12    1    1    2    0    0 -0.12978337190E+01  0.30101760038E+02  0.27301379524E+02  0.40659139854E+02  0.00000000000E+00 0. -1.
         11    1    3    3    0    0  0.65280363318E+01 -0.63971697853E+00 -0.10864520834E+02  0.12691032636E+02  0.51100000000E-03 0. -1.
        -11    1    3    3    0    0  0.13573662249E+01 -0.11152287123E+01  0.25449247728E+01  0.30923810421E+01  0.51100000000E-03 0.  1.
        -12    1    3    3    0    0 -0.65875688377E+01 -0.28346814347E+02 -0.18981783463E+02  0.34745446468E+02  0.00000000000E+00 0.  1.
</event>
<event>
 7    1  0.5005325E-012  0.5052888E+02  0.7816164E-02  0.1300439E+00
        -11   -1    0    0    0    0  0.00000000000E+00  0.00000000000E+00  0.45593999997E+02  0.45594000000E+02  0.51100000000E-03 0. -1.
         11   -1    0    0    0    0 -0.00000000000E+00 -0.00000000000E+00 -0.45593999997E+02  0.45594000000E+02  0.51100000000E-03 0.  1.
    9900012    2    1    2    0    0 -0.21316520520E+02  0.21403263928E+02  0.27215264644E+02  0.50528875766E+02  0.30000048377E+02 0.  0.
        -12    1    1    2    0    0  0.21316520520E+02 -0.21403263928E+02 -0.27215264644E+02  0.40659124234E+02  0.00000000000E+00 0.  1.
         11    1    3    3    0    0 -0.15492232410E+01  0.25600645700E+01  0.12817868280E+02  0.13162513846E+02  0.51100000000E-03 0.  1.
        -11    1    3    3    0    0 -0.62362758436E+01  0.16467539743E+02  0.15667313015E+02  0.23569804813E+02  0.51100000000E-03 0. -1.
        -12    1    3    3    0    0 -0.13531021435E+02  0.23756596156E+01 -0.12699166505E+01  0.13796557106E+02  0.00000000000E+00 0.  1.
</event>
<event>
 7    1  0.5005325E-012  0.5052886E+02  0.7816164E-02  0.1300439E+00
        -11   -1    0    0    0    0  0.00000000000E+00  0.00000000000E+00  0.45593999997E+02  0.45594000000E+02  0.51100000000E-03 0.  1.
         11   -1    0    0    0    0 -0.00000000000E+00 -0.00000000000E+00 -0.45593999997E+02  0.45594000000E+02  0.51100000000E-03 0. -1.
    9900012    2    1    2    0    0 -0.25899226688E+02 -0.29528068857E+02 -0.10511379537E+02  0.50528857200E+02  0.29999991946E+02 0.  0.
         12    1    1    2    0    0  0.25899226688E+02  0.29528068857E+02  0.10511379537E+02  0.40659142800E+02  0.00000000000E+00 0. -1.
         11    1    3    3    0    0 -0.13148844861E+02 -0.33527008421E+01 -0.26480147438E+01  0.13825509266E+02  0.51100000000E-03 0. -1.
        -11    1    3    3    0    0 -0.10217460488E+01 -0.54522416737E+01  0.67715653338E+01  0.87535707907E+01  0.51100000000E-03 0.  1.
         12    1    3    3    0    0 -0.11728635778E+02 -0.20723126341E+02 -0.14634930127E+02  0.27949777144E+02  0.00000000000E+00 0. -1.
</event>
<event>
 7    1  0.5005325E-012  0.5052886E+02  0.7816164E-02  0.1300439E+00
        -11   -1    0    0    0    0  0.00000000000E+00  0.00000000000E+00  0.45593999997E+02  0.45594000000E+02  0.51100000000E-03 0. -1.
         11   -1    0    0    0    0 -0.00000000000E+00 -0.00000000000E+00 -0.45593999997E+02  0.45594000000E+02  0.51100000000E-03 0.  1.
    9900012    2    1    2    0    0  0.24571356324E+01  0.26301917799E+02 -0.30908527935E+02  0.50528862104E+02  0.30000006850E+02 0.  0.
         12    1    1    2    0    0 -0.24571356324E+01 -0.26301917799E+02  0.30908527935E+02  0.40659137896E+02  0.00000000000E+00 0. -1.
         11    1    3    3    0    0  0.37573747397E+01  0.72879923406E+01 -0.24030464055E+02  0.25390862535E+02  0.51100000000E-03 0. -1.
        -11    1    3    3    0    0  0.23169213124E+01  0.14797477963E+02 -0.10689310645E+02  0.18400946735E+02  0.51100000000E-03 0.  1.
         12    1    3    3    0    0 -0.36171604196E+01  0.42164474951E+01  0.38112467651E+01  0.67370528338E+01  0.00000000000E+00 0. -1.
</event>
<event>
 7    1  0.5005325E-012  0.5052885E+02  0.7816164E-02  0.1300439E+00
        -11   -1    0    0    0    0  0.00000000000E+00  0.00000000000E+00  0.45593999997E+02  0.45594000000E+02  0.51100000000E-03 0.  1.
         11   -1    0    0    0    0 -0.00000000000E+00 -0.00000000000E+00 -0.45593999997E+02  0.45594000000E+02  0.51100000000E-03 0. -1.
    9900012    2    1    2    0    0  0.11301970743E+02  0.38027276342E+02  0.89083011326E+01  0.50528854439E+02  0.29999983553E+02 0.  0.
        -12    1    1    2    0    0 -0.11301970743E+02 -0.38027276342E+02 -0.89083011326E+01  0.40659145561E+02  0.00000000000E+00 0.  1.
         11    1    3    3    0    0  0.13018135311E+02  0.14553607822E+02  0.56813186265E+01  0.20336094247E+02  0.51100000000E-03 0. -1.
        -11    1    3    3    0    0  0.59482555082E+01  0.15994864384E+02  0.75291187908E+01  0.18652213281E+02  0.51100000000E-03 0.  1.
        -12    1    3    3    0    0 -0.76644200760E+01  0.74788041366E+01 -0.43021362846E+01  0.11540546912E+02  0.00000000000E+00 0.  1.
</event>
<event>
 7    1  0.5005325E-012  0.5052886E+02  0.7816164E-02  0.1300439E+00
        -11   -1    0    0    0    0  0.00000000000E+00  0.00000000000E+00  0.45593999997E+02  0.45594000000E+02  0.51100000000E-03 0. -1.
         11   -1    0    0    0    0 -0.00000000000E+00 -0.00000000000E+00 -0.45593999997E+02  0.45594000000E+02  0.51100000000E-03 0.  1.
    9900012    2    1    2    0    0 -0.30608472107E+02 -0.17422628933E+02 -0.20315981347E+02  0.50528860046E+02  0.30000000597E+02 0.  0.
         12    1    1    2    0    0  0.30608472107E+02  0.17422628933E+02  0.20315981347E+02  0.40659139954E+02  0.00000000000E+00 0. -1.
         11    1    3    3    0    0 -0.25258456044E+02 -0.40599958218E+01 -0.74466261174E+01  0.26644425470E+02  0.51100000000E-03 0. -1.
        -11    1    3    3    0    0 -0.38443919604E+01  0.22245500485E+01 -0.32861796629E+01  0.55251198631E+01  0.51100000000E-03 0.  1.
        -12    1    3    3    0    0 -0.15056241023E+01 -0.15587183160E+02 -0.95831755670E+01  0.18359314713E+02  0.00000000000E+00 0.  1.
</event>
<event>
 7    1  0.5005325E-012  0.5052886E+02  0.7816164E-02  0.1300439E+00
        -11   -1    0    0    0    0  0.00000000000E+00  0.00000000000E+00  0.45593999997E+02  0.45594000000E+02  0.51100000000E-03 0.  1.
         11   -1    0    0    0    0 -0.00000000000E+00 -0.00000000000E+00 -0.45593999997E+02  0.45594000000E+02  0.51100000000E-03 0. -1.
    9900012    2    1    2    0    0 -0.36710514799E+02  0.65848728153E+01  0.16190830500E+02  0.50528862784E+02  0.30000008919E+02 0.  0.
        -12    1    1    2    0    0  0.36710514799E+02 -0.65848728153E+01 -0.16190830500E+02  0.40659137216E+02  0.00000000000E+00 0.  1.
         11    1    3    3    0    0 -0.86864670117E+01 -0.44329708978E+00 -0.80738650780E+01  0.11867540563E+02  0.51100000000E-03 0. -1.
        -11    1    3    3    0    0 -0.78096219930E+01 -0.18411885690E+01  0.65319336870E+01  0.10346319586E+02  0.51100000000E-03 0.  1.
        -12    1    3    3    0    0 -0.20214425795E+02  0.88693584741E+01  0.17732761891E+02  0.28315002636E+02  0.00000000000E+00 0.  1.
</event>
<event>
 7    1  0.5005325E-012  0.5052885E+02  0.7816164E-02  0.1300439E+00
        -11   -1    0    0    0    0  0.00000000000E+00  0.00000000000E+00  0.45593999997E+02  0.45594000000E+02  0.51100000000E-03 0. -1.
         11   -1    0    0    0    0 -0.00000000000E+00 -0.00000000000E+00 -0.45593999997E+02  0.45594000000E+02  0.51100000000E-03 0.  1.
    9900012    2    1    2    0    0 -0.52792736262E+01 -0.21627972000E+02  0.34022440380E+02  0.50528851555E+02  0.29999974788E+02 0.  0.
        -12    1    1    2    0    0  0.52792736262E+01  0.21627972000E+02 -0.34022440380E+02  0.40659148445E+02  0.00000000000E+00 0.  1.
         11    1    3    3    0    0  0.54263866766E+01 -0.82473277936E+01  0.41302806617E+01  0.10701556275E+02  0.51100000000E-03 0. -1.
        -11    1    3    3    0    0  0.14793807542E+01 -0.13079977602E+02  0.20822688911E+02  0.24634503348E+02  0.51100000000E-03 0.  1.
        -12    1    3    3    0    0 -0.12185041057E+02 -0.30066660430E+00  0.90694708074E+01  0.15192791932E+02  0.00000000000E+00 0.  1.
</event>
<event>
 7    1  0.5005325E-012  0.5052887E+02  0.7816164E-02  0.1300439E+00
        -11   -1    0    0    0    0  0.00000000000E+00  0.00000000000E+00  0.45593999997E+02  0.45594000000E+02  0.51100000000E-03 0. -1.
         11   -1    0    0    0    0 -0.00000000000E+00 -0.00000000000E+00 -0.45593999997E+02  0.45594000000E+02  0.51100000000E-03 0.  1.
    9900012    2    1    2    0    0  0.25200122087E+02 -0.32343446143E+01 -0.31743630954E+02  0.50528865179E+02  0.30000016197E+02 0.  0.
         12    1    1    2    0    0 -0.25200122087E+02  0.32343446143E+01  0.31743630954E+02  0.40659134821E+02  0.00000000000E+00 0. -1.
         11    1    3    3    0    0 -0.28163758192E+01  0.29195687368E+01 -0.26053470332E+01  0.48211707902E+01  0.51100000000E-03 0. -1.
        -11    1    3    3    0    0  0.24482377821E+02 -0.76702905290E+01 -0.31926518433E+02  0.40957572683E+02  0.51100000000E-03 0.  1.
         12    1    3    3    0    0  0.35341200851E+01  0.15163771778E+01  0.27882345122E+01  0.47501217054E+01  0.00000000000E+00 0. -1.
</event>
<event>
 7    1  0.5005325E-012  0.5052885E+02  0.7816164E-02  0.1300439E+00
        -11   -1    0    0    0    0  0.00000000000E+00  0.00000000000E+00  0.45593999997E+02  0.45594000000E+02  0.51100000000E-03 0. -1.
         11   -1    0    0    0    0 -0.00000000000E+00 -0.00000000000E+00 -0.45593999997E+02  0.45594000000E+02  0.51100000000E-03 0.  1.
    9900012    2    1    2    0    0  0.24637087251E+02  0.31695083989E+02  0.64499399021E+01  0.50528854140E+02  0.29999982645E+02 0.  0.
        -12    1    1    2    0    0 -0.24637087251E+02 -0.31695083989E+02 -0.64499399021E+01  0.40659145860E+02  0.00000000000E+00 0.  1.
         11    1    3    3    0    0  0.15646261847E+02  0.26072709168E+01  0.12137678914E+01  0.15908381570E+02  0.51100000000E-03 0. -1.
        -11    1    3    3    0    0 -0.10166984266E+01  0.52025953935E+01 -0.45002913828E+01  0.69536535225E+01  0.51100000000E-03 0.  1.
         12    1    3    3    0    0  0.10007523830E+02  0.23885217679E+02  0.97364633935E+01  0.27666819047E+02  0.00000000000E+00 0. -1.
</event>
<event>
 7    1  0.5005325E-012  0.5052885E+02  0.7816164E-02  0.1300439E+00
        -11   -1    0    0    0    0  0.00000000000E+00  0.00000000000E+00  0.45593999997E+02  0.45594000000E+02  0.51100000000E-03 0. -1.
         11   -1    0    0    0    0 -0.00000000000E+00 -0.00000000000E+00 -0.45593999997E+02  0.45594000000E+02  0.51100000000E-03 0.  1.
    9900012    2    1    2    0    0  0.21929807970E+01  0.27662396823E+02 -0.29717821708E+02  0.50528852323E+02  0.29999977121E+02 0.  0.
         12    1    1    2    0    0 -0.21929807970E+01 -0.27662396823E+02  0.29717821708E+02  0.40659147677E+02  0.00000000000E+00 0. -1.
         11    1    3    3    0    0 -0.43520611354E+01  0.17266585052E+02 -0.89255929016E+01  0.19918373538E+02  0.51100000000E-03 0. -1.
        -11    1    3    3    0    0  0.77648835304E-01  0.76554036622E+01  0.99389207337E+00  0.77200425056E+01  0.51100000000E-03 0.  1.
        -12    1    3    3    0    0  0.64673930971E+01  0.27404081085E+01 -0.21786120880E+02  0.22890436279E+02  0.00000000000E+00 0.  1.
</event>
<event>
 7    1  0.5005325E-012  0.5052886E+02  0.7816164E-02  0.1300439E+00
        -11   -1    0    0    0    0  0.00000000000E+00  0.00000000000E+00  0.45593999997E+02  0.45594000000E+02  0.51100000000E-03 0. -1.
         11   -1    0    0    0    0 -0.00000000000E+00 -0.00000000000E+00 -0.45593999997E+02  0.45594000000E+02  0.51100000000E-03 0.  1.
    9900012    2    1    2    0    0  0.13710057359E+02 -0.35514173249E+02 -0.14280873200E+02  0.50528861867E+02  0.30000006131E+02 0.  0.
         12    1    1    2    0    0 -0.13710057359E+02  0.35514173249E+02  0.14280873200E+02  0.40659138133E+02  0.00000000000E+00 0. -1.
         11    1    3    3    0    0  0.11482230579E+02 -0.95107036702E+01  0.10806875063E+01  0.14948678508E+02  0.51100000000E-03 0. -1.
        -11    1    3    3    0    0  0.78851576288E+01 -0.30971167518E+01 -0.47074748938E+01  0.96916543037E+01  0.51100000000E-03 0.  1.
         12    1    3    3    0    0 -0.56573308490E+01 -0.22906352827E+02 -0.10654085812E+02  0.25888529056E+02  0.00000000000E+00 0. -1.
</event>
<event>
 7    1  0.5568641E-012  0.5052889E+02  0.7816164E-02  0.1300439E+00
        -11   -1    0    0    0    0  0.00000000000E+00  0.00000000000E+00  0.45593999997E+02  0.45594000000E+02  0.51100000000E-03 0. -1.
         11   -1    0    0    0    0 -0.00000000000E+00 -0.00000000000E+00 -0.45593999997E+02  0.45594000000E+02  0.51100000000E-03 0.  1.
    9900012    2    1    2    0    0 -0.13565819671E+02 -0.15632525441E+01  0.38297363406E+02  0.50528889512E+02  0.30000090160E+02 0.  0.
        -12    1    1    2    0    0  0.13565819671E+02  0.15632525441E+01 -0.38297363406E+02  0.40659110488E+02  0.00000000000E+00 0.  1.
         11    1    3    3    0    0 -0.13946854972E+02 -0.90374484954E+00  0.16501340411E+02  0.21624656159E+02  0.51100000000E-03 0. -1.
        -11    1    3    3    0    0 -0.11665289733E-01 -0.94117084983E+01  0.15432600057E+02  0.18076104053E+02  0.51100000000E-03 0.  1.
        -12    1    3    3    0    0  0.39270059107E+00  0.87522008037E+01  0.63634229372E+01  0.10828129300E+02  0.00000000000E+00 0.  1.
</event>
<event>
 7    1  0.5005325E-012  0.5052886E+02  0.7816164E-02  0.1300439E+00
        -11   -1    0    0    0    0  0.00000000000E+00  0.00000000000E+00  0.45593999997E+02  0.45594000000E+02  0.51100000000E-03 0. -1.
         11   -1    0    0    0    0 -0.00000000000E+00 -0.00000000000E+00 -0.45593999997E+02  0.45594000000E+02  0.51100000000E-03 0.  1.
    9900012    2    1    2    0    0  0.14697663973E+02  0.30082211061E+02 -0.23069565155E+02  0.50528860990E+02  0.30000003465E+02 0.  0.
         12    1    1    2    0    0 -0.14697663973E+02 -0.30082211061E+02  0.23069565155E+02  0.40659139010E+02  0.00000000000E+00 0. -1.
         11    1    3    3    0    0  0.10337191170E+02  0.38787691829E+01 -0.10861887565E+01  0.11094240755E+02  0.51100000000E-03 0. -1.
        -11    1    3    3    0    0  0.26581588219E+01 -0.63470068086E+00 -0.93157264086E+01  0.97083166438E+01  0.51100000000E-03 0.  1.
        -12    1    3    3    0    0  0.17023139811E+01  0.26838142559E+02 -0.12667649990E+02  0.29726303591E+02  0.00000000000E+00 0.  1.
</event>
<event>
 7    1  0.5005325E-012  0.5052886E+02  0.7816164E-02  0.1300439E+00
        -11   -1    0    0    0    0  0.00000000000E+00  0.00000000000E+00  0.45593999997E+02  0.45594000000E+02  0.51100000000E-03 0.  1.
         11   -1    0    0    0    0 -0.00000000000E+00 -0.00000000000E+00 -0.45593999997E+02  0.45594000000E+02  0.51100000000E-03 0. -1.
    9900012    2    1    2    0    0 -0.23652655802E+02 -0.31709421936E+02  0.93931005766E+01  0.50528857063E+02  0.29999991528E+02 0.  0.
        -12    1    1    2    0    0  0.23652655802E+02  0.31709421936E+02 -0.93931005766E+01  0.40659142937E+02  0.00000000000E+00 0.  1.
         11    1    3    3    0    0 -0.22796856058E+02 -0.26467128799E+02 -0.39449764548E+01  0.35153497585E+02  0.51100000000E-03 0.  1.
        -11    1    3    3    0    0  0.45283912707E+00 -0.37882840917E+01  0.29990003924E+01  0.48528510433E+01  0.51100000000E-03 0. -1.
        -12    1    3    3    0    0 -0.13086388706E+01 -0.14540090449E+01  0.10339076639E+02  0.10522508434E+02  0.00000000000E+00 0.  1.
</event>
<event>
 7    1  0.5005325E-012  0.5052882E+02  0.7816164E-02  0.1300439E+00
        -11   -1    0    0    0    0  0.00000000000E+00  0.00000000000E+00  0.45593999997E+02  0.45594000000E+02  0.51100000000E-03 0. -1.
         11   -1    0    0    0    0 -0.00000000000E+00 -0.00000000000E+00 -0.45593999997E+02  0.45594000000E+02  0.51100000000E-03 0.  1.
    9900012    2    1    2    0    0 -0.22853318045E+02 -0.26623593285E+02  0.20544554970E+02  0.50528823865E+02  0.29999890620E+02 0.  0.
        -12    1    1    2    0    0  0.22853318045E+02  0.26623593285E+02 -0.20544554970E+02  0.40659176135E+02  0.00000000000E+00 0.  1.
         11    1    3    3    0    0 -0.14941410133E+02 -0.17663247646E+01  0.73194359961E+01  0.16731401121E+02  0.51100000000E-03 0. -1.
        -11    1    3    3    0    0  0.28848579611E+00 -0.41270780645E+01 -0.39002454157E+01  0.56857639740E+01  0.51100000000E-03 0.  1.
         12    1    3    3    0    0 -0.82003937088E+01 -0.20730190456E+02  0.17125364389E+02  0.28111658769E+02  0.00000000000E+00 0. -1.
</event>
<event>
 7    1  0.5005325E-012  0.5052879E+02  0.7816164E-02  0.1300439E+00
        -11   -1    0    0    0    0  0.00000000000E+00  0.00000000000E+00  0.45593999997E+02  0.45594000000E+02  0.51100000000E-03 0. -1.
         11   -1    0    0    0    0 -0.00000000000E+00 -0.00000000000E+00 -0.45593999997E+02  0.45594000000E+02  0.51100000000E-03 0.  1.
    9900012    2    1    2    0    0  0.21947690351E+02 -0.12290200698E+02 -0.31944034640E+02  0.50528788325E+02  0.29999782593E+02 0.  0.
         12    1    1    2    0    0 -0.21947690351E+02  0.12290200698E+02  0.31944034640E+02  0.40659211675E+02  0.00000000000E+00 0. -1.
         11    1    3    3    0    0 -0.57977281335E+01 -0.23575137796E+01 -0.67041267563E+01  0.91715232407E+01  0.51100000000E-03 0. -1.
        -11    1    3    3    0    0  0.36728831841E+01  0.35686951796E+01 -0.47240071706E+01  0.69672017466E+01  0.51100000000E-03 0.  1.
         12    1    3    3    0    0  0.24072535300E+02 -0.13501382098E+02 -0.20515900713E+02  0.34390063338E+02  0.00000000000E+00 0. -1.
</event>
<event>
 7    1  0.5005325E-012  0.5052887E+02  0.7816164E-02  0.1300439E+00
        -11   -1    0    0    0    0  0.00000000000E+00  0.00000000000E+00  0.45593999997E+02  0.45594000000E+02  0.51100000000E-03 0. -1.
         11   -1    0    0    0    0 -0.00000000000E+00 -0.00000000000E+00 -0.45593999997E+02  0.45594000000E+02  0.51100000000E-03 0.  1.
    9900012    2    1    2    0    0 -0.24737252873E+02  0.25407216615E+02 -0.19892366333E+02  0.50528873421E+02  0.30000041250E+02 0.  0.
         12    1    1    2    0    0  0.24737252873E+02 -0.25407216615E+02  0.19892366333E+02  0.40659126579E+02  0.00000000000E+00 0. -1.
         11    1    3    3    0    0 -0.13074336899E+02  0.42146583712E+01 -0.58393253630E+01  0.14926464802E+02  0.51100000000E-03 0. -1.
        -11    1    3    3    0    0 -0.19105146205E+01  0.41678184693E+00 -0.12442373218E+02  0.12595095267E+02  0.51100000000E-03 0.  1.
         12    1    3    3    0    0 -0.97524013537E+01  0.20775776397E+02 -0.16106677522E+01  0.23007313352E+02  0.00000000000E+00 0. -1.
</event>
<event>
 7    1  0.5005325E-012  0.5052884E+02  0.7816164E-02  0.1300439E+00
        -11   -1    0    0    0    0  0.00000000000E+00  0.00000000000E+00  0.45593999997E+02  0.45594000000E+02  0.51100000000E-03 0. -1.
         11   -1    0    0    0    0 -0.00000000000E+00 -0.00000000000E+00 -0.45593999997E+02  0.45594000000E+02  0.51100000000E-03 0.  1.
    9900012    2    1    2    0    0 -0.15973113298E+02  0.18209832743E+02  0.32656227223E+02  0.50528837030E+02  0.29999930638E+02 0.  0.
        -12    1    1    2    0    0  0.15973113298E+02 -0.18209832743E+02 -0.32656227223E+02  0.40659162970E+02  0.00000000000E+00 0.  1.
         11    1    3    3    0    0 -0.18081827620E+01  0.10068264925E+02  0.45361588679E+01  0.11190005408E+02  0.51100000000E-03 0. -1.
        -11    1    3    3    0    0  0.56830198490E+01  0.30656417453E+01  0.10452324609E+02  0.12286006833E+02  0.51100000000E-03 0.  1.
         12    1    3    3    0    0 -0.19847950385E+02  0.50759260722E+01  0.17667743746E+02  0.27052824789E+02  0.00000000000E+00 0. -1.
</event>
<event>
 7    1  0.5005325E-012  0.5052886E+02  0.7816164E-02  0.1300439E+00
        -11   -1    0    0    0    0  0.00000000000E+00  0.00000000000E+00  0.45593999997E+02  0.45594000000E+02  0.51100000000E-03 0. -1.
         11   -1    0    0    0    0 -0.00000000000E+00 -0.00000000000E+00 -0.45593999997E+02  0.45594000000E+02  0.51100000000E-03 0.  1.
    9900012    2    1    2    0    0  0.18056136528E+02  0.21864349375E+02  0.29139182442E+02  0.50528858429E+02  0.29999995680E+02 0.  0.
        -12    1    1    2    0    0 -0.18056136528E+02 -0.21864349375E+02 -0.29139182442E+02  0.40659141571E+02  0.00000000000E+00 0.  1.
         11    1    3    3    0    0  0.10676870991E+02  0.32981303770E+01  0.66367717370E+01  0.12996921847E+02  0.51100000000E-03 0. -1.
        -11    1    3    3    0    0 -0.10669044315E+01  0.21606515190E+01 -0.43370030603E+01  0.49614812162E+01  0.51100000000E-03 0.  1.
        -12    1    3    3    0    0  0.84461699688E+01  0.16405567479E+02  0.26839413765E+02  0.32570455366E+02  0.00000000000E+00 0.  1.
</event>
<event>
 7    1  0.5005325E-012  0.5052883E+02  0.7816164E-02  0.1300439E+00
        -11   -1    0    0    0    0  0.00000000000E+00  0.00000000000E+00  0.45593999997E+02  0.45594000000E+02  0.51100000000E-03 0. -1.
         11   -1    0    0    0    0 -0.00000000000E+00 -0.00000000000E+00 -0.45593999997E+02  0.45594000000E+02  0.51100000000E-03 0.  1.
    9900012    2    1    2    0    0 -0.88459951941E+01  0.80915674120E+01  0.38851555629E+02  0.50528825526E+02  0.29999895668E+02 0.  0.
        -12    1    1    2    0    0  0.88459951941E+01 -0.80915674120E+01 -0.38851555629E+02  0.40659174474E+02  0.00000000000E+00 0.  1.
         11    1    3    3    0    0  0.30195155896E-01  0.37768662615E+01  0.12575264089E+02  0.13130228394E+02  0.51100000000E-03 0. -1.
        -11    1    3    3    0    0 -0.85567936002E+01  0.14059378383E+02  0.13259757160E+02  0.21135420446E+02  0.51100000000E-03 0.  1.
        -12    1    3    3    0    0 -0.31939674977E+00 -0.97446772325E+01  0.13016534380E+02  0.16263176686E+02  0.00000000000E+00 0.  1.
</event>
<event>
 7    1  0.5005325E-012  0.5052886E+02  0.7816164E-02  0.1300439E+00
        -11   -1    0    0    0    0  0.00000000000E+00  0.00000000000E+00  0.45593999997E+02  0.45594000000E+02  0.51100000000E-03 0. -1.
         11   -1    0    0    0    0 -0.00000000000E+00 -0.00000000000E+00 -0.45593999997E+02  0.45594000000E+02  0.51100000000E-03 0.  1.
    9900012    2    1    2    0    0 -0.15793401849E+02 -0.43886341772E+01 -0.37208521393E+02  0.50528859378E+02  0.29999998564E+02 0.  0.
         12    1    1    2    0    0  0.15793401849E+02  0.43886341772E+01  0.37208521393E+02  0.40659140622E+02  0.00000000000E+00 0. -1.
         11    1    3    3    0    0 -0.11487248303E+01  0.28418893144E+01 -0.36488182229E+01  0.47654777616E+01  0.51100000000E-03 0. -1.
        -11    1    3    3    0    0 -0.14471904420E+02  0.40298441845E+00 -0.35104977867E+02  0.37973120563E+02  0.51100000000E-03 0.  1.
         12    1    3    3    0    0 -0.17277259926E+00 -0.76335079100E+01  0.15452746972E+01  0.77902610529E+01  0.00000000000E+00 0. -1.
</event>
<event>
 7    1  0.5005325E-012  0.5052884E+02  0.7816164E-02  0.1300439E+00
        -11   -1    0    0    0    0  0.00000000000E+00  0.00000000000E+00  0.45593999997E+02  0.45594000000E+02  0.51100000000E-03 0. -1.
         11   -1    0    0    0    0 -0.00000000000E+00 -0.00000000000E+00 -0.45593999997E+02  0.45594000000E+02  0.51100000000E-03 0.  1.
    9900012    2    1    2    0    0 -0.21651117950E+02  0.31134655431E+02 -0.14663877613E+02  0.50528843787E+02  0.29999951176E+02 0.  0.
         12    1    1    2    0    0  0.21651117950E+02 -0.31134655431E+02  0.14663877613E+02  0.40659156213E+02  0.00000000000E+00 0. -1.
         11    1    3    3    0    0 -0.12070265946E+01  0.28888422091E+01  0.17018178556E+01  0.35634964269E+01  0.51100000000E-03 0. -1.
        -11    1    3    3    0    0 -0.22340194321E+02  0.32306521939E+02 -0.16178463017E+02  0.42479857673E+02  0.51100000000E-03 0.  1.
         12    1    3    3    0    0  0.18961029657E+01 -0.40607087173E+01 -0.18723245127E+00  0.44854896873E+01  0.00000000000E+00 0. -1.
</event>
<event>
 7    1  0.5005325E-012  0.5052886E+02  0.7816164E-02  0.1300439E+00
        -11   -1    0    0    0    0  0.00000000000E+00  0.00000000000E+00  0.45593999997E+02  0.45594000000E+02  0.51100000000E-03 0. -1.
         11   -1    0    0    0    0 -0.00000000000E+00 -0.00000000000E+00 -0.45593999997E+02  0.45594000000E+02  0.51100000000E-03 0.  1.
    9900012    2    1    2    0    0 -0.85362767500E+01  0.48326065992E+01  0.39458124039E+02  0.50528860069E+02  0.30000000664E+02 0.  0.
        -12    1    1    2    0    0  0.85362767500E+01 -0.48326065992E+01 -0.39458124039E+02  0.40659139931E+02  0.00000000000E+00 0.  1.
         11    1    3    3    0    0 -0.68515393863E+01 -0.14687071059E+01  0.20666962604E+02  0.21822557964E+02  0.51100000000E-03 0. -1.
        -11    1    3    3    0    0  0.74758004660E+01 -0.34633303495E+01  0.83179965017E+01  0.11707745974E+02  0.51100000000E-03 0.  1.
        -12    1    3    3    0    0 -0.91605378297E+01  0.97646440546E+01  0.10473164933E+02  0.16998556131E+02  0.00000000000E+00 0.  1.
</event>
<event>
 7    1  0.5005325E-012  0.5052897E+02  0.7816164E-02  0.1300438E+00
        -11   -1    0    0    0    0  0.00000000000E+00  0.00000000000E+00  0.45593999997E+02  0.45594000000E+02  0.51100000000E-03 0. -1.
         11   -1    0    0    0    0 -0.00000000000E+00 -0.00000000000E+00 -0.45593999997E+02  0.45594000000E+02  0.51100000000E-03 0.  1.
    9900012    2    1    2    0    0  0.15881976470E+02 -0.24004301565E+02  0.28717813623E+02  0.50528972841E+02  0.30000343446E+02 0.  0.
        -12    1    1    2    0    0 -0.15881976470E+02  0.24004301565E+02 -0.28717813623E+02  0.40659027159E+02  0.00000000000E+00 0.  1.
         11    1    3    3    0    0 -0.87463681659E+00 -0.17212832219E+01  0.14505672182E+02  0.14633602810E+02  0.51100000000E-03 0. -1.
        -11    1    3    3    0    0  0.16187776763E+01 -0.71720964944E+01 -0.34827215005E+01  0.81356473990E+01  0.51100000000E-03 0.  1.
         12    1    3    3    0    0  0.15137835611E+02 -0.15110921849E+02  0.17694862941E+02  0.27759722632E+02  0.00000000000E+00 0. -1.
</event>
<event>
 7    1  0.5005325E-012  0.5052886E+02  0.7816164E-02  0.1300439E+00
        -11   -1    0    0    0    0  0.00000000000E+00  0.00000000000E+00  0.45593999997E+02  0.45594000000E+02  0.51100000000E-03 0. -1.
         11   -1    0    0    0    0 -0.00000000000E+00 -0.00000000000E+00 -0.45593999997E+02  0.45594000000E+02  0.51100000000E-03 0.  1.
    9900012    2    1    2    0    0  0.78642530558E+01  0.29038628176E+02 -0.27351007818E+02  0.50528855504E+02  0.29999986791E+02 0.  0.
         12    1    1    2    0    0 -0.78642530558E+01 -0.29038628176E+02  0.27351007818E+02  0.40659144496E+02  0.00000000000E+00 0. -1.
         11    1    3    3    0    0 -0.18163157298E+01  0.14818301422E+02 -0.70695345421E+00  0.14945930661E+02  0.51100000000E-03 0. -1.
        -11    1    3    3    0    0  0.83370418125E+01  0.37148930530E+01 -0.28885178213E+01  0.95734127689E+01  0.51100000000E-03 0.  1.
        -12    1    3    3    0    0  0.13435269730E+01  0.10505433701E+02 -0.23755536542E+02  0.26009512075E+02  0.00000000000E+00 0.  1.
</event>
<event>
 7    1  0.5005325E-012  0.5052886E+02  0.7816164E-02  0.1300439E+00
        -11   -1    0    0    0    0  0.00000000000E+00  0.00000000000E+00  0.45593999997E+02  0.45594000000E+02  0.51100000000E-03 0. -1.
         11   -1    0    0    0    0 -0.00000000000E+00 -0.00000000000E+00 -0.45593999997E+02  0.45594000000E+02  0.51100000000E-03 0.  1.
    9900012    2    1    2    0    0 -0.51587575320E+01  0.21979561875E+02  0.33814962167E+02  0.50528860980E+02  0.30000003435E+02 0.  0.
        -12    1    1    2    0    0  0.51587575320E+01 -0.21979561875E+02 -0.33814962167E+02  0.40659139020E+02  0.00000000000E+00 0.  1.
         11    1    3    3    0    0  0.10808351589E+00  0.14012763318E+02  0.14352934738E+02  0.20059310898E+02  0.51100000000E-03 0. -1.
        -11    1    3    3    0    0 -0.57128340996E+01  0.11296367908E+02  0.21566883359E+01  0.12841172306E+02  0.51100000000E-03 0.  1.
        -12    1    3    3    0    0  0.44599305174E+00 -0.33295693508E+01  0.17305339093E+02  0.17628377776E+02  0.00000000000E+00 0.  1.
</event>
<event>
 7    1  0.5005325E-012  0.5052886E+02  0.7816164E-02  0.1300439E+00
        -11   -1    0    0    0    0  0.00000000000E+00  0.00000000000E+00  0.45593999997E+02  0.45594000000E+02  0.51100000000E-03 0. -1.
         11   -1    0    0    0    0 -0.00000000000E+00 -0.00000000000E+00 -0.45593999997E+02  0.45594000000E+02  0.51100000000E-03 0.  1.
    9900012    2    1    2    0    0 -0.32064618283E+02 -0.23210715041E+02  0.92891538221E+01  0.50528863056E+02  0.30000009745E+02 0.  0.
        -12    1    1    2    0    0  0.32064618283E+02  0.23210715041E+02 -0.92891538221E+01  0.40659136944E+02  0.00000000000E+00 0.  1.
         11    1    3    3    0    0 -0.10085281163E+02 -0.33603612008E+00 -0.46061729527E+01  0.11092458967E+02  0.51100000000E-03 0. -1.
        -11    1    3    3    0    0 -0.68961357953E+01 -0.10319455484E+02 -0.38326642360E+01  0.12989887059E+02  0.51100000000E-03 0.  1.
         12    1    3    3    0    0 -0.15083201325E+02 -0.12555223437E+02  0.17727991011E+02  0.26446517030E+02  0.00000000000E+00 0. -1.
</event>
<event>
 7    1  0.5005325E-012  0.5052886E+02  0.7816164E-02  0.1300439E+00
        -11   -1    0    0    0    0  0.00000000000E+00  0.00000000000E+00  0.45593999997E+02  0.45594000000E+02  0.51100000000E-03 0. -1.
         11   -1    0    0    0    0 -0.00000000000E+00 -0.00000000000E+00 -0.45593999997E+02  0.45594000000E+02  0.51100000000E-03 0.  1.
    9900012    2    1    2    0    0  0.24240867692E+02  0.16224015584E+02 -0.28325389362E+02  0.50528855510E+02  0.29999986809E+02 0.  0.
         12    1    1    2    0    0 -0.24240867692E+02 -0.16224015584E+02  0.28325389362E+02  0.40659144490E+02  0.00000000000E+00 0. -1.
         11    1    3    3    0    0  0.15881080333E+02  0.12910729873E+01 -0.74207475815E+01  0.17576776637E+02  0.51100000000E-03 0. -1.
        -11    1    3    3    0    0  0.10587586195E+02  0.67541536435E+01 -0.21007017311E+02  0.24474687933E+02  0.51100000000E-03 0.  1.
         12    1    3    3    0    0 -0.22277988365E+01  0.81787889532E+01  0.10237553016E+00  0.84773909398E+01  0.00000000000E+00 0. -1.
</event>
<event>
 7    1  0.5005325E-012  0.5052885E+02  0.7816164E-02  0.1300439E+00
        -11   -1    0    0    0    0  0.00000000000E+00  0.00000000000E+00  0.45593999997E+02  0.45594000000E+02  0.51100000000E-03 0. -1.
         11   -1    0    0    0    0 -0.00000000000E+00 -0.00000000000E+00 -0.45593999997E+02  0.45594000000E+02  0.51100000000E-03 0.  1.
    9900012    2    1    2    0    0  0.14037428473E+02 -0.24598745678E+02  0.29172223429E+02  0.50528852114E+02  0.29999976486E+02 0.  0.
        -12    1    1    2    0    0 -0.14037428473E+02  0.24598745678E+02 -0.29172223429E+02  0.40659147886E+02  0.00000000000E+00 0.  1.
         11    1    3    3    0    0  0.60658826306E+01 -0.14469876320E+02  0.11304621360E+02  0.19338219079E+02  0.51100000000E-03 0. -1.
        -11    1    3    3    0    0 -0.65702223952E+01 -0.28148492324E+01  0.11845192596E+02  0.13834731165E+02  0.51100000000E-03 0.  1.
         12    1    3    3    0    0  0.14541768237E+02 -0.73140201255E+01  0.60224094727E+01  0.17355901870E+02  0.00000000000E+00 0. -1.
</event>
<event>
 7    1  0.5005325E-012  0.5052886E+02  0.7816164E-02  0.1300439E+00
        -11   -1    0    0    0    0  0.00000000000E+00  0.00000000000E+00  0.45593999997E+02  0.45594000000E+02  0.51100000000E-03 0. -1.
         11   -1    0    0    0    0 -0.00000000000E+00 -0.00000000000E+00 -0.45593999997E+02  0.45594000000E+02  0.51100000000E-03 0.  1.
    9900012    2    1    2    0    0  0.46731056716E+01  0.13890883314E+02  0.37925867539E+02  0.50528856078E+02  0.29999988535E+02 0.  0.
        -12    1    1    2    0    0 -0.46731056716E+01 -0.13890883314E+02 -0.37925867539E+02  0.40659143922E+02  0.00000000000E+00 0.  1.
         11    1    3    3    0    0 -0.57323650176E+01  0.69374328033E+01  0.40983362117E+00  0.90086595259E+01  0.51100000000E-03 0. -1.
        -11    1    3    3    0    0  0.26603045601E+01 -0.16960480126E+01  0.11702301278E+01  0.33650019356E+01  0.51100000000E-03 0.  1.
         12    1    3    3    0    0  0.77451661291E+01  0.86494985231E+01  0.36345803790E+02  0.38155194617E+02  0.00000000000E+00 0. -1.
</event>
<event>
 7    1  0.7544004E-012  0.5052885E+02  0.7816164E-02  0.1300439E+00
        -11   -1    0    0    0    0  0.00000000000E+00  0.00000000000E+00  0.45593999997E+02  0.45594000000E+02  0.51100000000E-03 0. -1.
         11   -1    0    0    0    0 -0.00000000000E+00 -0.00000000000E+00 -0.45593999997E+02  0.45594000000E+02  0.51100000000E-03 0.  1.
    9900012    2    1    2    0    0 -0.18443111516E+02  0.46870129077E+01  0.35931182601E+02  0.50528851761E+02  0.29999975414E+02 0.  0.
        -12    1    1    2    0    0  0.18443111516E+02 -0.46870129077E+01 -0.35931182601E+02  0.40659148239E+02  0.00000000000E+00 0.  1.
         11    1    3    3    0    0 -0.32016327683E+01 -0.16229563358E+01  0.22966808027E+02  0.23245617025E+02  0.51100000000E-03 0. -1.
        -11    1    3    3    0    0 -0.12236306322E+02  0.16152522733E+01  0.16557337035E+02  0.20651431967E+02  0.51100000000E-03 0.  1.
        -12    1    3    3    0    0 -0.30051724253E+01  0.46947169702E+01 -0.35929624608E+01  0.66318027701E+01  0.00000000000E+00 0.  1.
</event>
<event>
 7    1  0.5005325E-012  0.5052898E+02  0.7816164E-02  0.1300438E+00
        -11   -1    0    0    0    0  0.00000000000E+00  0.00000000000E+00  0.45593999997E+02  0.45594000000E+02  0.51100000000E-03 0. -1.
         11   -1    0    0    0    0 -0.00000000000E+00 -0.00000000000E+00 -0.45593999997E+02  0.45594000000E+02  0.51100000000E-03 0.  1.
    9900012    2    1    2    0    0  0.16244153114E+02  0.73617649711E+01 -0.36538856631E+02  0.50528977166E+02  0.30000356593E+02 0.  0.
         12    1    1    2    0    0 -0.16244153114E+02 -0.73617649711E+01  0.36538856631E+02  0.40659022834E+02  0.00000000000E+00 0. -1.
         11    1    3    3    0    0  0.95503343831E+00  0.69525984447E+01 -0.16040290542E+02  0.17508330444E+02  0.51100000000E-03 0. -1.
        -11    1    3    3    0    0  0.11200407385E+02  0.10838479970E+01 -0.24685763854E+02  0.27129518783E+02  0.51100000000E-03 0.  1.
         12    1    3    3    0    0  0.40887122909E+01 -0.67468147062E+00  0.41871977646E+01  0.58911279399E+01  0.00000000000E+00 0. -1.
</event>
<event>
 7    1  0.5005325E-012  0.5052886E+02  0.7816164E-02  0.1300439E+00
        -11   -1    0    0    0    0  0.00000000000E+00  0.00000000000E+00  0.45593999997E+02  0.45594000000E+02  0.51100000000E-03 0. -1.
         11   -1    0    0    0    0 -0.00000000000E+00 -0.00000000000E+00 -0.45593999997E+02  0.45594000000E+02  0.51100000000E-03 0.  1.
    9900012    2    1    2    0    0 -0.21832444754E+02  0.11465795524E+02 -0.32327163297E+02  0.50528860833E+02  0.30000002989E+02 0.  0.
         12    1    1    2    0    0  0.21832444754E+02 -0.11465795524E+02  0.32327163297E+02  0.40659139167E+02  0.00000000000E+00 0. -1.
         11    1    3    3    0    0 -0.10670244776E+02  0.14336093061E+02 -0.63137824273E+01  0.18953668158E+02  0.51100000000E-03 0. -1.
        -11    1    3    3    0    0 -0.10930127817E+02  0.17161734083E+01 -0.24252159182E+02  0.26656709672E+02  0.51100000000E-03 0.  1.
        -12    1    3    3    0    0 -0.23207216092E+00 -0.45864709459E+01 -0.17612216878E+01  0.49184830038E+01  0.00000000000E+00 0.  1.
</event>
<event>
 7    1  0.5005325E-012  0.5052886E+02  0.7816164E-02  0.1300439E+00
        -11   -1    0    0    0    0  0.00000000000E+00  0.00000000000E+00  0.45593999997E+02  0.45594000000E+02  0.51100000000E-03 0. -1.
         11   -1    0    0    0    0 -0.00000000000E+00 -0.00000000000E+00 -0.45593999997E+02  0.45594000000E+02  0.51100000000E-03 0.  1.
    9900012    2    1    2    0    0  0.85045049663E+01 -0.24719260094E+02 -0.31141571466E+02  0.50528857145E+02  0.29999991779E+02 0.  0.
         12    1    1    2    0    0 -0.85045049663E+01  0.24719260094E+02  0.31141571466E+02  0.40659142855E+02  0.00000000000E+00 0. -1.
         11    1    3    3    0    0 -0.47839351358E+01 -0.75061953454E+01 -0.73052634453E+01  0.11515028364E+02  0.51100000000E-03 0. -1.
        -11    1    3    3    0    0  0.83707452426E+01 -0.19662876812E+02 -0.25502379443E+02  0.33272653305E+02  0.51100000000E-03 0.  1.
         12    1    3    3    0    0  0.49176948595E+01  0.24498120631E+01  0.16660714224E+01  0.57411754772E+01  0.00000000000E+00 0. -1.
</event>
<event>
 7    1  0.5005325E-012  0.5052871E+02  0.7816164E-02  0.1300439E+00
        -11   -1    0    0    0    0  0.00000000000E+00  0.00000000000E+00  0.45593999997E+02  0.45594000000E+02  0.51100000000E-03 0. -1.
         11   -1    0    0    0    0 -0.00000000000E+00 -0.00000000000E+00 -0.45593999997E+02  0.45594000000E+02  0.51100000000E-03 0.  1.
    9900012    2    1    2    0    0  0.28168655556E+02 -0.95058349860E+01  0.27737041773E+02  0.50528713964E+02  0.29999556563E+02 0.  0.
        -12    1    1    2    0    0 -0.28168655556E+02  0.95058349860E+01 -0.27737041773E+02  0.40659286036E+02  0.00000000000E+00 0.  1.
         11    1    3    3    0    0  0.11828075083E+02 -0.63822689748E+00  0.68451879471E+01  0.13680909766E+02  0.51100000000E-03 0.  1.
        -11    1    3    3    0    0  0.16676807512E+02  0.31277630842E-01  0.22285143498E+02  0.27834232666E+02  0.51100000000E-03 0. -1.
        -12    1    3    3    0    0 -0.33622703928E+00 -0.88988857194E+01 -0.13932896718E+01  0.90135715328E+01  0.00000000000E+00 0.  1.
</event>
<event>
 7    1  0.5005325E-012  0.5052884E+02  0.7816164E-02  0.1300439E+00
        -11   -1    0    0    0    0  0.00000000000E+00  0.00000000000E+00  0.45593999997E+02  0.45594000000E+02  0.51100000000E-03 0. -1.
         11   -1    0    0    0    0 -0.00000000000E+00 -0.00000000000E+00 -0.45593999997E+02  0.45594000000E+02  0.51100000000E-03 0.  1.
    9900012    2    1    2    0    0  0.38202243580E+02 -0.13831698843E+02  0.15620310858E+01  0.50528840533E+02  0.29999941286E+02 0.  0.
         12    1    1    2    0    0 -0.38202243580E+02  0.13831698843E+02 -0.15620310858E+01  0.40659159467E+02  0.00000000000E+00 0. -1.
         11    1    3    3    0    0 -0.41055215974E+00  0.20649097601E+01  0.34271180288E+00  0.21330393888E+01  0.51100000000E-03 0. -1.
        -11    1    3    3    0    0  0.13533418019E+02 -0.10481275301E+02 -0.10613898747E+02  0.20141136564E+02  0.51100000000E-03 0.  1.
         12    1    3    3    0    0  0.25079377720E+02 -0.54153333017E+01  0.11833218030E+02  0.28254664580E+02  0.00000000000E+00 0. -1.
</event>
<event>
 7    1  0.5005325E-012  0.5052885E+02  0.7816164E-02  0.1300439E+00
        -11   -1    0    0    0    0  0.00000000000E+00  0.00000000000E+00  0.45593999997E+02  0.45594000000E+02  0.51100000000E-03 0. -1.
         11   -1    0    0    0    0 -0.00000000000E+00 -0.00000000000E+00 -0.45593999997E+02  0.45594000000E+02  0.51100000000E-03 0.  1.
    9900012    2    1    2    0    0 -0.22413446560E+02 -0.17978650278E+02 -0.28767550342E+02  0.50528850904E+02  0.29999972809E+02 0.  0.
         12    1    1    2    0    0  0.22413446560E+02  0.17978650278E+02  0.28767550342E+02  0.40659149096E+02  0.00000000000E+00 0. -1.
         11    1    3    3    0    0 -0.17127487357E+01 -0.58935317378E+01  0.14045965955E+01  0.62960397420E+01  0.51100000000E-03 0. -1.
        -11    1    3    3    0    0  0.31565841466E+01  0.27422590125E+01 -0.29544182702E+01  0.51198237805E+01  0.51100000000E-03 0.  1.
        -12    1    3    3    0    0 -0.23857281970E+02 -0.14827377553E+02 -0.27217728668E+02  0.39112987382E+02  0.00000000000E+00 0.  1.
</event>
<event>
 7    1  0.5005325E-012  0.5052886E+02  0.7816164E-02  0.1300439E+00
        -11   -1    0    0    0    0  0.00000000000E+00  0.00000000000E+00  0.45593999997E+02  0.45594000000E+02  0.51100000000E-03 0. -1.
         11   -1    0    0    0    0 -0.00000000000E+00 -0.00000000000E+00 -0.45593999997E+02  0.45594000000E+02  0.51100000000E-03 0.  1.
    9900012    2    1    2    0    0  0.22423815362E+02 -0.13238295905E+02 -0.31226361301E+02  0.50528860634E+02  0.30000002383E+02 0.  0.
         12    1    1    2    0    0 -0.22423815362E+02  0.13238295905E+02  0.31226361301E+02  0.40659139366E+02  0.00000000000E+00 0. -1.
         11    1    3    3    0    0  0.88820972085E+01 -0.97556478633E+01 -0.13341800051E+01  0.13260631682E+02  0.51100000000E-03 0. -1.
        -11    1    3    3    0    0  0.16524881818E+02 -0.61860483688E+01 -0.20489567580E+02  0.27039994331E+02  0.51100000000E-03 0.  1.
         12    1    3    3    0    0 -0.29831636649E+01  0.27034003268E+01 -0.94026137160E+01  0.10228234621E+02  0.00000000000E+00 0. -1.
</event>
<event>
 7    1  0.5005325E-012  0.5052888E+02  0.7816164E-02  0.1300439E+00
        -11   -1    0    0    0    0  0.00000000000E+00  0.00000000000E+00  0.45593999997E+02  0.45594000000E+02  0.51100000000E-03 0. -1.
         11   -1    0    0    0    0 -0.00000000000E+00 -0.00000000000E+00 -0.45593999997E+02  0.45594000000E+02  0.51100000000E-03 0.  1.
    9900012    2    1    2    0    0 -0.78756668663E+01  0.24998848033E+02  0.31083681805E+02  0.50528882866E+02  0.30000069960E+02 0.  0.
        -12    1    1    2    0    0  0.78756668663E+01 -0.24998848033E+02 -0.31083681805E+02  0.40659117134E+02  0.00000000000E+00 0.  1.
         11    1    3    3    0    0  0.65659523485E+01  0.24050336501E+01  0.87475012409E+01  0.11198870270E+02  0.51100000000E-03 0. -1.
        -11    1    3    3    0    0 -0.40566267168E+01  0.12531448041E+02  0.21025347545E+02  0.24810454450E+02  0.51100000000E-03 0.  1.
        -12    1    3    3    0    0 -0.10384992498E+02  0.10062366341E+02  0.13108330185E+01  0.14519558147E+02  0.00000000000E+00 0.  1.
</event>
<event>
 7    1  0.5005325E-012  0.5052886E+02  0.7816164E-02  0.1300439E+00
        -11   -1    0    0    0    0  0.00000000000E+00  0.00000000000E+00  0.45593999997E+02  0.45594000000E+02  0.51100000000E-03 0. -1.
         11   -1    0    0    0    0 -0.00000000000E+00 -0.00000000000E+00 -0.45593999997E+02  0.45594000000E+02  0.51100000000E-03 0.  1.
    9900012    2    1    2    0    0  0.19631685774E+02 -0.10405572132E+02 -0.34051233623E+02  0.50528861680E+02  0.30000005562E+02 0.  0.
         12    1    1    2    0    0 -0.19631685774E+02  0.10405572132E+02  0.34051233623E+02  0.40659138320E+02  0.00000000000E+00 0. -1.
         11    1    3    3    0    0  0.74420210559E+01  0.30091148645E+01 -0.92526907710E+01  0.12249519845E+02  0.51100000000E-03 0. -1.
        -11    1    3    3    0    0  0.91566784503E+01  0.31986510907E+01 -0.17231220834E+02  0.19773494905E+02  0.51100000000E-03 0.  1.
         12    1    3    3    0    0  0.30329862676E+01 -0.16613338087E+02 -0.75673220173E+01  0.18505846930E+02  0.00000000000E+00 0. -1.
</event>
<event>
 7    1  0.5005325E-012  0.5052886E+02  0.7816164E-02  0.1300439E+00
        -11   -1    0    0    0    0  0.00000000000E+00  0.00000000000E+00  0.45593999997E+02  0.45594000000E+02  0.51100000000E-03 0. -1.
         11   -1    0    0    0    0 -0.00000000000E+00 -0.00000000000E+00 -0.45593999997E+02  0.45594000000E+02  0.51100000000E-03 0.  1.
    9900012    2    1    2    0    0  0.28013954284E+02  0.28113048247E+02  0.88340427531E+01  0.50528862924E+02  0.30000009344E+02 0.  0.
        -12    1    1    2    0    0 -0.28013954284E+02 -0.28113048247E+02 -0.88340427531E+01  0.40659137076E+02  0.00000000000E+00 0.  1.
         11    1    3    3    0    0  0.64756449741E+01  0.93977532893E+01  0.12263129166E+02  0.16752196331E+02  0.51100000000E-03 0. -1.
        -11    1    3    3    0    0  0.18614301444E+02  0.84334570196E+01  0.39151804968E+01  0.20807307710E+02  0.51100000000E-03 0.  1.
        -12    1    3    3    0    0  0.29240078656E+01  0.10281837938E+02 -0.73442669097E+01  0.12969358883E+02  0.00000000000E+00 0.  1.
</event>
<event>
 7    1  0.5005325E-012  0.5052886E+02  0.7816164E-02  0.1300439E+00
        -11   -1    0    0    0    0  0.00000000000E+00  0.00000000000E+00  0.45593999997E+02  0.45594000000E+02  0.51100000000E-03 0. -1.
         11   -1    0    0    0    0 -0.00000000000E+00 -0.00000000000E+00 -0.45593999997E+02  0.45594000000E+02  0.51100000000E-03 0.  1.
    9900012    2    1    2    0    0 -0.30868950324E+02 -0.52043180870E+01  0.25945882266E+02  0.50528858010E+02  0.29999994406E+02 0.  0.
        -12    1    1    2    0    0  0.30868950324E+02  0.52043180870E+01 -0.25945882266E+02  0.40659141990E+02  0.00000000000E+00 0.  1.
         11    1    3    3    0    0 -0.17679207587E+01  0.57682887330E+01  0.26252785085E+01  0.65795734075E+01  0.51100000000E-03 0.  1.
        -11    1    3    3    0    0 -0.14967863817E+02  0.93669487915E+00  0.10860334765E+01  0.15036416246E+02  0.51100000000E-03 0. -1.
         12    1    3    3    0    0 -0.14133165748E+02 -0.11909301699E+02  0.22234570281E+02  0.28912868357E+02  0.00000000000E+00 0. -1.
</event>
<event>
 7    1  0.5005325E-012  0.5052879E+02  0.7816164E-02  0.1300439E+00
        -11   -1    0    0    0    0  0.00000000000E+00  0.00000000000E+00  0.45593999997E+02  0.45594000000E+02  0.51100000000E-03 0. -1.
         11   -1    0    0    0    0 -0.00000000000E+00 -0.00000000000E+00 -0.45593999997E+02  0.45594000000E+02  0.51100000000E-03 0.  1.
    9900012    2    1    2    0    0 -0.17016719667E+01  0.12435458625E+02  0.38673442917E+02  0.50528788181E+02  0.29999782154E+02 0.  0.
        -12    1    1    2    0    0  0.17016719667E+01 -0.12435458625E+02 -0.38673442917E+02  0.40659211819E+02  0.00000000000E+00 0.  1.
         11    1    3    3    0    0  0.76183704412E+00 -0.62067480752E+01  0.69741170960E+01  0.93670927657E+01  0.51100000000E-03 0. -1.
        -11    1    3    3    0    0 -0.79353211607E+01  0.13185198461E+01  0.86293431978E+01  0.11797176815E+02  0.51100000000E-03 0.  1.
         12    1    3    3    0    0  0.54718121499E+01  0.17323686855E+02  0.23069982623E+02  0.29364518601E+02  0.00000000000E+00 0. -1.
</event>
<event>
 7    1  0.5005325E-012  0.5052885E+02  0.7816164E-02  0.1300439E+00
        -11   -1    0    0    0    0  0.00000000000E+00  0.00000000000E+00  0.45593999997E+02  0.45594000000E+02  0.51100000000E-03 0. -1.
         11   -1    0    0    0    0 -0.00000000000E+00 -0.00000000000E+00 -0.45593999997E+02  0.45594000000E+02  0.51100000000E-03 0.  1.
    9900012    2    1    2    0    0  0.38448070351E+01  0.27702280985E+02 -0.29512161662E+02  0.50528848522E+02  0.29999965568E+02 0.  0.
         12    1    1    2    0    0 -0.38448070351E+01 -0.27702280985E+02  0.29512161662E+02  0.40659151478E+02  0.00000000000E+00 0. -1.
         11    1    3    3    0    0  0.42778461493E+01 -0.42174822161E+01 -0.24523279911E+01  0.64885311710E+01  0.51100000000E-03 0. -1.
        -11    1    3    3    0    0 -0.57335938056E+01  0.11029965500E+02 -0.56267658765E+01  0.13645319027E+02  0.51100000000E-03 0.  1.
        -12    1    3    3    0    0  0.53005546914E+01  0.20889797701E+02 -0.21433067795E+02  0.30394998324E+02  0.00000000000E+00 0.  1.
</event>
<event>
 7    1  0.5005325E-012  0.5052884E+02  0.7816164E-02  0.1300439E+00
        -11   -1    0    0    0    0  0.00000000000E+00  0.00000000000E+00  0.45593999997E+02  0.45594000000E+02  0.51100000000E-03 0. -1.
         11   -1    0    0    0    0 -0.00000000000E+00 -0.00000000000E+00 -0.45593999997E+02  0.45594000000E+02  0.51100000000E-03 0.  1.
    9900012    2    1    2    0    0 -0.35029956315E+02  0.16950838839E+02 -0.11778741771E+02  0.50528837016E+02  0.29999930595E+02 0.  0.
         12    1    1    2    0    0  0.35029956315E+02 -0.16950838839E+02  0.11778741771E+02  0.40659162984E+02  0.00000000000E+00 0. -1.
         11    1    3    3    0    0 -0.42102789184E+01 -0.43172893777E+01 -0.14526270436E+01  0.62028672185E+01  0.51100000000E-03 0. -1.
        -11    1    3    3    0    0 -0.73064669424E+01 -0.16851019893E+01 -0.86167005821E+01  0.11422414678E+02  0.51100000000E-03 0.  1.
        -12    1    3    3    0    0 -0.23513210455E+02  0.22953230206E+02 -0.17094141458E+01  0.32903555120E+02  0.00000000000E+00 0.  1.
</event>
<event>
 7    1  0.5005325E-012  0.5052891E+02  0.7816164E-02  0.1300439E+00
        -11   -1    0    0    0    0  0.00000000000E+00  0.00000000000E+00  0.45593999997E+02  0.45594000000E+02  0.51100000000E-03 0. -1.
         11   -1    0    0    0    0 -0.00000000000E+00 -0.00000000000E+00 -0.45593999997E+02  0.45594000000E+02  0.51100000000E-03 0.  1.
    9900012    2    1    2    0    0 -0.18837622680E+02  0.22127203802E+02  0.28437521469E+02  0.50528907491E+02  0.30000144810E+02 0.  0.
        -12    1    1    2    0    0  0.18837622680E+02 -0.22127203802E+02 -0.28437521469E+02  0.40659092509E+02  0.00000000000E+00 0.  1.
         11    1    3    3    0    0 -0.11491384149E+01  0.19064309813E+02  0.19030933768E+02  0.26961915142E+02  0.51100000000E-03 0. -1.
        -11    1    3    3    0    0 -0.81025724141E+00 -0.22721841806E+01 -0.14374397169E+01  0.28081258784E+01  0.51100000000E-03 0.  1.
        -12    1    3    3    0    0 -0.16878227024E+02  0.53350781689E+01  0.10844027418E+02  0.20758866471E+02  0.00000000000E+00 0.  1.
</event>
<event>
 7    1  0.5005325E-012  0.5052892E+02  0.7816164E-02  0.1300439E+00
        -11   -1    0    0    0    0  0.00000000000E+00  0.00000000000E+00  0.45593999997E+02  0.45594000000E+02  0.51100000000E-03 0. -1.
         11   -1    0    0    0    0 -0.00000000000E+00 -0.00000000000E+00 -0.45593999997E+02  0.45594000000E+02  0.51100000000E-03 0.  1.
    9900012    2    1    2    0    0 -0.18282002451E+02  0.15253173911E+02 -0.32958613899E+02  0.50528915429E+02  0.30000168938E+02 0.  0.
         12    1    1    2    0    0  0.18282002451E+02 -0.15253173911E+02  0.32958613899E+02  0.40659084571E+02  0.00000000000E+00 0. -1.
         11    1    3    3    0    0 -0.37177971300E+01 -0.14882106338E+01 -0.33258809976E+01  0.52055999713E+01  0.51100000000E-03 0. -1.
        -11    1    3    3    0    0 -0.19938863802E+02  0.17124841812E+02 -0.30045389033E+02  0.39919217166E+02  0.51100000000E-03 0.  1.
        -12    1    3    3    0    0  0.53746584812E+01 -0.38345726722E+00  0.41265613070E+00  0.54040982918E+01  0.00000000000E+00 0.  1.
</event>
<event>
 7    1  0.5005325E-012  0.5052887E+02  0.7816164E-02  0.1300439E+00
        -11   -1    0    0    0    0  0.00000000000E+00  0.00000000000E+00  0.45593999997E+02  0.45594000000E+02  0.51100000000E-03 0. -1.
         11   -1    0    0    0    0 -0.00000000000E+00 -0.00000000000E+00 -0.45593999997E+02  0.45594000000E+02  0.51100000000E-03 0.  1.
    9900012    2    1    2    0    0 -0.81730746012E+01 -0.10167086413E+02  0.38509691873E+02  0.50528866183E+02  0.30000019250E+02 0.  0.
        -12    1    1    2    0    0  0.81730746012E+01  0.10167086413E+02 -0.38509691873E+02  0.40659133817E+02  0.00000000000E+00 0.  1.
         11    1    3    3    0    0 -0.60680118776E+01 -0.16837943912E+02  0.11657143076E+02  0.21359450093E+02  0.51100000000E-03 0.  1.
        -11    1    3    3    0    0 -0.40668222930E+00 -0.17480571084E+01  0.10947624448E+02  0.11093762905E+02  0.51100000000E-03 0. -1.
        -12    1    3    3    0    0 -0.16983804943E+01  0.84189146073E+01  0.15904924350E+02  0.18075653185E+02  0.00000000000E+00 0.  1.
</event>
<event>
 7    1  0.5005325E-012  0.5052882E+02  0.7816164E-02  0.1300439E+00
        -11   -1    0    0    0    0  0.00000000000E+00  0.00000000000E+00  0.45593999997E+02  0.45594000000E+02  0.51100000000E-03 0. -1.
         11   -1    0    0    0    0 -0.00000000000E+00 -0.00000000000E+00 -0.45593999997E+02  0.45594000000E+02  0.51100000000E-03 0.  1.
    9900012    2    1    2    0    0  0.63553434604E+01 -0.14259854988E+02 -0.37542441348E+02  0.50528821981E+02  0.29999884894E+02 0.  0.
         12    1    1    2    0    0 -0.63553434604E+01  0.14259854988E+02  0.37542441348E+02  0.40659178019E+02  0.00000000000E+00 0. -1.
         11    1    3    3    0    0 -0.23946581258E+01 -0.66000385757E+01 -0.26573879820E+02  0.27485741498E+02  0.51100000000E-03 0. -1.
        -11    1    3    3    0    0  0.80778003019E+01 -0.24113148635E+01 -0.14435749970E+02  0.16716942739E+02  0.51100000000E-03 0.  1.
         12    1    3    3    0    0  0.67220128420E+00 -0.52485015484E+01  0.34671884416E+01  0.63261377443E+01  0.00000000000E+00 0. -1.
</event>
<event>
 7    1  0.5005325E-012  0.5052885E+02  0.7816164E-02  0.1300439E+00
        -11   -1    0    0    0    0  0.00000000000E+00  0.00000000000E+00  0.45593999997E+02  0.45594000000E+02  0.51100000000E-03 0. -1.
         11   -1    0    0    0    0 -0.00000000000E+00 -0.00000000000E+00 -0.45593999997E+02  0.45594000000E+02  0.51100000000E-03 0.  1.
    9900012    2    1    2    0    0 -0.28092982011E+02  0.11093191135E+02 -0.27219325591E+02  0.50528853262E+02  0.29999979974E+02 0.  0.
         12    1    1    2    0    0  0.28092982011E+02 -0.11093191135E+02  0.27219325591E+02  0.40659146738E+02  0.00000000000E+00 0. -1.
         11    1    3    3    0    0 -0.10836040444E+02  0.92398481074E+01 -0.10229733292E+02  0.17534024325E+02  0.51100000000E-03 0.  1.
        -11    1    3    3    0    0 -0.98275942455E+01 -0.31926364607E+01 -0.20810643371E+02  0.23234831912E+02  0.51100000000E-03 0. -1.
         12    1    3    3    0    0 -0.74293473214E+01  0.50459794886E+01  0.38210510714E+01  0.97599970242E+01  0.00000000000E+00 0. -1.
</event>
<event>
 7    1  0.5005325E-012  0.5052889E+02  0.7816164E-02  0.1300439E+00
        -11   -1    0    0    0    0  0.00000000000E+00  0.00000000000E+00  0.45593999997E+02  0.45594000000E+02  0.51100000000E-03 0. -1.
         11   -1    0    0    0    0 -0.00000000000E+00 -0.00000000000E+00 -0.45593999997E+02  0.45594000000E+02  0.51100000000E-03 0.  1.
    9900012    2    1    2    0    0  0.10726518730E+02  0.56151240326E+01  0.38814630334E+02  0.50528888476E+02  0.30000087012E+02 0.  0.
        -12    1    1    2    0    0 -0.10726518730E+02 -0.56151240326E+01 -0.38814630334E+02  0.40659111524E+02  0.00000000000E+00 0.  1.
         11    1    3    3    0    0  0.15917108615E+00 -0.23153436054E+01  0.22771278240E+02  0.22889239052E+02  0.51100000000E-03 0. -1.
        -11    1    3    3    0    0 -0.52417801953E+01  0.16526083962E+01  0.40176502583E+01  0.68080017616E+01  0.51100000000E-03 0.  1.
         12    1    3    3    0    0  0.15809127839E+02  0.62778592418E+01  0.12025701835E+02  0.20831647662E+02  0.00000000000E+00 0. -1.
</event>
<event>
 7    1  0.5005325E-012  0.5052887E+02  0.7816164E-02  0.1300439E+00
        -11   -1    0    0    0    0  0.00000000000E+00  0.00000000000E+00  0.45593999997E+02  0.45594000000E+02  0.51100000000E-03 0. -1.
         11   -1    0    0    0    0 -0.00000000000E+00 -0.00000000000E+00 -0.45593999997E+02  0.45594000000E+02  0.51100000000E-03 0.  1.
    9900012    2    1    2    0    0 -0.15102550785E+02 -0.17462983074E+02  0.33468229568E+02  0.50528865621E+02  0.30000017541E+02 0.  0.
        -12    1    1    2    0    0  0.15102550785E+02  0.17462983074E+02 -0.33468229568E+02  0.40659134379E+02  0.00000000000E+00 0.  1.
         11    1    3    3    0    0 -0.10013806619E+02 -0.34028974309E+01  0.47608501969E+01  0.11598350261E+02  0.51100000000E-03 0. -1.
        -11    1    3    3    0    0 -0.45736766301E+01 -0.14447688427E+02  0.61352360418E+01  0.16349169409E+02  0.51100000000E-03 0.  1.
        -12    1    3    3    0    0 -0.51506753566E+00  0.38760278363E+00  0.22572143329E+02  0.22581345951E+02  0.00000000000E+00 0.  1.
</event>
<event>
 7    1  0.5005325E-012  0.5052887E+02  0.7816164E-02  0.1300439E+00
        -11   -1    0    0    0    0  0.00000000000E+00  0.00000000000E+00  0.45593999997E+02  0.45594000000E+02  0.51100000000E-03 0. -1.
         11   -1    0    0    0    0 -0.00000000000E+00 -0.00000000000E+00 -0.45593999997E+02  0.45594000000E+02  0.51100000000E-03 0.  1.
    9900012    2    1    2    0    0 -0.82196384331E+01  0.12287430415E+02 -0.37876398810E+02  0.50528868320E+02  0.30000025745E+02 0.  0.
         12    1    1    2    0    0  0.82196384331E+01 -0.12287430415E+02  0.37876398810E+02  0.40659131680E+02  0.00000000000E+00 0. -1.
         11    1    3    3    0    0 -0.40093162528E+01  0.68284010012E+01 -0.23291702488E+00  0.79218638999E+01  0.51100000000E-03 0. -1.
        -11    1    3    3    0    0 -0.10728595104E+02  0.75381955984E+01 -0.24321759612E+02  0.27631053846E+02  0.51100000000E-03 0.  1.
         12    1    3    3    0    0  0.65182729234E+01 -0.20791661841E+01 -0.13321722173E+02  0.14975950573E+02  0.00000000000E+00 0. -1.
</event>
<event>
 7    1  0.5005325E-012  0.5052885E+02  0.7816164E-02  0.1300439E+00
        -11   -1    0    0    0    0  0.00000000000E+00  0.00000000000E+00  0.45593999997E+02  0.45594000000E+02  0.51100000000E-03 0. -1.
         11   -1    0    0    0    0 -0.00000000000E+00 -0.00000000000E+00 -0.45593999997E+02  0.45594000000E+02  0.51100000000E-03 0.  1.
    9900012    2    1    2    0    0  0.20235776224E+02 -0.33464735823E+02 -0.11126150607E+02  0.50528850840E+02  0.29999972612E+02 0.  0.
         12    1    1    2    0    0 -0.20235776224E+02  0.33464735823E+02  0.11126150607E+02  0.40659149160E+02  0.00000000000E+00 0. -1.
         11    1    3    3    0    0  0.13943314132E+02 -0.24184366310E+02  0.45462726545E+01  0.28283708705E+02  0.51100000000E-03 0. -1.
        -11    1    3    3    0    0  0.66061375055E+01 -0.33319563512E+01 -0.25361927518E+01  0.78214614877E+01  0.51100000000E-03 0.  1.
        -12    1    3    3    0    0 -0.31367541330E+00 -0.59484131627E+01 -0.13136230509E+02  0.14423680647E+02  0.00000000000E+00 0.  1.
</event>
<event>
 7    1  0.5005325E-012  0.5052886E+02  0.7816164E-02  0.1300439E+00
        -11   -1    0    0    0    0  0.00000000000E+00  0.00000000000E+00  0.45593999997E+02  0.45594000000E+02  0.51100000000E-03 0. -1.
         11   -1    0    0    0    0 -0.00000000000E+00 -0.00000000000E+00 -0.45593999997E+02  0.45594000000E+02  0.51100000000E-03 0.  1.
    9900012    2    1    2    0    0  0.22326495822E+02 -0.29842770582E+02 -0.16251224503E+02  0.50528859951E+02  0.30000000307E+02 0.  0.
         12    1    1    2    0    0 -0.22326495822E+02  0.29842770582E+02  0.16251224503E+02  0.40659140049E+02  0.00000000000E+00 0. -1.
         11    1    3    3    0    0 -0.22866123920E+01  0.24530018887E+01 -0.22355468220E+01  0.40303206264E+01  0.51100000000E-03 0. -1.
        -11    1    3    3    0    0  0.17273795009E+02 -0.13572327551E+02  0.31187853765E-01  0.21968000413E+02  0.51100000000E-03 0.  1.
        -12    1    3    3    0    0  0.73393132047E+01 -0.18723444919E+02 -0.14046865535E+02  0.24530538912E+02  0.00000000000E+00 0.  1.
</event>
<event>
 7    1  0.5005325E-012  0.5052887E+02  0.7816164E-02  0.1300439E+00
        -11   -1    0    0    0    0  0.00000000000E+00  0.00000000000E+00  0.45593999997E+02  0.45594000000E+02  0.51100000000E-03 0. -1.
         11   -1    0    0    0    0 -0.00000000000E+00 -0.00000000000E+00 -0.45593999997E+02  0.45594000000E+02  0.51100000000E-03 0.  1.
    9900012    2    1    2    0    0  0.70518173887E+01  0.36258590441E+02  0.16992675034E+02  0.50528874160E+02  0.30000043496E+02 0.  0.
        -12    1    1    2    0    0 -0.70518173887E+01 -0.36258590441E+02 -0.16992675034E+02  0.40659125840E+02  0.00000000000E+00 0.  1.
         11    1    3    3    0    0 -0.34070861561E+01  0.23973804435E+01  0.43059923554E+01  0.59914305046E+01  0.51100000000E-03 0. -1.
        -11    1    3    3    0    0  0.20462560841E+01  0.31957108321E+01 -0.64072822581E+01  0.74466769690E+01  0.51100000000E-03 0.  1.
         12    1    3    3    0    0  0.84126474608E+01  0.30665499166E+02  0.19093964936E+02  0.37090766686E+02  0.00000000000E+00 0. -1.
</event>
<event>
 7    1  0.5005325E-012  0.5052886E+02  0.7816164E-02  0.1300439E+00
        -11   -1    0    0    0    0  0.00000000000E+00  0.00000000000E+00  0.45593999997E+02  0.45594000000E+02  0.51100000000E-03 0. -1.
         11   -1    0    0    0    0 -0.00000000000E+00 -0.00000000000E+00 -0.45593999997E+02  0.45594000000E+02  0.51100000000E-03 0.  1.
    9900012    2    1    2    0    0 -0.11922485160E+02 -0.29258722531E+02  0.25591942028E+02  0.50528855969E+02  0.29999988204E+02 0.  0.
        -12    1    1    2    0    0  0.11922485160E+02  0.29258722531E+02 -0.25591942028E+02  0.40659144031E+02  0.00000000000E+00 0.  1.
         11    1    3    3    0    0 -0.15929237836E+00 -0.96724386576E+01  0.16438485052E+02  0.19073679108E+02  0.51100000000E-03 0. -1.
        -11    1    3    3    0    0 -0.12207021846E+02 -0.21130742090E+02  0.12737398524E+02  0.27527458383E+02  0.51100000000E-03 0.  1.
         12    1    3    3    0    0  0.44382906398E+00  0.15444582165E+01 -0.35839415482E+01  0.39277184779E+01  0.00000000000E+00 0. -1.
</event>
<event>
 7    1  0.5005325E-012  0.5052885E+02  0.7816164E-02  0.1300439E+00
        -11   -1    0    0    0    0  0.00000000000E+00  0.00000000000E+00  0.45593999997E+02  0.45594000000E+02  0.51100000000E-03 0. -1.
         11   -1    0    0    0    0 -0.00000000000E+00 -0.00000000000E+00 -0.45593999997E+02  0.45594000000E+02  0.51100000000E-03 0.  1.
    9900012    2    1    2    0    0 -0.28894738967E+01  0.14308279256E+02 -0.37948522562E+02  0.50528852453E+02  0.29999977515E+02 0.  0.
         12    1    1    2    0    0  0.28894738967E+01 -0.14308279256E+02  0.37948522562E+02  0.40659147547E+02  0.00000000000E+00 0. -1.
         11    1    3    3    0    0  0.62523318507E+01  0.65178828473E+01 -0.17986238974E+01  0.92092072714E+01  0.51100000000E-03 0. -1.
        -11    1    3    3    0    0  0.25910913522E+01  0.70363426688E+01 -0.19873811224E+02  0.21241286340E+02  0.51100000000E-03 0.  1.
         12    1    3    3    0    0 -0.11732897100E+02  0.75405373947E+00 -0.16276087440E+02  0.20078358841E+02  0.00000000000E+00 0. -1.
</event>
<event>
 7    1  0.5005325E-012  0.5052888E+02  0.7816164E-02  0.1300439E+00
        -11   -1    0    0    0    0  0.00000000000E+00  0.00000000000E+00  0.45593999997E+02  0.45594000000E+02  0.51100000000E-03 0. -1.
         11   -1    0    0    0    0 -0.00000000000E+00 -0.00000000000E+00 -0.45593999997E+02  0.45594000000E+02  0.51100000000E-03 0.  1.
    9900012    2    1    2    0    0  0.20138686563E+02  0.35296803601E+02 -0.13165278682E+01  0.50528876958E+02  0.30000052002E+02 0.  0.
         12    1    1    2    0    0 -0.20138686563E+02 -0.35296803601E+02  0.13165278682E+01  0.40659123042E+02  0.00000000000E+00 0. -1.
         11    1    3    3    0    0  0.18418655254E+01  0.15172226577E+02 -0.51217606877E+00  0.15292195804E+02  0.51100000000E-03 0. -1.
        -11    1    3    3    0    0  0.20826278321E+02  0.11951607583E+02 -0.66005893137E+01  0.24902661948E+02  0.51100000000E-03 0.  1.
         12    1    3    3    0    0 -0.25294572841E+01  0.81729694411E+01  0.57962375143E+01  0.10334019206E+02  0.00000000000E+00 0. -1.
</event>
<event>
 7    1  0.5005325E-012  0.5052886E+02  0.7816164E-02  0.1300439E+00
        -11   -1    0    0    0    0  0.00000000000E+00  0.00000000000E+00  0.45593999997E+02  0.45594000000E+02  0.51100000000E-03 0. -1.
         11   -1    0    0    0    0 -0.00000000000E+00 -0.00000000000E+00 -0.45593999997E+02  0.45594000000E+02  0.51100000000E-03 0.  1.
    9900012    2    1    2    0    0 -0.27845563305E+02  0.35747626378E+01  0.29411076539E+02  0.50528859000E+02  0.29999997417E+02 0.  0.
        -12    1    1    2    0    0  0.27845563305E+02 -0.35747626378E+01 -0.29411076539E+02  0.40659141000E+02  0.00000000000E+00 0.  1.
         11    1    3    3    0    0 -0.32926749401E+01  0.51355261640E+01  0.24423631176E+01  0.65711852129E+01  0.51100000000E-03 0. -1.
        -11    1    3    3    0    0 -0.26871743640E+02  0.42616374600E+01  0.16689288703E+02  0.31918404060E+02  0.51100000000E-03 0.  1.
        -12    1    3    3    0    0  0.23188552746E+01 -0.58224009862E+01  0.10279424718E+02  0.12039269727E+02  0.00000000000E+00 0.  1.
</event>
<event>
 7    1  0.5005325E-012  0.5052886E+02  0.7816164E-02  0.1300439E+00
        -11   -1    0    0    0    0  0.00000000000E+00  0.00000000000E+00  0.45593999997E+02  0.45594000000E+02  0.51100000000E-03 0. -1.
         11   -1    0    0    0    0 -0.00000000000E+00 -0.00000000000E+00 -0.45593999997E+02  0.45594000000E+02  0.51100000000E-03 0.  1.
    9900012    2    1    2    0    0  0.16463652697E+02 -0.77468604426E+01 -0.36360694397E+02  0.50528858299E+02  0.29999995285E+02 0.  0.
         12    1    1    2    0    0 -0.16463652697E+02  0.77468604426E+01  0.36360694397E+02  0.40659141701E+02  0.00000000000E+00 0. -1.
         11    1    3    3    0    0  0.14271073773E+01  0.24866706230E+01  0.42431332736E+00  0.28983112866E+01  0.51100000000E-03 0. -1.
        -11    1    3    3    0    0  0.19777257078E+02 -0.21837768607E+01 -0.18851266042E+02  0.27409469359E+02  0.51100000000E-03 0.  1.
        -12    1    3    3    0    0 -0.47407117581E+01 -0.80497542049E+01 -0.17933741682E+02  0.20221077653E+02  0.00000000000E+00 0.  1.
</event>
<event>
 7    1  0.5005325E-012  0.5052887E+02  0.7816164E-02  0.1300439E+00
        -11   -1    0    0    0    0  0.00000000000E+00  0.00000000000E+00  0.45593999997E+02  0.45594000000E+02  0.51100000000E-03 0. -1.
         11   -1    0    0    0    0 -0.00000000000E+00 -0.00000000000E+00 -0.45593999997E+02  0.45594000000E+02  0.51100000000E-03 0.  1.
    9900012    2    1    2    0    0 -0.87115087738E+01  0.19759534083E+02 -0.34450470072E+02  0.50528874819E+02  0.30000045499E+02 0.  0.
         12    1    1    2    0    0  0.87115087738E+01 -0.19759534083E+02  0.34450470072E+02  0.40659125181E+02  0.00000000000E+00 0. -1.
         11    1    3    3    0    0  0.77664139702E+01  0.35008399124E+01 -0.14937744762E+02  0.17196199722E+02  0.51100000000E-03 0. -1.
        -11    1    3    3    0    0 -0.69855201911E+01  0.16056502597E+02 -0.13254850885E+02  0.21961326013E+02  0.51100000000E-03 0.  1.
        -12    1    3    3    0    0 -0.94924025529E+01  0.20219157357E+00 -0.62578744256E+01  0.11371349084E+02  0.00000000000E+00 0.  1.
</event>
<event>
 7    1  0.5005325E-012  0.5052886E+02  0.7816164E-02  0.1300439E+00
        -11   -1    0    0    0    0  0.00000000000E+00  0.00000000000E+00  0.45593999997E+02  0.45594000000E+02  0.51100000000E-03 0.  1.
         11   -1    0    0    0    0 -0.00000000000E+00 -0.00000000000E+00 -0.45593999997E+02  0.45594000000E+02  0.51100000000E-03 0. -1.
    9900012    2    1    2    0    0  0.10093415368E+02 -0.39115297735E+02  0.46132438990E+01  0.50528861175E+02  0.30000004028E+02 0.  0.
        -12    1    1    2    0    0 -0.10093415368E+02  0.39115297735E+02 -0.46132438990E+01  0.40659138825E+02  0.00000000000E+00 0.  1.
         11    1    3    3    0    0  0.15192333328E+01 -0.31214511383E+02  0.10387475275E+02  0.32932558869E+02  0.51100000000E-03 0. -1.
        -11    1    3    3    0    0  0.58171011506E+00  0.26137935149E+01  0.86506374814E+00  0.28140075952E+01  0.51100000000E-03 0.  1.
        -12    1    3    3    0    0  0.79924719201E+01 -0.10514579867E+02 -0.66392951243E+01  0.14782294711E+02  0.00000000000E+00 0.  1.
</event>
<event>
 7    1  0.5005325E-012  0.5052887E+02  0.7816164E-02  0.1300439E+00
        -11   -1    0    0    0    0  0.00000000000E+00  0.00000000000E+00  0.45593999997E+02  0.45594000000E+02  0.51100000000E-03 0. -1.
         11   -1    0    0    0    0 -0.00000000000E+00 -0.00000000000E+00 -0.45593999997E+02  0.45594000000E+02  0.51100000000E-03 0.  1.
    9900012    2    1    2    0    0 -0.37748309641E+02 -0.13365530269E+02 -0.70421997622E+01  0.50528869936E+02  0.30000030656E+02 0.  0.
         12    1    1    2    0    0  0.37748309641E+02  0.13365530269E+02  0.70421997622E+01  0.40659130064E+02  0.00000000000E+00 0. -1.
         11    1    3    3    0    0 -0.12069307759E+02  0.27699332097E+01  0.53209592253E+01  0.13477882886E+02  0.51100000000E-03 0. -1.
        -11    1    3    3    0    0 -0.22694076712E+02 -0.49764080211E+01 -0.66635222653E+01  0.24169987253E+02  0.51100000000E-03 0.  1.
         12    1    3    3    0    0 -0.29849251704E+01 -0.11159055458E+02 -0.56996367221E+01  0.12880999796E+02  0.00000000000E+00 0. -1.
</event>
<event>
 7    1  0.5005325E-012  0.5052885E+02  0.7816164E-02  0.1300439E+00
        -11   -1    0    0    0    0  0.00000000000E+00  0.00000000000E+00  0.45593999997E+02  0.45594000000E+02  0.51100000000E-03 0. -1.
         11   -1    0    0    0    0 -0.00000000000E+00 -0.00000000000E+00 -0.45593999997E+02  0.45594000000E+02  0.51100000000E-03 0.  1.
    9900012    2    1    2    0    0 -0.25389236475E+01 -0.33024038165E+02  0.23582475532E+02  0.50528851187E+02  0.29999973668E+02 0.  0.
        -12    1    1    2    0    0  0.25389236475E+01  0.33024038165E+02 -0.23582475532E+02  0.40659148813E+02  0.00000000000E+00 0.  1.
         11    1    3    3    0    0  0.43217970989E+01 -0.21551428227E+02 -0.26239771338E+00  0.21982057265E+02  0.51100000000E-03 0. -1.
        -11    1    3    3    0    0 -0.46819761825E+00  0.13038517782E+01  0.25815169963E+01  0.29297557462E+01  0.51100000000E-03 0.  1.
        -12    1    3    3    0    0 -0.63925231282E+01 -0.12776461716E+02  0.21263356249E+02  0.25617038175E+02  0.00000000000E+00 0.  1.
</event>
<event>
 7    1  0.5005325E-012  0.5052885E+02  0.7816164E-02  0.1300439E+00
        -11   -1    0    0    0    0  0.00000000000E+00  0.00000000000E+00  0.45593999997E+02  0.45594000000E+02  0.51100000000E-03 0.  1.
         11   -1    0    0    0    0 -0.00000000000E+00 -0.00000000000E+00 -0.45593999997E+02  0.45594000000E+02  0.51100000000E-03 0. -1.
    9900012    2    1    2    0    0 -0.32590712605E+01  0.36968857443E+02  0.16608677365E+02  0.50528854290E+02  0.29999983098E+02 0.  0.
         12    1    1    2    0    0  0.32590712605E+01 -0.36968857443E+02 -0.16608677365E+02  0.40659145710E+02  0.00000000000E+00 0. -1.
         11    1    3    3    0    0 -0.11134868166E+02  0.40906177734E+01  0.22564898102E+01  0.12075188999E+02  0.51100000000E-03 0. -1.
        -11    1    3    3    0    0 -0.30986590658E-01  0.22902160949E+02  0.83126300328E+01  0.24364107917E+02  0.51100000000E-03 0.  1.
        -12    1    3    3    0    0  0.79067834964E+01  0.99760787205E+01  0.60395575221E+01  0.14089557373E+02  0.00000000000E+00 0.  1.
</event>
<event>
 7    1  0.5005325E-012  0.5052886E+02  0.7816164E-02  0.1300439E+00
        -11   -1    0    0    0    0  0.00000000000E+00  0.00000000000E+00  0.45593999997E+02  0.45594000000E+02  0.51100000000E-03 0. -1.
         11   -1    0    0    0    0 -0.00000000000E+00 -0.00000000000E+00 -0.45593999997E+02  0.45594000000E+02  0.51100000000E-03 0.  1.
    9900012    2    1    2    0    0  0.87488359770E+01 -0.68166285680E+01  0.39117222465E+02  0.50528860199E+02  0.30000001062E+02 0.  0.
        -12    1    1    2    0    0 -0.87488359770E+01  0.68166285680E+01 -0.39117222465E+02  0.40659139801E+02  0.00000000000E+00 0.  1.
         11    1    3    3    0    0  0.33895971272E+01  0.61734535154E+00  0.46467037506E+01  0.57846642059E+01  0.51100000000E-03 0. -1.
        -11    1    3    3    0    0 -0.97584704287E+01  0.17728498125E+01  0.72936559030E+01  0.12311302054E+02  0.51100000000E-03 0.  1.
        -12    1    3    3    0    0  0.15117709279E+02 -0.92068237320E+01  0.27176862811E+02  0.32432893940E+02  0.00000000000E+00 0.  1.
</event>
<event>
 7    1  0.5005325E-012  0.5052885E+02  0.7816164E-02  0.1300439E+00
        -11   -1    0    0    0    0  0.00000000000E+00  0.00000000000E+00  0.45593999997E+02  0.45594000000E+02  0.51100000000E-03 0. -1.
         11   -1    0    0    0    0 -0.00000000000E+00 -0.00000000000E+00 -0.45593999997E+02  0.45594000000E+02  0.51100000000E-03 0.  1.
    9900012    2    1    2    0    0  0.21651250354E+02 -0.17475270758E+02  0.29648016947E+02  0.50528848031E+02  0.29999964074E+02 0.  0.
        -12    1    1    2    0    0 -0.21651250354E+02  0.17475270758E+02 -0.29648016947E+02  0.40659151969E+02  0.00000000000E+00 0.  1.
         11    1    3    3    0    0 -0.11115601893E+01 -0.11332768194E+02  0.17328510629E+02  0.20735102650E+02  0.51100000000E-03 0. -1.
        -11    1    3    3    0    0  0.16867485310E+02 -0.88455041217E+01  0.43821799961E+01  0.19543758738E+02  0.51100000000E-03 0.  1.
        -12    1    3    3    0    0  0.58953252335E+01  0.27030015581E+01  0.79373263219E+01  0.10249986642E+02  0.00000000000E+00 0.  1.
</event>
<event>
 7    1  0.5005325E-012  0.5052885E+02  0.7816164E-02  0.1300439E+00
        -11   -1    0    0    0    0  0.00000000000E+00  0.00000000000E+00  0.45593999997E+02  0.45594000000E+02  0.51100000000E-03 0. -1.
         11   -1    0    0    0    0 -0.00000000000E+00 -0.00000000000E+00 -0.45593999997E+02  0.45594000000E+02  0.51100000000E-03 0.  1.
    9900012    2    1    2    0    0 -0.39631405282E+01  0.66511893970E+00  0.40460070706E+02  0.50528853580E+02  0.29999980941E+02 0.  0.
        -12    1    1    2    0    0  0.39631405282E+01 -0.66511893970E+00 -0.40460070706E+02  0.40659146420E+02  0.00000000000E+00 0.  1.
         11    1    3    3    0    0  0.30740619379E+01  0.11247712929E+01  0.13409408433E+02  0.13803159132E+02  0.51100000000E-03 0.  1.
        -11    1    3    3    0    0 -0.95612583689E+01 -0.24100791234E+01  0.30484117395E+02  0.32039156615E+02  0.51100000000E-03 0. -1.
        -12    1    3    3    0    0  0.25240559027E+01  0.19504267702E+01 -0.34334551213E+01  0.46865378326E+01  0.00000000000E+00 0.  1.
</event>
<event>
 7    1  0.5005325E-012  0.5052886E+02  0.7816164E-02  0.1300439E+00
        -11   -1    0    0    0    0  0.00000000000E+00  0.00000000000E+00  0.45593999997E+02  0.45594000000E+02  0.51100000000E-03 0. -1.
         11   -1    0    0    0    0 -0.00000000000E+00 -0.00000000000E+00 -0.45593999997E+02  0.45594000000E+02  0.51100000000E-03 0.  1.
    9900012    2    1    2    0    0  0.98517862372E+01 -0.84036313179E+01  0.38542013820E+02  0.50528861536E+02  0.30000005123E+02 0.  0.
        -12    1    1    2    0    0 -0.98517862372E+01  0.84036313179E+01 -0.38542013820E+02  0.40659138464E+02  0.00000000000E+00 0.  1.
         11    1    3    3    0    0  0.11842737047E+02  0.50648262030E+01  0.14300940948E+02  0.19246293085E+02  0.51100000000E-03 0. -1.
        -11    1    3    3    0    0  0.15953008846E+01  0.27256106212E+01  0.32860837041E+01  0.45576621794E+01  0.51100000000E-03 0.  1.
         12    1    3    3    0    0 -0.35862516945E+01 -0.16194068142E+02  0.20954989167E+02  0.26724906271E+02  0.00000000000E+00 0. -1.
</event>
<event>
 7    1  0.5680799E-012  0.5052886E+02  0.7816164E-02  0.1300439E+00
        -11   -1    0    0    0    0  0.00000000000E+00  0.00000000000E+00  0.45593999997E+02  0.45594000000E+02  0.51100000000E-03 0. -1.
         11   -1    0    0    0    0 -0.00000000000E+00 -0.00000000000E+00 -0.45593999997E+02  0.45594000000E+02  0.51100000000E-03 0.  1.
    9900012    2    1    2    0    0 -0.21881101771E+01 -0.11313879379E+02  0.38991977533E+02  0.50528855830E+02  0.29999987780E+02 0.  0.
        -12    1    1    2    0    0  0.21881101771E+01  0.11313879379E+02 -0.38991977533E+02  0.40659144170E+02  0.00000000000E+00 0.  1.
         11    1    3    3    0    0  0.24918819789E+01 -0.90802214756E+01  0.11021896300E+02  0.14496278700E+02  0.51100000000E-03 0. -1.
        -11    1    3    3    0    0 -0.95789090537E+01 -0.76556979482E+01  0.76851449628E+01  0.14471581223E+02  0.51100000000E-03 0.  1.
        -12    1    3    3    0    0  0.48989168977E+01  0.54220400444E+01  0.20284936270E+02  0.21560995906E+02  0.00000000000E+00 0.  1.
</event>
<event>
 7    1  0.5005325E-012  0.5052887E+02  0.7816164E-02  0.1300439E+00
        -11   -1    0    0    0    0  0.00000000000E+00  0.00000000000E+00  0.45593999997E+02  0.45594000000E+02  0.51100000000E-03 0. -1.
         11   -1    0    0    0    0 -0.00000000000E+00 -0.00000000000E+00 -0.45593999997E+02  0.45594000000E+02  0.51100000000E-03 0.  1.
    9900012    2    1    2    0    0  0.15742496909E+02 -0.33718717166E+02  0.16382525435E+02  0.50528865284E+02  0.30000016516E+02 0.  0.
        -12    1    1    2    0    0 -0.15742496909E+02  0.33718717166E+02 -0.16382525435E+02  0.40659134716E+02  0.00000000000E+00 0.  1.
         11    1    3    3    0    0 -0.11788556901E+01  0.34886315719E+00  0.15268683359E-01  0.12294875495E+01  0.51100000000E-03 0.  1.
        -11    1    3    3    0    0  0.23384912581E+02 -0.23387574454E+02  0.16169534041E+02  0.36814217452E+02  0.51100000000E-03 0. -1.
         12    1    3    3    0    0 -0.64635599814E+01 -0.10680005869E+02  0.19772271042E+00  0.12485160282E+02  0.00000000000E+00 0. -1.
</event>
<event>
 7    1  0.5005325E-012  0.5052885E+02  0.7816164E-02  0.1300439E+00
        -11   -1    0    0    0    0  0.00000000000E+00  0.00000000000E+00  0.45593999997E+02  0.45594000000E+02  0.51100000000E-03 0.  1.
         11   -1    0    0    0    0 -0.00000000000E+00 -0.00000000000E+00 -0.45593999997E+02  0.45594000000E+02  0.51100000000E-03 0. -1.
    9900012    2    1    2    0    0  0.27229274986E+01 -0.37339717030E+02 -0.15858667551E+02  0.50528854183E+02  0.29999982776E+02 0.  0.
         12    1    1    2    0    0 -0.27229274986E+01  0.37339717030E+02  0.15858667551E+02  0.40659145817E+02  0.00000000000E+00 0. -1.
         11    1    3    3    0    0  0.37842930386E+01 -0.16583189590E+01 -0.13996243915E+02  0.14593345729E+02  0.51100000000E-03 0. -1.
        -11    1    3    3    0    0 -0.44925432048E+00 -0.41971143661E+01  0.92796057801E+00  0.43218872662E+01  0.51100000000E-03 0.  1.
        -12    1    3    3    0    0 -0.61211121958E+00 -0.31484283705E+02 -0.27903842136E+01  0.31613621188E+02  0.00000000000E+00 0.  1.
</event>
<event>
 7    1  0.5005325E-012  0.5052887E+02  0.7816164E-02  0.1300439E+00
        -11   -1    0    0    0    0  0.00000000000E+00  0.00000000000E+00  0.45593999997E+02  0.45594000000E+02  0.51100000000E-03 0. -1.
         11   -1    0    0    0    0 -0.00000000000E+00 -0.00000000000E+00 -0.45593999997E+02  0.45594000000E+02  0.51100000000E-03 0.  1.
    9900012    2    1    2    0    0 -0.28760192793E+02 -0.60062997638E+01 -0.28105885199E+02  0.50528866841E+02  0.30000021251E+02 0.  0.
         12    1    1    2    0    0  0.28760192793E+02  0.60062997638E+01  0.28105885199E+02  0.40659133159E+02  0.00000000000E+00 0. -1.
         11    1    3    3    0    0  0.21832272758E+01 -0.51600500349E+01  0.14032578570E+00  0.56046667419E+01  0.51100000000E-03 0. -1.
        -11    1    3    3    0    0 -0.13185482258E+02 -0.82330197892E+01 -0.10533249950E+02  0.18777351038E+02  0.51100000000E-03 0.  1.
         12    1    3    3    0    0 -0.17757937812E+02  0.73867700603E+01 -0.17712961035E+02  0.26146849062E+02  0.00000000000E+00 0. -1.
</event>
<event>
 7    1  0.5005325E-012  0.5052886E+02  0.7816164E-02  0.1300439E+00
        -11   -1    0    0    0    0  0.00000000000E+00  0.00000000000E+00  0.45593999997E+02  0.45594000000E+02  0.51100000000E-03 0. -1.
         11   -1    0    0    0    0 -0.00000000000E+00 -0.00000000000E+00 -0.45593999997E+02  0.45594000000E+02  0.51100000000E-03 0.  1.
    9900012    2    1    2    0    0 -0.40310704224E+02 -0.46561181801E+01  0.25560305697E+01  0.50528860759E+02  0.30000002763E+02 0.  0.
        -12    1    1    2    0    0  0.40310704224E+02  0.46561181801E+01 -0.25560305697E+01  0.40659139241E+02  0.00000000000E+00 0.  1.
         11    1    3    3    0    0 -0.24339345539E+02 -0.55023795509E+01  0.49358815505E+01  0.25437036952E+02  0.51100000000E-03 0. -1.
        -11    1    3    3    0    0 -0.10188329893E+02  0.68010124793E+01  0.56973042046E+01  0.13509815402E+02  0.51100000000E-03 0.  1.
        -12    1    3    3    0    0 -0.57830287928E+01 -0.59547511085E+01 -0.80771551854E+01  0.11582008404E+02  0.00000000000E+00 0.  1.
</event>
<event>
 7    1  0.5005325E-012  0.5052879E+02  0.7816164E-02  0.1300439E+00
        -11   -1    0    0    0    0  0.00000000000E+00  0.00000000000E+00  0.45593999997E+02  0.45594000000E+02  0.51100000000E-03 0. -1.
         11   -1    0    0    0    0 -0.00000000000E+00 -0.00000000000E+00 -0.45593999997E+02  0.45594000000E+02  0.51100000000E-03 0.  1.
    9900012    2    1    2    0    0 -0.71310690715E+01 -0.34163778615E+02 -0.20860375848E+02  0.50528791991E+02  0.29999793736E+02 0.  0.
         12    1    1    2    0    0  0.71310690715E+01  0.34163778615E+02  0.20860375848E+02  0.40659208009E+02  0.00000000000E+00 0. -1.
         11    1    3    3    0    0 -0.38492557416E+01 -0.58212521269E+01 -0.23333646880E+01  0.73585553689E+01  0.51100000000E-03 0. -1.
        -11    1    3    3    0    0  0.64487324325E+01 -0.20346235229E+02 -0.71554694738E+00  0.21355735662E+02  0.51100000000E-03 0.  1.
         12    1    3    3    0    0 -0.97305457623E+01 -0.79962912596E+01 -0.17811464213E+02  0.21814500960E+02  0.00000000000E+00 0. -1.
</event>
<event>
 7    1  0.5005325E-012  0.5052884E+02  0.7816164E-02  0.1300439E+00
        -11   -1    0    0    0    0  0.00000000000E+00  0.00000000000E+00  0.45593999997E+02  0.45594000000E+02  0.51100000000E-03 0.  1.
         11   -1    0    0    0    0 -0.00000000000E+00 -0.00000000000E+00 -0.45593999997E+02  0.45594000000E+02  0.51100000000E-03 0. -1.
    9900012    2    1    2    0    0  0.34515936662E+02 -0.20834397847E+01 -0.21388709064E+02  0.50528837682E+02  0.29999932617E+02 0.  0.
         12    1    1    2    0    0 -0.34515936662E+02  0.20834397847E+01  0.21388709064E+02  0.40659162318E+02  0.00000000000E+00 0. -1.
         11    1    3    3    0    0  0.62903947240E+01 -0.22443731397E+01 -0.24343921498E+01  0.71086244784E+01  0.51100000000E-03 0. -1.
        -11    1    3    3    0    0  0.29086267887E+02 -0.46214553065E+01 -0.66520118483E+01  0.30193013938E+02  0.51100000000E-03 0.  1.
         12    1    3    3    0    0 -0.86072594906E+00  0.47823886615E+01 -0.12302305066E+02  0.13227199266E+02  0.00000000000E+00 0. -1.
</event>
<event>
 7    1  0.5005325E-012  0.5052879E+02  0.7816164E-02  0.1300439E+00
        -11   -1    0    0    0    0  0.00000000000E+00  0.00000000000E+00  0.45593999997E+02  0.45594000000E+02  0.51100000000E-03 0. -1.
         11   -1    0    0    0    0 -0.00000000000E+00 -0.00000000000E+00 -0.45593999997E+02  0.45594000000E+02  0.51100000000E-03 0.  1.
    9900012    2    1    2    0    0  0.81608542724E+01 -0.30524460371E+02 -0.25589636719E+02  0.50528785413E+02  0.29999773741E+02 0.  0.
         12    1    1    2    0    0 -0.81608542724E+01  0.30524460371E+02  0.25589636719E+02  0.40659214587E+02  0.00000000000E+00 0. -1.
         11    1    3    3    0    0 -0.40174367339E+01 -0.16799325221E+02 -0.46425055666E+01  0.17886027619E+02  0.51100000000E-03 0. -1.
        -11    1    3    3    0    0 -0.16695392611E+01  0.21192785554E+01  0.32931941418E+00  0.27179320222E+01  0.51100000000E-03 0.  1.
        -12    1    3    3    0    0  0.13847830267E+02 -0.15844413706E+02 -0.21276450566E+02  0.29924825772E+02  0.00000000000E+00 0.  1.
</event>
<event>
 7    1  0.5005325E-012  0.5052886E+02  0.7816164E-02  0.1300439E+00
        -11   -1    0    0    0    0  0.00000000000E+00  0.00000000000E+00  0.45593999997E+02  0.45594000000E+02  0.51100000000E-03 0.  1.
         11   -1    0    0    0    0 -0.00000000000E+00 -0.00000000000E+00 -0.45593999997E+02  0.45594000000E+02  0.51100000000E-03 0. -1.
    9900012    2    1    2    0    0 -0.29341986534E+01  0.38045024127E+02 -0.14040391716E+02  0.50528856107E+02  0.29999988622E+02 0.  0.
        -12    1    1    2    0    0  0.29341986534E+01 -0.38045024127E+02  0.14040391716E+02  0.40659143893E+02  0.00000000000E+00 0.  1.
         11    1    3    3    0    0 -0.77738276859E+00  0.51330694475E+01 -0.47643134979E+01  0.70463756137E+01  0.51100000000E-03 0. -1.
        -11    1    3    3    0    0 -0.11360232205E+02  0.26629343572E+02  0.50247163564E-01  0.28951327083E+02  0.51100000000E-03 0.  1.
        -12    1    3    3    0    0  0.92034163204E+01  0.62826111076E+01 -0.93263253820E+01  0.14531153410E+02  0.00000000000E+00 0.  1.
</event>
<event>
 7    1  0.5005325E-012  0.5052885E+02  0.7816164E-02  0.1300439E+00
        -11   -1    0    0    0    0  0.00000000000E+00  0.00000000000E+00  0.45593999997E+02  0.45594000000E+02  0.51100000000E-03 0. -1.
         11   -1    0    0    0    0 -0.00000000000E+00 -0.00000000000E+00 -0.45593999997E+02  0.45594000000E+02  0.51100000000E-03 0.  1.
    9900012    2    1    2    0    0 -0.23314655348E+02  0.33288486794E+02  0.12124014769E+01  0.50528850669E+02  0.29999972093E+02 0.  0.
         12    1    1    2    0    0  0.23314655348E+02 -0.33288486794E+02 -0.12124014769E+01  0.40659149331E+02  0.00000000000E+00 0. -1.
         11    1    3    3    0    0  0.46931786896E+00  0.16635042666E+02  0.35778467561E+01  0.17021923847E+02  0.51100000000E-03 0. -1.
        -11    1    3    3    0    0 -0.18080397066E+02  0.19768567968E+02 -0.70415510696E+00  0.26799120736E+02  0.51100000000E-03 0.  1.
         12    1    3    3    0    0 -0.57035761510E+01 -0.31151238405E+01 -0.16612901723E+01  0.67078060861E+01  0.00000000000E+00 0. -1.
</event>
<event>
 7    1  0.5005325E-012  0.5052887E+02  0.7816164E-02  0.1300439E+00
        -11   -1    0    0    0    0  0.00000000000E+00  0.00000000000E+00  0.45593999997E+02  0.45594000000E+02  0.51100000000E-03 0. -1.
         11   -1    0    0    0    0 -0.00000000000E+00 -0.00000000000E+00 -0.45593999997E+02  0.45594000000E+02  0.51100000000E-03 0.  1.
    9900012    2    1    2    0    0  0.47479331988E+01 -0.13553178575E+02 -0.38038573411E+02  0.50528873271E+02  0.30000040796E+02 0.  0.
         12    1    1    2    0    0 -0.47479331988E+01  0.13553178575E+02  0.38038573411E+02  0.40659126729E+02  0.00000000000E+00 0. -1.
         11    1    3    3    0    0  0.81821219454E+01  0.42075090059E+01 -0.63176489137E+01  0.11160776838E+02  0.51100000000E-03 0. -1.
        -11    1    3    3    0    0  0.58316916134E+01 -0.70266198420E+01 -0.12797689563E+02  0.15721414437E+02  0.51100000000E-03 0.  1.
        -12    1    3    3    0    0 -0.92658803600E+01 -0.10734067739E+02 -0.18923234935E+02  0.23646681997E+02  0.00000000000E+00 0.  1.
</event>
<event>
 7    1  0.5005325E-012  0.5052887E+02  0.7816164E-02  0.1300439E+00
        -11   -1    0    0    0    0  0.00000000000E+00  0.00000000000E+00  0.45593999997E+02  0.45594000000E+02  0.51100000000E-03 0.  1.
         11   -1    0    0    0    0 -0.00000000000E+00 -0.00000000000E+00 -0.45593999997E+02  0.45594000000E+02  0.51100000000E-03 0. -1.
    9900012    2    1    2    0    0  0.34065374403E+02  0.15525838505E+02 -0.15863902921E+02  0.50528870516E+02  0.30000032420E+02 0.  0.
         12    1    1    2    0    0 -0.34065374403E+02 -0.15525838505E+02  0.15863902921E+02  0.40659129484E+02  0.00000000000E+00 0. -1.
         11    1    3    3    0    0  0.39139600863E+01  0.50207388927E+01 -0.15376864508E+01  0.65491512784E+01  0.51100000000E-03 0. -1.
        -11    1    3    3    0    0  0.33364768898E+02  0.42234863932E+01 -0.81543295278E+01  0.34605472562E+02  0.51100000000E-03 0.  1.
        -12    1    3    3    0    0 -0.32133545809E+01  0.62816132190E+01 -0.61718869426E+01  0.93742466752E+01  0.00000000000E+00 0.  1.
</event>
<event>
 7    1  0.5435145E-012  0.5052885E+02  0.7816164E-02  0.1300439E+00
        -11   -1    0    0    0    0  0.00000000000E+00  0.00000000000E+00  0.45593999997E+02  0.45594000000E+02  0.51100000000E-03 0. -1.
         11   -1    0    0    0    0 -0.00000000000E+00 -0.00000000000E+00 -0.45593999997E+02  0.45594000000E+02  0.51100000000E-03 0.  1.
    9900012    2    1    2    0    0 -0.26880479565E+01  0.19292483462E+02  0.35689502229E+02  0.50528854789E+02  0.29999984617E+02 0.  0.
        -12    1    1    2    0    0  0.26880479565E+01 -0.19292483462E+02 -0.35689502229E+02  0.40659145211E+02  0.00000000000E+00 0.  1.
         11    1    3    3    0    0  0.85460882610E+00  0.12264767910E+02  0.16121134130E+02  0.20274265808E+02  0.51100000000E-03 0. -1.
        -11    1    3    3    0    0  0.88014240357E+01 -0.92369197183E-01  0.68347866023E+01  0.11143962728E+02  0.51100000000E-03 0.  1.
        -12    1    3    3    0    0 -0.12344080818E+02  0.71200847492E+01  0.12733581496E+02  0.19110626253E+02  0.00000000000E+00 0.  1.
</event>
<event>
 7    1  0.5005325E-012  0.5052887E+02  0.7816164E-02  0.1300439E+00
        -11   -1    0    0    0    0  0.00000000000E+00  0.00000000000E+00  0.45593999997E+02  0.45594000000E+02  0.51100000000E-03 0. -1.
         11   -1    0    0    0    0 -0.00000000000E+00 -0.00000000000E+00 -0.45593999997E+02  0.45594000000E+02  0.51100000000E-03 0.  1.
    9900012    2    1    2    0    0  0.11761719387E+02 -0.12150482630E+02  0.36975565581E+02  0.50528871614E+02  0.30000035757E+02 0.  0.
        -12    1    1    2    0    0 -0.11761719387E+02  0.12150482630E+02 -0.36975565581E+02  0.40659128386E+02  0.00000000000E+00 0.  1.
         11    1    3    3    0    0  0.52741699358E+01 -0.13924416506E+02  0.68056873463E+01  0.16371427063E+02  0.51100000000E-03 0. -1.
        -11    1    3    3    0    0 -0.31844533160E+01 -0.30888724150E+01  0.14098519001E+02  0.14780057983E+02  0.51100000000E-03 0.  1.
        -12    1    3    3    0    0  0.96720027674E+01  0.48628062910E+01  0.16071359234E+02  0.19377386568E+02  0.00000000000E+00 0.  1.
</event>
<event>
 7    1  0.5005325E-012  0.5052887E+02  0.7816164E-02  0.1300439E+00
        -11   -1    0    0    0    0  0.00000000000E+00  0.00000000000E+00  0.45593999997E+02  0.45594000000E+02  0.51100000000E-03 0. -1.
         11   -1    0    0    0    0 -0.00000000000E+00 -0.00000000000E+00 -0.45593999997E+02  0.45594000000E+02  0.51100000000E-03 0.  1.
    9900012    2    1    2    0    0  0.14323653336E+02 -0.94536399544E+01 -0.36859553096E+02  0.50528868089E+02  0.30000025044E+02 0.  0.
         12    1    1    2    0    0 -0.14323653336E+02  0.94536399544E+01  0.36859553096E+02  0.40659131911E+02  0.00000000000E+00 0. -1.
         11    1    3    3    0    0  0.12277380184E+02 -0.29197761895E+01 -0.15099651897E+02  0.19678888304E+02  0.51100000000E-03 0. -1.
        -11    1    3    3    0    0  0.43028918704E+01  0.66053582072E+01 -0.11875197048E+02  0.14253629036E+02  0.51100000000E-03 0.  1.
        -12    1    3    3    0    0 -0.22566187182E+01 -0.13139221972E+02 -0.98847041505E+01  0.16596350750E+02  0.00000000000E+00 0.  1.
</event>
<event>
 7    1  0.5005325E-012  0.5052885E+02  0.7816164E-02  0.1300439E+00
        -11   -1    0    0    0    0  0.00000000000E+00  0.00000000000E+00  0.45593999997E+02  0.45594000000E+02  0.51100000000E-03 0. -1.
         11   -1    0    0    0    0 -0.00000000000E+00 -0.00000000000E+00 -0.45593999997E+02  0.45594000000E+02  0.51100000000E-03 0.  1.
    9900012    2    1    2    0    0  0.13379638898E+02 -0.38055214004E+02 -0.50943247599E+01  0.50528853493E+02  0.29999980677E+02 0.  0.
         12    1    1    2    0    0 -0.13379638898E+02  0.38055214004E+02  0.50943247599E+01  0.40659146507E+02  0.00000000000E+00 0. -1.
         11    1    3    3    0    0 -0.69758734447E+01 -0.56778636427E+01 -0.25224507285E+01  0.93415043649E+01  0.51100000000E-03 0. -1.
        -11    1    3    3    0    0  0.33377173243E+01 -0.11847989675E+02  0.52738829629E+01  0.13391379991E+02  0.51100000000E-03 0.  1.
        -12    1    3    3    0    0  0.17017795019E+02 -0.20529360686E+02 -0.78457569944E+01  0.27795969137E+02  0.00000000000E+00 0.  1.
</event>
<event>
 7    1  0.5005325E-012  0.5052886E+02  0.7816164E-02  0.1300439E+00
        -11   -1    0    0    0    0  0.00000000000E+00  0.00000000000E+00  0.45593999997E+02  0.45594000000E+02  0.51100000000E-03 0. -1.
         11   -1    0    0    0    0 -0.00000000000E+00 -0.00000000000E+00 -0.45593999997E+02  0.45594000000E+02  0.51100000000E-03 0.  1.
    9900012    2    1    2    0    0 -0.31827451708E+02  0.15721828144E+02 -0.19824310851E+02  0.50528857570E+02  0.29999993070E+02 0.  0.
         12    1    1    2    0    0  0.31827451708E+02 -0.15721828144E+02  0.19824310851E+02  0.40659142430E+02  0.00000000000E+00 0. -1.
         11    1    3    3    0    0 -0.15538422961E+02  0.21129889860E+01 -0.11890670608E+02  0.19679821095E+02  0.51100000000E-03 0. -1.
        -11    1    3    3    0    0 -0.12715281401E+02 -0.23565354223E+01 -0.67153615788E+00  0.12949231690E+02  0.51100000000E-03 0.  1.
         12    1    3    3    0    0 -0.35737473462E+01  0.15965374581E+02 -0.72621040855E+01  0.17899804785E+02  0.00000000000E+00 0. -1.
</event>
<event>
 7    1  0.5005325E-012  0.5052887E+02  0.7816164E-02  0.1300439E+00
        -11   -1    0    0    0    0  0.00000000000E+00  0.00000000000E+00  0.45593999997E+02  0.45594000000E+02  0.51100000000E-03 0. -1.
         11   -1    0    0    0    0 -0.00000000000E+00 -0.00000000000E+00 -0.45593999997E+02  0.45594000000E+02  0.51100000000E-03 0.  1.
    9900012    2    1    2    0    0  0.30066157412E+02 -0.74831390275E+00  0.27361126990E+02  0.50528867380E+02  0.30000022889E+02 0.  0.
        -12    1    1    2    0    0 -0.30066157412E+02  0.74831390275E+00 -0.27361126990E+02  0.40659132620E+02  0.00000000000E+00 0.  1.
         11    1    3    3    0    0  0.23841686188E+02  0.51506462954E+01  0.12677620273E+02  0.27489583729E+02  0.51100000000E-03 0. -1.
        -11    1    3    3    0    0  0.58611938735E+00 -0.19468963419E+01 -0.32476330766E+01  0.38315874209E+01  0.51100000000E-03 0.  1.
        -12    1    3    3    0    0  0.56383518365E+01 -0.39520638563E+01  0.17931139794E+02  0.19207696230E+02  0.00000000000E+00 0.  1.
</event>
<event>
 7    1  0.5005325E-012  0.5052886E+02  0.7816164E-02  0.1300439E+00
        -11   -1    0    0    0    0  0.00000000000E+00  0.00000000000E+00  0.45593999997E+02  0.45594000000E+02  0.51100000000E-03 0. -1.
         11   -1    0    0    0    0 -0.00000000000E+00 -0.00000000000E+00 -0.45593999997E+02  0.45594000000E+02  0.51100000000E-03 0.  1.
    9900012    2    1    2    0    0 -0.40172511284E+02  0.17519534031E+01  0.60220938702E+01  0.50528860582E+02  0.30000002226E+02 0.  0.
        -12    1    1    2    0    0  0.40172511284E+02 -0.17519534031E+01 -0.60220938702E+01  0.40659139418E+02  0.00000000000E+00 0.  1.
         11    1    3    3    0    0 -0.12592593580E+02 -0.40881162466E+00  0.59408687115E+01  0.13929625312E+02  0.51100000000E-03 0. -1.
        -11    1    3    3    0    0 -0.12657106506E+02  0.11967519147E+02  0.49161746022E+01  0.18099520231E+02  0.51100000000E-03 0.  1.
        -12    1    3    3    0    0 -0.14922811198E+02 -0.98067541191E+01 -0.48349494435E+01  0.18499715039E+02  0.00000000000E+00 0.  1.
</event>
<event>
 7    1  0.5005325E-012  0.5052886E+02  0.7816164E-02  0.1300439E+00
        -11   -1    0    0    0    0  0.00000000000E+00  0.00000000000E+00  0.45593999997E+02  0.45594000000E+02  0.51100000000E-03 0. -1.
         11   -1    0    0    0    0 -0.00000000000E+00 -0.00000000000E+00 -0.45593999997E+02  0.45594000000E+02  0.51100000000E-03 0.  1.
    9900012    2    1    2    0    0  0.20593754763E+02 -0.25371175841E+02 -0.24194350738E+02  0.50528857037E+02  0.29999991450E+02 0.  0.
         12    1    1    2    0    0 -0.20593754763E+02  0.25371175841E+02  0.24194350738E+02  0.40659142963E+02  0.00000000000E+00 0. -1.
         11    1    3    3    0    0  0.57587182938E+01 -0.66304025942E+01  0.96046487902E+00  0.88344534632E+01  0.51100000000E-03 0. -1.
        -11    1    3    3    0    0  0.15957104360E+02 -0.23354219637E+02 -0.19737046139E+02  0.34490574726E+02  0.51100000000E-03 0.  1.
        -12    1    3    3    0    0 -0.11220678905E+01  0.46134463900E+01 -0.54177694783E+01  0.72038288475E+01  0.00000000000E+00 0.  1.
</event>
<event>
 7    1  0.5005325E-012  0.5052886E+02  0.7816164E-02  0.1300439E+00
        -11   -1    0    0    0    0  0.00000000000E+00  0.00000000000E+00  0.45593999997E+02  0.45594000000E+02  0.51100000000E-03 0. -1.
         11   -1    0    0    0    0 -0.00000000000E+00 -0.00000000000E+00 -0.45593999997E+02  0.45594000000E+02  0.51100000000E-03 0.  1.
    9900012    2    1    2    0    0 -0.22051054502E+02  0.52004069773E+01  0.33761996909E+02  0.50528859913E+02  0.30000000191E+02 0.  0.
        -12    1    1    2    0    0  0.22051054502E+02 -0.52004069773E+01 -0.33761996909E+02  0.40659140087E+02  0.00000000000E+00 0.  1.
         11    1    3    3    0    0 -0.99381492747E+01 -0.80990991300E+01  0.71416656376E+01  0.14675340066E+02  0.51100000000E-03 0.  1.
        -11    1    3    3    0    0 -0.84987056742E+01  0.44643602178E+01  0.24157603452E+02  0.25995159455E+02  0.51100000000E-03 0. -1.
        -12    1    3    3    0    0 -0.36141995530E+01  0.88351458895E+01  0.24627278190E+01  0.98583603915E+01  0.00000000000E+00 0.  1.
</event>
<event>
 7    1  0.5005325E-012  0.5052886E+02  0.7816164E-02  0.1300439E+00
        -11   -1    0    0    0    0  0.00000000000E+00  0.00000000000E+00  0.45593999997E+02  0.45594000000E+02  0.51100000000E-03 0. -1.
         11   -1    0    0    0    0 -0.00000000000E+00 -0.00000000000E+00 -0.45593999997E+02  0.45594000000E+02  0.51100000000E-03 0.  1.
    9900012    2    1    2    0    0 -0.38160990569E+02  0.11302016123E+02 -0.83168048458E+01  0.50528855733E+02  0.29999987486E+02 0.  0.
         12    1    1    2    0    0  0.38160990569E+02 -0.11302016123E+02  0.83168048458E+01  0.40659144267E+02  0.00000000000E+00 0. -1.
         11    1    3    3    0    0 -0.80078358371E+01 -0.60647424690E+01 -0.40011900825E+01  0.10812772926E+02  0.51100000000E-03 0. -1.
        -11    1    3    3    0    0 -0.24735385841E+02  0.82163853541E+01 -0.96823418444E+01  0.27804604741E+02  0.51100000000E-03 0.  1.
         12    1    3    3    0    0 -0.54177688917E+01  0.91503732376E+01  0.53667270811E+01  0.11911478066E+02  0.00000000000E+00 0. -1.
</event>
<event>
 7    1  0.5005325E-012  0.5052886E+02  0.7816164E-02  0.1300439E+00
        -11   -1    0    0    0    0  0.00000000000E+00  0.00000000000E+00  0.45593999997E+02  0.45594000000E+02  0.51100000000E-03 0. -1.
         11   -1    0    0    0    0 -0.00000000000E+00 -0.00000000000E+00 -0.45593999997E+02  0.45594000000E+02  0.51100000000E-03 0.  1.
    9900012    2    1    2    0    0  0.39718943636E+01 -0.40200713210E+02  0.46143476527E+01  0.50528862138E+02  0.30000006955E+02 0.  0.
        -12    1    1    2    0    0 -0.39718943636E+01  0.40200713210E+02 -0.46143476527E+01  0.40659137862E+02  0.00000000000E+00 0.  1.
         11    1    3    3    0    0  0.29305797339E+01 -0.14601222947E+02 -0.56310646229E+01  0.15921460302E+02  0.51100000000E-03 0. -1.
        -11    1    3    3    0    0 -0.61184150607E+01 -0.46044365947E+01 -0.35972414244E+01  0.84602591766E+01  0.51100000000E-03 0.  1.
         12    1    3    3    0    0  0.71597296904E+01 -0.20995053668E+02  0.13842653700E+02  0.26147142659E+02  0.00000000000E+00 0. -1.
</event>
<event>
 7    1  0.5005325E-012  0.5052889E+02  0.7816164E-02  0.1300439E+00
        -11   -1    0    0    0    0  0.00000000000E+00  0.00000000000E+00  0.45593999997E+02  0.45594000000E+02  0.51100000000E-03 0.  1.
         11   -1    0    0    0    0 -0.00000000000E+00 -0.00000000000E+00 -0.45593999997E+02  0.45594000000E+02  0.51100000000E-03 0. -1.
    9900012    2    1    2    0    0  0.11892366359E+02 -0.34747189412E+02  0.17446145491E+02  0.50528886113E+02  0.30000079828E+02 0.  0.
        -12    1    1    2    0    0 -0.11892366359E+02  0.34747189412E+02 -0.17446145491E+02  0.40659113887E+02  0.00000000000E+00 0.  1.
         11    1    3    3    0    0  0.83231860546E+01 -0.31139019986E+02  0.21690953371E+02  0.38851144773E+02  0.51100000000E-03 0. -1.
        -11    1    3    3    0    0 -0.13345543677E+01 -0.54034083048E+01 -0.14350698110E+01  0.57478067375E+01  0.51100000000E-03 0.  1.
        -12    1    3    3    0    0  0.49037346716E+01  0.17952388791E+01 -0.28097380692E+01  0.59299346017E+01  0.00000000000E+00 0.  1.
</event>
<event>
 7    1  0.5005325E-012  0.5052885E+02  0.7816164E-02  0.1300439E+00
        -11   -1    0    0    0    0  0.00000000000E+00  0.00000000000E+00  0.45593999997E+02  0.45594000000E+02  0.51100000000E-03 0. -1.
         11   -1    0    0    0    0 -0.00000000000E+00 -0.00000000000E+00 -0.45593999997E+02  0.45594000000E+02  0.51100000000E-03 0.  1.
    9900012    2    1    2    0    0 -0.25794777229E+01  0.93959032081E+01  0.39474419943E+02  0.50528849341E+02  0.29999968058E+02 0.  0.
        -12    1    1    2    0    0  0.25794777229E+01 -0.93959032081E+01 -0.39474419943E+02  0.40659150659E+02  0.00000000000E+00 0.  1.
         11    1    3    3    0    0 -0.50889817942E+01 -0.73779210573E+01  0.12072847910E+02  0.15036126887E+02  0.51100000000E-03 0. -1.
        -11    1    3    3    0    0  0.52519965351E+01  0.20416658822E+01  0.15059557906E+02  0.16079245995E+02  0.51100000000E-03 0.  1.
         12    1    3    3    0    0 -0.27424924637E+01  0.14732158383E+02  0.12342014128E+02  0.19413476460E+02  0.00000000000E+00 0. -1.
</event>
<event>
 7    1  0.5005325E-012  0.5052886E+02  0.7816164E-02  0.1300439E+00
        -11   -1    0    0    0    0  0.00000000000E+00  0.00000000000E+00  0.45593999997E+02  0.45594000000E+02  0.51100000000E-03 0. -1.
         11   -1    0    0    0    0 -0.00000000000E+00 -0.00000000000E+00 -0.45593999997E+02  0.45594000000E+02  0.51100000000E-03 0.  1.
    9900012    2    1    2    0    0  0.36561616192E+02  0.12471788701E+02  0.12683403920E+02  0.50528855556E+02  0.29999986948E+02 0.  0.
        -12    1    1    2    0    0 -0.36561616192E+02 -0.12471788701E+02 -0.12683403920E+02  0.40659144444E+02  0.00000000000E+00 0.  1.
         11    1    3    3    0    0  0.54146038197E+01  0.10211139952E+02  0.13152205853E+02  0.17509021466E+02  0.51100000000E-03 0. -1.
        -11    1    3    3    0    0  0.15798843248E+02 -0.23975259405E+01  0.37932046138E+01  0.16423762666E+02  0.51100000000E-03 0.  1.
        -12    1    3    3    0    0  0.15348169124E+02  0.46581746895E+01 -0.42620065471E+01  0.16596071424E+02  0.00000000000E+00 0.  1.
</event>
<event>
 7    1  0.5005325E-012  0.5052888E+02  0.7816164E-02  0.1300439E+00
        -11   -1    0    0    0    0  0.00000000000E+00  0.00000000000E+00  0.45593999997E+02  0.45594000000E+02  0.51100000000E-03 0. -1.
         11   -1    0    0    0    0 -0.00000000000E+00 -0.00000000000E+00 -0.45593999997E+02  0.45594000000E+02  0.51100000000E-03 0.  1.
    9900012    2    1    2    0    0  0.20906332355E+02  0.16658415785E+02  0.30636362277E+02  0.50528877498E+02  0.30000053644E+02 0.  0.
        -12    1    1    2    0    0 -0.20906332355E+02 -0.16658415785E+02 -0.30636362277E+02  0.40659122502E+02  0.00000000000E+00 0.  1.
         11    1    3    3    0    0  0.35429349409E+01 -0.30807587656E+01  0.95440815722E+01  0.10636397693E+02  0.51100000000E-03 0. -1.
        -11    1    3    3    0    0  0.49482703153E+01 -0.34156085577E+01  0.93460863671E+01  0.11113104498E+02  0.51100000000E-03 0.  1.
        -12    1    3    3    0    0  0.12415127099E+02  0.23154783108E+02  0.11746194338E+02  0.28779375308E+02  0.00000000000E+00 0.  1.
</event>
<event>
 7    1  0.5005325E-012  0.5052886E+02  0.7816164E-02  0.1300439E+00
        -11   -1    0    0    0    0  0.00000000000E+00  0.00000000000E+00  0.45593999997E+02  0.45594000000E+02  0.51100000000E-03 0. -1.
         11   -1    0    0    0    0 -0.00000000000E+00 -0.00000000000E+00 -0.45593999997E+02  0.45594000000E+02  0.51100000000E-03 0.  1.
    9900012    2    1    2    0    0 -0.35689834845E+02  0.12636284690E+01  0.19437201680E+02  0.50528857396E+02  0.29999992540E+02 0.  0.
        -12    1    1    2    0    0  0.35689834845E+02 -0.12636284690E+01 -0.19437201680E+02  0.40659142604E+02  0.00000000000E+00 0.  1.
         11    1    3    3    0    0 -0.10288342349E+02  0.11479481680E+02  0.16607297757E+02  0.22659012048E+02  0.51100000000E-03 0. -1.
        -11    1    3    3    0    0 -0.27651037858E+01 -0.81394447230E+00 -0.10210512000E+01  0.30579160165E+01  0.51100000000E-03 0.  1.
         12    1    3    3    0    0 -0.22636388711E+02 -0.94019087384E+01  0.38509551229E+01  0.24811929331E+02  0.00000000000E+00 0. -1.
</event>
<event>
 7    1  0.5005325E-012  0.5052887E+02  0.7816164E-02  0.1300439E+00
        -11   -1    0    0    0    0  0.00000000000E+00  0.00000000000E+00  0.45593999997E+02  0.45594000000E+02  0.51100000000E-03 0. -1.
         11   -1    0    0    0    0 -0.00000000000E+00 -0.00000000000E+00 -0.45593999997E+02  0.45594000000E+02  0.51100000000E-03 0.  1.
    9900012    2    1    2    0    0  0.33292453389E+01  0.86881806087E+01 -0.39580254752E+02  0.50528869130E+02  0.30000028209E+02 0.  0.
         12    1    1    2    0    0 -0.33292453389E+01 -0.86881806087E+01  0.39580254752E+02  0.40659130870E+02  0.00000000000E+00 0. -1.
         11    1    3    3    0    0  0.55826787771E+01  0.87401203317E+01 -0.28136412281E+02  0.29986892170E+02  0.51100000000E-03 0.  1.
        -11    1    3    3    0    0  0.20200905652E+01 -0.77736550636E+01 -0.70323354064E+01  0.10675402590E+02  0.51100000000E-03 0. -1.
         12    1    3    3    0    0 -0.42735240034E+01  0.77217153406E+01 -0.44115070653E+01  0.98665743699E+01  0.00000000000E+00 0. -1.
</event>
<event>
 7    1  0.5005325E-012  0.5052886E+02  0.7816164E-02  0.1300439E+00
        -11   -1    0    0    0    0  0.00000000000E+00  0.00000000000E+00  0.45593999997E+02  0.45594000000E+02  0.51100000000E-03 0.  1.
         11   -1    0    0    0    0 -0.00000000000E+00 -0.00000000000E+00 -0.45593999997E+02  0.45594000000E+02  0.51100000000E-03 0. -1.
    9900012    2    1    2    0    0 -0.18630936027E+01 -0.39331603458E+02  0.10135078205E+02  0.50528856397E+02  0.29999989504E+02 0.  0.
        -12    1    1    2    0    0  0.18630936027E+01  0.39331603458E+02 -0.10135078205E+02  0.40659143603E+02  0.00000000000E+00 0.  1.
         11    1    3    3    0    0 -0.76889771392E+00 -0.28810278964E+02  0.16032318031E+01  0.28865095361E+02  0.51100000000E-03 0. -1.
        -11    1    3    3    0    0  0.26392446620E+01 -0.11055237659E+02  0.12008436978E+02  0.16534402046E+02  0.51100000000E-03 0.  1.
         12    1    3    3    0    0 -0.37334405508E+01  0.53391316564E+00 -0.34765905769E+01  0.51293589906E+01  0.00000000000E+00 0. -1.
</event>
<event>
 7    1  0.5005325E-012  0.5052886E+02  0.7816164E-02  0.1300439E+00
        -11   -1    0    0    0    0  0.00000000000E+00  0.00000000000E+00  0.45593999997E+02  0.45594000000E+02  0.51100000000E-03 0. -1.
         11   -1    0    0    0    0 -0.00000000000E+00 -0.00000000000E+00 -0.45593999997E+02  0.45594000000E+02  0.51100000000E-03 0.  1.
    9900012    2    1    2    0    0  0.35566467921E+02  0.11544825873E+02 -0.15965870553E+02  0.50528859978E+02  0.30000000388E+02 0.  0.
         12    1    1    2    0    0 -0.35566467921E+02 -0.11544825873E+02  0.15965870553E+02  0.40659140022E+02  0.00000000000E+00 0. -1.
         11    1    3    3    0    0  0.31566949488E+02  0.56272709586E+01 -0.39274585915E+01  0.32304232071E+02  0.51100000000E-03 0.  1.
        -11    1    3    3    0    0 -0.35072272187E+01 -0.19554943779E+00 -0.12476491113E+01  0.37276682943E+01  0.51100000000E-03 0. -1.
        -12    1    3    3    0    0  0.75067456518E+01  0.61131043526E+01 -0.10790762851E+02  0.14496959612E+02  0.00000000000E+00 0.  1.
</event>
<event>
 7    1  0.5005325E-012  0.5052886E+02  0.7816164E-02  0.1300439E+00
        -11   -1    0    0    0    0  0.00000000000E+00  0.00000000000E+00  0.45593999997E+02  0.45594000000E+02  0.51100000000E-03 0. -1.
         11   -1    0    0    0    0 -0.00000000000E+00 -0.00000000000E+00 -0.45593999997E+02  0.45594000000E+02  0.51100000000E-03 0.  1.
    9900012    2    1    2    0    0 -0.13996612431E+02 -0.57503737176E+01  0.37738489956E+02  0.50528861032E+02  0.30000003593E+02 0.  0.
        -12    1    1    2    0    0  0.13996612431E+02  0.57503737176E+01 -0.37738489956E+02  0.40659138968E+02  0.00000000000E+00 0.  1.
         11    1    3    3    0    0 -0.19991131287E+01 -0.60149501292E+00 -0.12472982394E+01  0.24318722645E+01  0.51100000000E-03 0. -1.
        -11    1    3    3    0    0  0.77612514305E+01 -0.23504743158E+01  0.13184860292E+02  0.15479092172E+02  0.51100000000E-03 0.  1.
         12    1    3    3    0    0 -0.19758750733E+02 -0.27984043889E+01  0.25800927903E+02  0.32617896596E+02  0.00000000000E+00 0. -1.
</event>
<event>
 7    1  0.5005325E-012  0.5052888E+02  0.7816164E-02  0.1300439E+00
        -11   -1    0    0    0    0  0.00000000000E+00  0.00000000000E+00  0.45593999997E+02  0.45594000000E+02  0.51100000000E-03 0. -1.
         11   -1    0    0    0    0 -0.00000000000E+00 -0.00000000000E+00 -0.45593999997E+02  0.45594000000E+02  0.51100000000E-03 0.  1.
    9900012    2    1    2    0    0  0.17184872527E+02 -0.20437480499E+01 -0.36792222984E+02  0.50528875293E+02  0.30000046940E+02 0.  0.
         12    1    1    2    0    0 -0.17184872527E+02  0.20437480499E+01  0.36792222984E+02  0.40659124707E+02  0.00000000000E+00 0. -1.
         11    1    3    3    0    0  0.49908187039E+00  0.46746961306E+01 -0.71259592096E+00  0.47549616018E+01  0.51100000000E-03 0. -1.
        -11    1    3    3    0    0  0.66109914986E+01  0.49231328938E+01 -0.26235845087E+02  0.27500218431E+02  0.51100000000E-03 0.  1.
        -12    1    3    3    0    0  0.10074799158E+02 -0.11641577074E+02 -0.98437819759E+01  0.18273695260E+02  0.00000000000E+00 0.  1.
</event>
<event>
 7    1  0.5005325E-012  0.5052887E+02  0.7816164E-02  0.1300439E+00
        -11   -1    0    0    0    0  0.00000000000E+00  0.00000000000E+00  0.45593999997E+02  0.45594000000E+02  0.51100000000E-03 0.  1.
         11   -1    0    0    0    0 -0.00000000000E+00 -0.00000000000E+00 -0.45593999997E+02  0.45594000000E+02  0.51100000000E-03 0. -1.
    9900012    2    1    2    0    0 -0.34592735094E+02 -0.20800500251E+02  0.48833463678E+01  0.50528865679E+02  0.30000017718E+02 0.  0.
        -12    1    1    2    0    0  0.34592735094E+02  0.20800500251E+02 -0.48833463678E+01  0.40659134321E+02  0.00000000000E+00 0.  1.
         11    1    3    3    0    0 -0.78770272413E+01 -0.47472367110E+01  0.34017195104E+01  0.98058916188E+01  0.51100000000E-03 0. -1.
        -11    1    3    3    0    0  0.22736894193E+01 -0.10612031071E+02  0.27645860151E+01  0.11199455484E+02  0.51100000000E-03 0.  1.
         12    1    3    3    0    0 -0.28989397272E+02 -0.54412324692E+01 -0.12829591577E+01  0.29523518577E+02  0.00000000000E+00 0. -1.
</event>
<event>
 7    1  0.5005325E-012  0.5052886E+02  0.7816164E-02  0.1300439E+00
        -11   -1    0    0    0    0  0.00000000000E+00  0.00000000000E+00  0.45593999997E+02  0.45594000000E+02  0.51100000000E-03 0. -1.
         11   -1    0    0    0    0 -0.00000000000E+00 -0.00000000000E+00 -0.45593999997E+02  0.45594000000E+02  0.51100000000E-03 0.  1.
    9900012    2    1    2    0    0 -0.33131538762E+01  0.32501876638E+02 -0.24203643480E+02  0.50528864110E+02  0.30000012950E+02 0.  0.
         12    1    1    2    0    0  0.33131538762E+01 -0.32501876638E+02  0.24203643480E+02  0.40659135890E+02  0.00000000000E+00 0. -1.
         11    1    3    3    0    0 -0.80974291289E+01  0.32011848822E+02 -0.24766622405E+02  0.41276051278E+02  0.51100000000E-03 0. -1.
        -11    1    3    3    0    0  0.15376331321E+01  0.28628618703E-02 -0.36213636676E+01  0.39342850582E+01  0.51100000000E-03 0.  1.
        -12    1    3    3    0    0  0.32466421205E+01  0.48716495409E+00  0.41843425929E+01  0.53185277743E+01  0.00000000000E+00 0.  1.
</event>
<event>
 7    1  0.5005325E-012  0.5052885E+02  0.7816164E-02  0.1300439E+00
        -11   -1    0    0    0    0  0.00000000000E+00  0.00000000000E+00  0.45593999997E+02  0.45594000000E+02  0.51100000000E-03 0.  1.
         11   -1    0    0    0    0 -0.00000000000E+00 -0.00000000000E+00 -0.45593999997E+02  0.45594000000E+02  0.51100000000E-03 0. -1.
    9900012    2    1    2    0    0  0.18871140701E+02  0.19420873690E+02  0.30329466522E+02  0.50528845733E+02  0.29999957089E+02 0.  0.
        -12    1    1    2    0    0 -0.18871140701E+02 -0.19420873690E+02 -0.30329466522E+02  0.40659154267E+02  0.00000000000E+00 0.  1.
         11    1    3    3    0    0  0.99983561649E+01  0.25003148480E+01  0.25546989659E+01  0.10618153672E+02  0.51100000000E-03 0. -1.
        -11    1    3    3    0    0  0.61302914453E+01  0.40828269887E-01 -0.12179719380E+01  0.62502476794E+01  0.51100000000E-03 0.  1.
         12    1    3    3    0    0  0.27424930908E+01  0.16879730572E+02  0.28992739494E+02  0.33660444381E+02  0.00000000000E+00 0. -1.
</event>
<event>
 7    1  0.5005325E-012  0.5052885E+02  0.7816164E-02  0.1300439E+00
        -11   -1    0    0    0    0  0.00000000000E+00  0.00000000000E+00  0.45593999997E+02  0.45594000000E+02  0.51100000000E-03 0. -1.
         11   -1    0    0    0    0 -0.00000000000E+00 -0.00000000000E+00 -0.45593999997E+02  0.45594000000E+02  0.51100000000E-03 0.  1.
    9900012    2    1    2    0    0  0.21888565968E+01  0.40589481846E+02  0.93237619831E+00  0.50528850290E+02  0.29999970942E+02 0.  0.
         12    1    1    2    0    0 -0.21888565968E+01 -0.40589481846E+02 -0.93237619831E+00  0.40659149710E+02  0.00000000000E+00 0. -1.
         11    1    3    3    0    0  0.29601480128E+01 -0.27767777425E+00  0.12049533358E+01  0.32080358487E+01  0.51100000000E-03 0. -1.
        -11    1    3    3    0    0  0.71910330581E+01  0.16483207331E+02 -0.91494744674E+01  0.20177213972E+02  0.51100000000E-03 0.  1.
         12    1    3    3    0    0 -0.79623244741E+01  0.24383952289E+02  0.88768973299E+01  0.27143600470E+02  0.00000000000E+00 0. -1.
</event>
<event>
 7    1  0.5005325E-012  0.5052887E+02  0.7816164E-02  0.1300439E+00
        -11   -1    0    0    0    0  0.00000000000E+00  0.00000000000E+00  0.45593999997E+02  0.45594000000E+02  0.51100000000E-03 0. -1.
         11   -1    0    0    0    0 -0.00000000000E+00 -0.00000000000E+00 -0.45593999997E+02  0.45594000000E+02  0.51100000000E-03 0.  1.
    9900012    2    1    2    0    0  0.21865345567E+02 -0.12387881759E+02 -0.31962665890E+02  0.50528868651E+02  0.30000026752E+02 0.  0.
         12    1    1    2    0    0 -0.21865345567E+02  0.12387881759E+02  0.31962665890E+02  0.40659131349E+02  0.00000000000E+00 0. -1.
         11    1    3    3    0    0  0.55061267849E+01  0.39548641234E+01 -0.42608032484E+01  0.80070485817E+01  0.51100000000E-03 0. -1.
        -11    1    3    3    0    0 -0.51997562485E+01 -0.12984913210E+00 -0.56563568273E+01  0.76843151067E+01  0.51100000000E-03 0.  1.
        -12    1    3    3    0    0  0.21558975031E+02 -0.16212896750E+02 -0.22045505814E+02  0.34837504963E+02  0.00000000000E+00 0.  1.
</event>
<event>
 7    1  0.5005325E-012  0.5052886E+02  0.7816164E-02  0.1300439E+00
        -11   -1    0    0    0    0  0.00000000000E+00  0.00000000000E+00  0.45593999997E+02  0.45594000000E+02  0.51100000000E-03 0. -1.
         11   -1    0    0    0    0 -0.00000000000E+00 -0.00000000000E+00 -0.45593999997E+02  0.45594000000E+02  0.51100000000E-03 0.  1.
    9900012    2    1    2    0    0 -0.11592826112E+02  0.43268767014E+01 -0.38730476499E+02  0.50528864630E+02  0.30000014528E+02 0.  0.
         12    1    1    2    0    0  0.11592826112E+02 -0.43268767014E+01  0.38730476499E+02  0.40659135370E+02  0.00000000000E+00 0. -1.
         11    1    3    3    0    0  0.44347812091E+01 -0.38717120168E+01 -0.45463419298E+01  0.74381895322E+01  0.51100000000E-03 0. -1.
        -11    1    3    3    0    0 -0.46368601749E+01  0.73628191726E+00 -0.27542671984E+02  0.27939959979E+02  0.51100000000E-03 0.  1.
         12    1    3    3    0    0 -0.11390747146E+02  0.74623068010E+01 -0.66414625851E+01  0.15150715119E+02  0.00000000000E+00 0. -1.
</event>
<event>
 7    1  0.5005325E-012  0.5052886E+02  0.7816164E-02  0.1300439E+00
        -11   -1    0    0    0    0  0.00000000000E+00  0.00000000000E+00  0.45593999997E+02  0.45594000000E+02  0.51100000000E-03 0. -1.
         11   -1    0    0    0    0 -0.00000000000E+00 -0.00000000000E+00 -0.45593999997E+02  0.45594000000E+02  0.51100000000E-03 0.  1.
    9900012    2    1    2    0    0  0.41915151838E+01  0.22768617075E+02 -0.33424342713E+02  0.50528863157E+02  0.30000010052E+02 0.  0.
         12    1    1    2    0    0 -0.41915151838E+01 -0.22768617075E+02  0.33424342713E+02  0.40659136843E+02  0.00000000000E+00 0. -1.
         11    1    3    3    0    0 -0.80506560969E+01  0.80433150636E+01 -0.24503292514E+01  0.11640966219E+02  0.51100000000E-03 0. -1.
        -11    1    3    3    0    0  0.35473397066E+01  0.14298833766E+02 -0.17935895711E+02  0.23210700577E+02  0.51100000000E-03 0.  1.
        -12    1    3    3    0    0  0.86948315741E+01  0.42646824503E+00 -0.13038117751E+02  0.15677196361E+02  0.00000000000E+00 0.  1.
</event>
<event>
 7    1  0.5005325E-012  0.5052887E+02  0.7816164E-02  0.1300439E+00
        -11   -1    0    0    0    0  0.00000000000E+00  0.00000000000E+00  0.45593999997E+02  0.45594000000E+02  0.51100000000E-03 0. -1.
         11   -1    0    0    0    0 -0.00000000000E+00 -0.00000000000E+00 -0.45593999997E+02  0.45594000000E+02  0.51100000000E-03 0.  1.
    9900012    2    1    2    0    0 -0.31491450553E+01 -0.28566484711E+02 -0.28761154283E+02  0.50528866229E+02  0.30000019388E+02 0.  0.
         12    1    1    2    0    0  0.31491450553E+01  0.28566484711E+02  0.28761154283E+02  0.40659133771E+02  0.00000000000E+00 0. -1.
         11    1    3    3    0    0 -0.45327963298E+01 -0.84081226207E+01  0.13869722446E+01  0.96522774950E+01  0.51100000000E-03 0. -1.
        -11    1    3    3    0    0 -0.79141202760E+01 -0.11372737510E+02 -0.20964718066E+02  0.25129501826E+02  0.51100000000E-03 0.  1.
         12    1    3    3    0    0  0.92977715505E+01 -0.87856245809E+01 -0.91834084624E+01  0.15747086907E+02  0.00000000000E+00 0. -1.
</event>
<event>
 7    1  0.5005325E-012  0.5052888E+02  0.7816164E-02  0.1300439E+00
        -11   -1    0    0    0    0  0.00000000000E+00  0.00000000000E+00  0.45593999997E+02  0.45594000000E+02  0.51100000000E-03 0. -1.
         11   -1    0    0    0    0 -0.00000000000E+00 -0.00000000000E+00 -0.45593999997E+02  0.45594000000E+02  0.51100000000E-03 0.  1.
    9900012    2    1    2    0    0  0.33104282436E+02 -0.14720154063E+01 -0.23560646677E+02  0.50528875357E+02  0.30000047134E+02 0.  0.
         12    1    1    2    0    0 -0.33104282436E+02  0.14720154063E+01  0.23560646677E+02  0.40659124643E+02  0.00000000000E+00 0. -1.
         11    1    3    3    0    0  0.98123190977E+01  0.70083207320E+01 -0.36833935649E+01  0.12608154265E+02  0.51100000000E-03 0.  1.
        -11    1    3    3    0    0  0.23785605517E+02 -0.23098686873E+01 -0.20775600492E+02  0.31665692780E+02  0.51100000000E-03 0. -1.
         12    1    3    3    0    0 -0.49364217935E+00 -0.61704674510E+01  0.89834738000E+00  0.62550283118E+01  0.00000000000E+00 0. -1.
</event>
<event>
 7    1  0.5005325E-012  0.5052887E+02  0.7816164E-02  0.1300439E+00
        -11   -1    0    0    0    0  0.00000000000E+00  0.00000000000E+00  0.45593999997E+02  0.45594000000E+02  0.51100000000E-03 0. -1.
         11   -1    0    0    0    0 -0.00000000000E+00 -0.00000000000E+00 -0.45593999997E+02  0.45594000000E+02  0.51100000000E-03 0.  1.
    9900012    2    1    2    0    0  0.22573396160E+02  0.15425147922E+02 -0.30094371265E+02  0.50528873294E+02  0.30000040866E+02 0.  0.
         12    1    1    2    0    0 -0.22573396160E+02 -0.15425147922E+02  0.30094371265E+02  0.40659126706E+02  0.00000000000E+00 0. -1.
         11    1    3    3    0    0  0.97586485127E+01  0.23028915767E+01 -0.63283667530E+00  0.10046641873E+02  0.51100000000E-03 0. -1.
        -11    1    3    3    0    0 -0.12072237472E-01  0.11898628505E+02 -0.51461117693E+01  0.12963794685E+02  0.51100000000E-03 0.  1.
         12    1    3    3    0    0  0.12826819885E+02  0.12236278401E+01 -0.24315422821E+02  0.27518436736E+02  0.00000000000E+00 0. -1.
</event>
<event>
 7    1  0.5005325E-012  0.5052887E+02  0.7816164E-02  0.1300439E+00
        -11   -1    0    0    0    0  0.00000000000E+00  0.00000000000E+00  0.45593999997E+02  0.45594000000E+02  0.51100000000E-03 0. -1.
         11   -1    0    0    0    0 -0.00000000000E+00 -0.00000000000E+00 -0.45593999997E+02  0.45594000000E+02  0.51100000000E-03 0.  1.
    9900012    2    1    2    0    0 -0.25988204395E+02  0.12854079826E+02 -0.28505276265E+02  0.50528869281E+02  0.30000028667E+02 0.  0.
         12    1    1    2    0    0  0.25988204395E+02 -0.12854079826E+02  0.28505276265E+02  0.40659130719E+02  0.00000000000E+00 0. -1.
         11    1    3    3    0    0 -0.11312719282E+02  0.79486070772E+00  0.22345493677E+00  0.11342810651E+02  0.51100000000E-03 0. -1.
        -11    1    3    3    0    0 -0.33197099494E+01  0.10422719438E+02 -0.35229222551E+01  0.11491933523E+02  0.51100000000E-03 0.  1.
        -12    1    3    3    0    0 -0.11355775164E+02  0.16364996800E+01 -0.25205808947E+02  0.27694125107E+02  0.00000000000E+00 0.  1.
</event>
<event>
 7    1  0.5005325E-012  0.5052886E+02  0.7816164E-02  0.1300439E+00
        -11   -1    0    0    0    0  0.00000000000E+00  0.00000000000E+00  0.45593999997E+02  0.45594000000E+02  0.51100000000E-03 0. -1.
         11   -1    0    0    0    0 -0.00000000000E+00 -0.00000000000E+00 -0.45593999997E+02  0.45594000000E+02  0.51100000000E-03 0.  1.
    9900012    2    1    2    0    0  0.76674459854E+01 -0.73554347573E+01 -0.39246322201E+02  0.50528856444E+02  0.29999989648E+02 0.  0.
         12    1    1    2    0    0 -0.76674459854E+01  0.73554347573E+01  0.39246322201E+02  0.40659143556E+02  0.00000000000E+00 0. -1.
         11    1    3    3    0    0 -0.29567898290E+01 -0.57574835423E+01 -0.11492452749E+01  0.65735825693E+01  0.51100000000E-03 0. -1.
        -11    1    3    3    0    0  0.57740724268E+01  0.45320633757E+01 -0.28864046829E+01  0.78873850601E+01  0.51100000000E-03 0.  1.
        -12    1    3    3    0    0  0.48501633876E+01 -0.61300145908E+01 -0.35210672243E+02  0.36067888815E+02  0.00000000000E+00 0.  1.
</event>
<event>
 7    1  0.5005325E-012  0.5052884E+02  0.7816164E-02  0.1300439E+00
        -11   -1    0    0    0    0  0.00000000000E+00  0.00000000000E+00  0.45593999997E+02  0.45594000000E+02  0.51100000000E-03 0. -1.
         11   -1    0    0    0    0 -0.00000000000E+00 -0.00000000000E+00 -0.45593999997E+02  0.45594000000E+02  0.51100000000E-03 0.  1.
    9900012    2    1    2    0    0 -0.22224574975E+02 -0.88758919951E+01  0.32870258372E+02  0.50528842643E+02  0.29999947698E+02 0.  0.
        -12    1    1    2    0    0  0.22224574975E+02  0.88758919951E+01 -0.32870258372E+02  0.40659157357E+02  0.00000000000E+00 0.  1.
         11    1    3    3    0    0 -0.22706077838E+02 -0.78986114631E+01  0.20032343094E+02  0.31292951345E+02  0.51100000000E-03 0. -1.
        -11    1    3    3    0    0 -0.35513476609E+01 -0.37303426419E+01 -0.36058346477E+00  0.51630947242E+01  0.51100000000E-03 0.  1.
         12    1    3    3    0    0  0.40328505235E+01  0.27530621100E+01  0.13198498743E+02  0.14072796574E+02  0.00000000000E+00 0. -1.
</event>
<event>
 7    1  0.5839643E-012  0.5052886E+02  0.7816164E-02  0.1300439E+00
        -11   -1    0    0    0    0  0.00000000000E+00  0.00000000000E+00  0.45593999997E+02  0.45594000000E+02  0.51100000000E-03 0. -1.
         11   -1    0    0    0    0 -0.00000000000E+00 -0.00000000000E+00 -0.45593999997E+02  0.45594000000E+02  0.51100000000E-03 0.  1.
    9900012    2    1    2    0    0 -0.22941520395E+02 -0.41113874873E+01  0.33315898210E+02  0.50528856642E+02  0.29999990249E+02 0.  0.
        -12    1    1    2    0    0  0.22941520395E+02  0.41113874873E+01 -0.33315898210E+02  0.40659143358E+02  0.00000000000E+00 0.  1.
         11    1    3    3    0    0 -0.15873299878E+02 -0.59970012244E+01  0.15516151338E+02  0.22992969041E+02  0.51100000000E-03 0. -1.
        -11    1    3    3    0    0  0.46324958798E-01 -0.82938766653E+01  0.49185129097E+01  0.96427333077E+01  0.51100000000E-03 0.  1.
        -12    1    3    3    0    0 -0.71145454754E+01  0.10179490402E+02  0.12881233962E+02  0.17893154293E+02  0.00000000000E+00 0.  1.
</event>
<event>
 7    1  0.5005325E-012  0.5052886E+02  0.7816164E-02  0.1300439E+00
        -11   -1    0    0    0    0  0.00000000000E+00  0.00000000000E+00  0.45593999997E+02  0.45594000000E+02  0.51100000000E-03 0. -1.
         11   -1    0    0    0    0 -0.00000000000E+00 -0.00000000000E+00 -0.45593999997E+02  0.45594000000E+02  0.51100000000E-03 0.  1.
    9900012    2    1    2    0    0  0.28385688231E+01 -0.21399272703E+02 -0.34455463758E+02  0.50528864152E+02  0.30000013076E+02 0.  0.
         12    1    1    2    0    0 -0.28385688231E+01  0.21399272703E+02  0.34455463758E+02  0.40659135848E+02  0.00000000000E+00 0. -1.
         11    1    3    3    0    0 -0.57909370774E+01  0.27840329756E+00 -0.40023095152E+01  0.70449231612E+01  0.51100000000E-03 0. -1.
        -11    1    3    3    0    0 -0.21798104040E+01 -0.14020808136E+02 -0.54715713046E+01  0.15207653566E+02  0.51100000000E-03 0.  1.
         12    1    3    3    0    0  0.10809316304E+02 -0.76568678644E+01 -0.24981582938E+02  0.28276287425E+02  0.00000000000E+00 0. -1.
</event>
<event>
 7    1  0.5005325E-012  0.5052886E+02  0.7816164E-02  0.1300439E+00
        -11   -1    0    0    0    0  0.00000000000E+00  0.00000000000E+00  0.45593999997E+02  0.45594000000E+02  0.51100000000E-03 0. -1.
         11   -1    0    0    0    0 -0.00000000000E+00 -0.00000000000E+00 -0.45593999997E+02  0.45594000000E+02  0.51100000000E-03 0.  1.
    9900012    2    1    2    0    0 -0.13335535642E+02 -0.33732944363E+02 -0.18368919925E+02  0.50528864920E+02  0.30000015410E+02 0.  0.
         12    1    1    2    0    0  0.13335535642E+02  0.33732944363E+02  0.18368919925E+02  0.40659135080E+02  0.00000000000E+00 0. -1.
         11    1    3    3    0    0  0.47379507166E+01 -0.90121366461E+01 -0.90440265723E+01  0.13618414035E+02  0.51100000000E-03 0. -1.
        -11    1    3    3    0    0  0.33293985704E+01 -0.32082603654E+01 -0.39732598959E+01  0.60962795108E+01  0.51100000000E-03 0.  1.
        -12    1    3    3    0    0 -0.21402884929E+02 -0.21512547351E+02 -0.53516334573E+01  0.30814171374E+02  0.00000000000E+00 0.  1.
</event>
<event>
 7    1  0.5005325E-012  0.5052887E+02  0.7816164E-02  0.1300439E+00
        -11   -1    0    0    0    0  0.00000000000E+00  0.00000000000E+00  0.45593999997E+02  0.45594000000E+02  0.51100000000E-03 0. -1.
         11   -1    0    0    0    0 -0.00000000000E+00 -0.00000000000E+00 -0.45593999997E+02  0.45594000000E+02  0.51100000000E-03 0.  1.
    9900012    2    1    2    0    0 -0.47614043453E+01  0.87144977789E+01 -0.39427801020E+02  0.50528868969E+02  0.30000027719E+02 0.  0.
         12    1    1    2    0    0  0.47614043453E+01 -0.87144977789E+01  0.39427801020E+02  0.40659131031E+02  0.00000000000E+00 0. -1.
         11    1    3    3    0    0 -0.10500672018E+02  0.29271984998E+01 -0.72809638873E+01  0.13108967895E+02  0.51100000000E-03 0. -1.
        -11    1    3    3    0    0  0.30791985914E+01 -0.12737005926E+01 -0.29087644386E+02  0.29277889838E+02  0.51100000000E-03 0.  1.
         12    1    3    3    0    0  0.26600690812E+01  0.70609998717E+01 -0.30591927467E+01  0.81420112360E+01  0.00000000000E+00 0. -1.
</event>
<event>
 7    1  0.5005325E-012  0.5052886E+02  0.7816164E-02  0.1300439E+00
        -11   -1    0    0    0    0  0.00000000000E+00  0.00000000000E+00  0.45593999997E+02  0.45594000000E+02  0.51100000000E-03 0. -1.
         11   -1    0    0    0    0 -0.00000000000E+00 -0.00000000000E+00 -0.45593999997E+02  0.45594000000E+02  0.51100000000E-03 0.  1.
    9900012    2    1    2    0    0  0.14404971828E+02  0.18964310030E+01  0.37974545781E+02  0.50528858455E+02  0.29999995759E+02 0.  0.
        -12    1    1    2    0    0 -0.14404971828E+02 -0.18964310030E+01 -0.37974545781E+02  0.40659141545E+02  0.00000000000E+00 0.  1.
         11    1    3    3    0    0  0.11872835453E+02 -0.13028308162E+01  0.38503348463E+02  0.40313390244E+02  0.51100000000E-03 0. -1.
        -11    1    3    3    0    0 -0.30514462301E+01 -0.13413310316E+00  0.15007902564E+01  0.34031878348E+01  0.51100000000E-03 0.  1.
        -12    1    3    3    0    0  0.55835826056E+01  0.33333949224E+01 -0.20295929388E+01  0.68122803759E+01  0.00000000000E+00 0.  1.
</event>
<event>
 7    1  0.5005325E-012  0.5052886E+02  0.7816164E-02  0.1300439E+00
        -11   -1    0    0    0    0  0.00000000000E+00  0.00000000000E+00  0.45593999997E+02  0.45594000000E+02  0.51100000000E-03 0. -1.
         11   -1    0    0    0    0 -0.00000000000E+00 -0.00000000000E+00 -0.45593999997E+02  0.45594000000E+02  0.51100000000E-03 0.  1.
    9900012    2    1    2    0    0  0.12744671974E+02 -0.18863962210E+02 -0.33688123659E+02  0.50528863147E+02  0.30000010021E+02 0.  0.
         12    1    1    2    0    0 -0.12744671974E+02  0.18863962210E+02  0.33688123659E+02  0.40659136853E+02  0.00000000000E+00 0. -1.
         11    1    3    3    0    0  0.10142875375E+02 -0.14399061887E+01 -0.47104123194E+01  0.11275603540E+02  0.51100000000E-03 0. -1.
        -11    1    3    3    0    0  0.56911763241E+01 -0.18799244250E+02 -0.29875967545E+02  0.35754363500E+02  0.51100000000E-03 0.  1.
         12    1    3    3    0    0 -0.30893797252E+01  0.13751882295E+01  0.89825620491E+00  0.34988961063E+01  0.00000000000E+00 0. -1.
</event>
<event>
 7    1  0.5005325E-012  0.5052885E+02  0.7816164E-02  0.1300439E+00
        -11   -1    0    0    0    0  0.00000000000E+00  0.00000000000E+00  0.45593999997E+02  0.45594000000E+02  0.51100000000E-03 0. -1.
         11   -1    0    0    0    0 -0.00000000000E+00 -0.00000000000E+00 -0.45593999997E+02  0.45594000000E+02  0.51100000000E-03 0.  1.
    9900012    2    1    2    0    0  0.33942656071E+02  0.54769235892E+00  0.22377718694E+02  0.50528853895E+02  0.29999981899E+02 0.  0.
        -12    1    1    2    0    0 -0.33942656071E+02 -0.54769235892E+00 -0.22377718694E+02  0.40659146105E+02  0.00000000000E+00 0.  1.
         11    1    3    3    0    0  0.15674510356E+02 -0.26561325679E+01  0.29251699624E+01  0.16164836365E+02  0.51100000000E-03 0. -1.
        -11    1    3    3    0    0  0.14025478536E+02  0.84287839335E+01  0.30646746348E+01  0.16647843033E+02  0.51100000000E-03 0.  1.
         12    1    3    3    0    0  0.42426671779E+01 -0.52249590068E+01  0.16387874097E+02  0.17716174497E+02  0.00000000000E+00 0. -1.
</event>
<event>
 7    1  0.5005325E-012  0.5052886E+02  0.7816164E-02  0.1300439E+00
        -11   -1    0    0    0    0  0.00000000000E+00  0.00000000000E+00  0.45593999997E+02  0.45594000000E+02  0.51100000000E-03 0. -1.
         11   -1    0    0    0    0 -0.00000000000E+00 -0.00000000000E+00 -0.45593999997E+02  0.45594000000E+02  0.51100000000E-03 0.  1.
    9900012    2    1    2    0    0  0.12433805947E+02  0.35531164479E+02  0.15365639092E+02  0.50528855342E+02  0.29999986299E+02 0.  0.
        -12    1    1    2    0    0 -0.12433805947E+02 -0.35531164479E+02 -0.15365639092E+02  0.40659144658E+02  0.00000000000E+00 0.  1.
         11    1    3    3    0    0  0.11491914330E+02  0.12024301394E+02 -0.12029816200E+01  0.16676183138E+02  0.51100000000E-03 0. -1.
        -11    1    3    3    0    0 -0.29278340815E+01  0.54282076340E+01 -0.30626528641E+01  0.68860361133E+01  0.51100000000E-03 0.  1.
         12    1    3    3    0    0  0.38697256984E+01  0.18078655451E+02  0.19631273576E+02  0.26966636092E+02  0.00000000000E+00 0. -1.
</event>
<event>
 7    1  0.5005325E-012  0.5052885E+02  0.7816164E-02  0.1300439E+00
        -11   -1    0    0    0    0  0.00000000000E+00  0.00000000000E+00  0.45593999997E+02  0.45594000000E+02  0.51100000000E-03 0. -1.
         11   -1    0    0    0    0 -0.00000000000E+00 -0.00000000000E+00 -0.45593999997E+02  0.45594000000E+02  0.51100000000E-03 0.  1.
    9900012    2    1    2    0    0  0.78583029040E+01  0.17512827780E+02  0.35842908001E+02  0.50528854469E+02  0.29999983643E+02 0.  0.
        -12    1    1    2    0    0 -0.78583029040E+01 -0.17512827780E+02 -0.35842908001E+02  0.40659145531E+02  0.00000000000E+00 0.  1.
         11    1    3    3    0    0 -0.19192552390E+01  0.77574273923E+01  0.14781801360E+02  0.16803656510E+02  0.51100000000E-03 0. -1.
        -11    1    3    3    0    0  0.11657078441E+02  0.25216249174E+01  0.23083392108E+02  0.25982476046E+02  0.51100000000E-03 0.  1.
        -12    1    3    3    0    0 -0.18795202980E+01  0.72337754704E+01 -0.20222854670E+01  0.77427219127E+01  0.00000000000E+00 0.  1.
</event>
<event>
 7    1  0.5005325E-012  0.5052885E+02  0.7816164E-02  0.1300439E+00
        -11   -1    0    0    0    0  0.00000000000E+00  0.00000000000E+00  0.45593999997E+02  0.45594000000E+02  0.51100000000E-03 0.  1.
         11   -1    0    0    0    0 -0.00000000000E+00 -0.00000000000E+00 -0.45593999997E+02  0.45594000000E+02  0.51100000000E-03 0. -1.
    9900012    2    1    2    0    0  0.18783660126E+02  0.31801360949E+02  0.17000418913E+02  0.50528847412E+02  0.29999962193E+02 0.  0.
        -12    1    1    2    0    0 -0.18783660126E+02 -0.31801360949E+02 -0.17000418913E+02  0.40659152588E+02  0.00000000000E+00 0.  1.
         11    1    3    3    0    0 -0.54595261753E+01  0.12278837881E+01  0.22833112048E+01  0.60438096408E+01  0.51100000000E-03 0. -1.
        -11    1    3    3    0    0  0.78903548426E+01  0.77104686688E+00  0.18795837267E+01  0.81477020110E+01  0.51100000000E-03 0.  1.
         12    1    3    3    0    0  0.16352831458E+02  0.29802430294E+02  0.12837523982E+02  0.36337335760E+02  0.00000000000E+00 0. -1.
</event>
<event>
 7    1  0.5005325E-012  0.5052886E+02  0.7816164E-02  0.1300439E+00
        -11   -1    0    0    0    0  0.00000000000E+00  0.00000000000E+00  0.45593999997E+02  0.45594000000E+02  0.51100000000E-03 0.  1.
         11   -1    0    0    0    0 -0.00000000000E+00 -0.00000000000E+00 -0.45593999997E+02  0.45594000000E+02  0.51100000000E-03 0. -1.
    9900012    2    1    2    0    0  0.39249734844E+02 -0.81158876476E+01 -0.68378438935E+01  0.50528862937E+02  0.30000009383E+02 0.  0.
         12    1    1    2    0    0 -0.39249734844E+02  0.81158876476E+01  0.68378438935E+01  0.40659137063E+02  0.00000000000E+00 0. -1.
         11    1    3    3    0    0 -0.16783374619E+01 -0.39724675126E+01 -0.33539461283E+01  0.54631739555E+01  0.51100000000E-03 0. -1.
        -11    1    3    3    0    0  0.31124150831E+02 -0.64000321215E+01 -0.97207400763E+01  0.33228992823E+02  0.51100000000E-03 0.  1.
         12    1    3    3    0    0  0.98039214744E+01  0.22566119865E+01  0.62368423111E+01  0.11836696158E+02  0.00000000000E+00 0. -1.
</event>
<event>
 7    1  0.5005325E-012  0.5052889E+02  0.7816164E-02  0.1300439E+00
        -11   -1    0    0    0    0  0.00000000000E+00  0.00000000000E+00  0.45593999997E+02  0.45594000000E+02  0.51100000000E-03 0. -1.
         11   -1    0    0    0    0 -0.00000000000E+00 -0.00000000000E+00 -0.45593999997E+02  0.45594000000E+02  0.51100000000E-03 0.  1.
    9900012    2    1    2    0    0  0.22249158299E+02 -0.20533723023E+02  0.27138621799E+02  0.50528885163E+02  0.30000076942E+02 0.  0.
        -12    1    1    2    0    0 -0.22249158299E+02  0.20533723023E+02 -0.27138621799E+02  0.40659114837E+02  0.00000000000E+00 0.  1.
         11    1    3    3    0    0  0.38164714031E-01 -0.11577574592E+02 -0.16170014486E+01  0.11690012143E+02  0.51100000000E-03 0. -1.
        -11    1    3    3    0    0  0.64179569460E+01  0.20868428131E+01  0.88971054617E+01  0.11167075273E+02  0.51100000000E-03 0.  1.
        -12    1    3    3    0    0  0.15793036639E+02 -0.11042991244E+02  0.19858517786E+02  0.27671797747E+02  0.00000000000E+00 0.  1.
</event>
<event>
 7    1  0.5005325E-012  0.5052888E+02  0.7816164E-02  0.1300439E+00
        -11   -1    0    0    0    0  0.00000000000E+00  0.00000000000E+00  0.45593999997E+02  0.45594000000E+02  0.51100000000E-03 0. -1.
         11   -1    0    0    0    0 -0.00000000000E+00 -0.00000000000E+00 -0.45593999997E+02  0.45594000000E+02  0.51100000000E-03 0.  1.
    9900012    2    1    2    0    0 -0.14645888721E+02 -0.37929380402E+02 -0.15626348662E+00  0.50528875903E+02  0.30000048794E+02 0.  0.
        -12    1    1    2    0    0  0.14645888721E+02  0.37929380402E+02  0.15626348662E+00  0.40659124097E+02  0.00000000000E+00 0.  1.
         11    1    3    3    0    0 -0.27358717582E+01 -0.96795183258E+01 -0.69126640594E+01  0.12205039695E+02  0.51100000000E-03 0. -1.
        -11    1    3    3    0    0 -0.14822495175E+02 -0.11672768565E+02 -0.26349658794E+01  0.19050011407E+02  0.51100000000E-03 0.  1.
         12    1    3    3    0    0  0.29124782120E+01 -0.16577093511E+02  0.93913664522E+01  0.19273824800E+02  0.00000000000E+00 0. -1.
</event>
<event>
 7    1  0.5005325E-012  0.5052886E+02  0.7816164E-02  0.1300439E+00
        -11   -1    0    0    0    0  0.00000000000E+00  0.00000000000E+00  0.45593999997E+02  0.45594000000E+02  0.51100000000E-03 0. -1.
         11   -1    0    0    0    0 -0.00000000000E+00 -0.00000000000E+00 -0.45593999997E+02  0.45594000000E+02  0.51100000000E-03 0.  1.
    9900012    2    1    2    0    0  0.21858627009E+02 -0.72535940936E+01 -0.33507484707E+02  0.50528859166E+02  0.29999997920E+02 0.  0.
         12    1    1    2    0    0 -0.21858627009E+02  0.72535940936E+01  0.33507484707E+02  0.40659140834E+02  0.00000000000E+00 0. -1.
         11    1    3    3    0    0 -0.20186271602E+01 -0.10573297400E+02 -0.11015544660E+02  0.15401678413E+02  0.51100000000E-03 0.  1.
        -11    1    3    3    0    0  0.62718639126E+00  0.27389281450E+01 -0.59714196399E+01  0.65994653518E+01  0.51100000000E-03 0. -1.
         12    1    3    3    0    0  0.23250067778E+02  0.58077516146E+00 -0.16520520407E+02  0.28527715401E+02  0.00000000000E+00 0. -1.
</event>
<event>
 7    1  0.5005325E-012  0.5052886E+02  0.7816164E-02  0.1300439E+00
        -11   -1    0    0    0    0  0.00000000000E+00  0.00000000000E+00  0.45593999997E+02  0.45594000000E+02  0.51100000000E-03 0. -1.
         11   -1    0    0    0    0 -0.00000000000E+00 -0.00000000000E+00 -0.45593999997E+02  0.45594000000E+02  0.51100000000E-03 0.  1.
    9900012    2    1    2    0    0 -0.20866231570E+02  0.22344415396E+02  0.26804724856E+02  0.50528858421E+02  0.29999995655E+02 0.  0.
        -12    1    1    2    0    0  0.20866231570E+02 -0.22344415396E+02 -0.26804724856E+02  0.40659141579E+02  0.00000000000E+00 0.  1.
         11    1    3    3    0    0 -0.52151959819E+00 -0.41677053493E+00  0.10866766929E+02  0.10887254205E+02  0.51100000000E-03 0. -1.
        -11    1    3    3    0    0 -0.56768147617E+01 -0.22070974954E+01 -0.88028949474E+00  0.61540567960E+01  0.51100000000E-03 0.  1.
         12    1    3    3    0    0 -0.14667897211E+02  0.24968283426E+02  0.16818247422E+02  0.33487547420E+02  0.00000000000E+00 0. -1.
</event>
<event>
 7    1  0.5005325E-012  0.5052886E+02  0.7816164E-02  0.1300439E+00
        -11   -1    0    0    0    0  0.00000000000E+00  0.00000000000E+00  0.45593999997E+02  0.45594000000E+02  0.51100000000E-03 0. -1.
         11   -1    0    0    0    0 -0.00000000000E+00 -0.00000000000E+00 -0.45593999997E+02  0.45594000000E+02  0.51100000000E-03 0.  1.
    9900012    2    1    2    0    0  0.19910654266E+02 -0.25332188901E+02 -0.24799430774E+02  0.50528859398E+02  0.29999998625E+02 0.  0.
         12    1    1    2    0    0 -0.19910654266E+02  0.25332188901E+02  0.24799430774E+02  0.40659140602E+02  0.00000000000E+00 0. -1.
         11    1    3    3    0    0  0.50731608414E+01  0.59260128590E+00 -0.69592548858E+00  0.51548472096E+01  0.51100000000E-03 0. -1.
        -11    1    3    3    0    0  0.15365651419E+02 -0.36516067183E+01 -0.69453383092E+01  0.17253266347E+02  0.51100000000E-03 0.  1.
        -12    1    3    3    0    0 -0.52815799436E+00 -0.22273183469E+02 -0.17158166976E+02  0.28120745841E+02  0.00000000000E+00 0.  1.
</event>
<event>
 7    1  0.5005325E-012  0.5052879E+02  0.7816164E-02  0.1300439E+00
        -11   -1    0    0    0    0  0.00000000000E+00  0.00000000000E+00  0.45593999997E+02  0.45594000000E+02  0.51100000000E-03 0. -1.
         11   -1    0    0    0    0 -0.00000000000E+00 -0.00000000000E+00 -0.45593999997E+02  0.45594000000E+02  0.51100000000E-03 0.  1.
    9900012    2    1    2    0    0  0.24678921053E+01  0.40508046711E+02  0.24858175760E+01  0.50528786668E+02  0.29999777554E+02 0.  0.
        -12    1    1    2    0    0 -0.24678921053E+01 -0.40508046711E+02 -0.24858175760E+01  0.40659213332E+02  0.00000000000E+00 0.  1.
         11    1    3    3    0    0 -0.45044118077E+01  0.27991897904E+00  0.50821480178E+01  0.67967866749E+01  0.51100000000E-03 0. -1.
        -11    1    3    3    0    0  0.38145532112E+01  0.91275683901E+00 -0.17133715286E+01  0.42801382576E+01  0.51100000000E-03 0.  1.
         12    1    3    3    0    0  0.31577507017E+01  0.39315370893E+02 -0.88295891321E+00  0.39451861735E+02  0.00000000000E+00 0. -1.
</event>
<event>
 7    1  0.5005325E-012  0.5052886E+02  0.7816164E-02  0.1300439E+00
        -11   -1    0    0    0    0  0.00000000000E+00  0.00000000000E+00  0.45593999997E+02  0.45594000000E+02  0.51100000000E-03 0. -1.
         11   -1    0    0    0    0 -0.00000000000E+00 -0.00000000000E+00 -0.45593999997E+02  0.45594000000E+02  0.51100000000E-03 0.  1.
    9900012    2    1    2    0    0  0.58032460195E+01  0.14059222938E+02 -0.37707112178E+02  0.50528859296E+02  0.29999998315E+02 0.  0.
         12    1    1    2    0    0 -0.58032460195E+01 -0.14059222938E+02  0.37707112178E+02  0.40659140704E+02  0.00000000000E+00 0. -1.
         11    1    3    3    0    0 -0.20271012853E+00 -0.36166308886E+01 -0.12707968773E+01  0.38387544002E+01  0.51100000000E-03 0. -1.
        -11    1    3    3    0    0  0.12326722749E+02  0.34793450608E+01 -0.22120350536E+02  0.25560982843E+02  0.51100000000E-03 0.  1.
        -12    1    3    3    0    0 -0.63207666010E+01  0.14196508766E+02 -0.14315964765E+02  0.21129122053E+02  0.00000000000E+00 0.  1.
</event>
<event>
 7    1  0.5005325E-012  0.5052886E+02  0.7816164E-02  0.1300439E+00
        -11   -1    0    0    0    0  0.00000000000E+00  0.00000000000E+00  0.45593999997E+02  0.45594000000E+02  0.51100000000E-03 0. -1.
         11   -1    0    0    0    0 -0.00000000000E+00 -0.00000000000E+00 -0.45593999997E+02  0.45594000000E+02  0.51100000000E-03 0.  1.
    9900012    2    1    2    0    0  0.14904855304E+02 -0.77348167193E+01 -0.37029498371E+02  0.50528857720E+02  0.29999993527E+02 0.  0.
         12    1    1    2    0    0 -0.14904855304E+02  0.77348167193E+01  0.37029498371E+02  0.40659142280E+02  0.00000000000E+00 0. -1.
         11    1    3    3    0    0 -0.59878386595E+01 -0.92583913296E+00 -0.25320927763E+01  0.65668016569E+01  0.51100000000E-03 0. -1.
        -11    1    3    3    0    0  0.28309268295E+01 -0.41052702323E+01 -0.20091759875E+02  0.20701357577E+02  0.51100000000E-03 0.  1.
         12    1    3    3    0    0  0.18061767134E+02 -0.27037073540E+01 -0.14405645719E+02  0.23260698486E+02  0.00000000000E+00 0. -1.
</event>
<event>
 7    1  0.5005325E-012  0.5052886E+02  0.7816164E-02  0.1300439E+00
        -11   -1    0    0    0    0  0.00000000000E+00  0.00000000000E+00  0.45593999997E+02  0.45594000000E+02  0.51100000000E-03 0. -1.
         11   -1    0    0    0    0 -0.00000000000E+00 -0.00000000000E+00 -0.45593999997E+02  0.45594000000E+02  0.51100000000E-03 0.  1.
    9900012    2    1    2    0    0 -0.33491781090E+01 -0.32019330040E+02  0.24833673289E+02  0.50528858110E+02  0.29999994711E+02 0.  0.
        -12    1    1    2    0    0  0.33491781090E+01  0.32019330040E+02 -0.24833673289E+02  0.40659141890E+02  0.00000000000E+00 0.  1.
         11    1    3    3    0    0 -0.94293320942E-01 -0.20120827635E+02  0.11087652384E+02  0.22973737868E+02  0.51100000000E-03 0. -1.
        -11    1    3    3    0    0  0.38151516149E+01 -0.54352012025E+01  0.16334253768E+02  0.17632488207E+02  0.51100000000E-03 0.  1.
         12    1    3    3    0    0 -0.70700364030E+01 -0.64633012016E+01 -0.25882328622E+01  0.99226320355E+01  0.00000000000E+00 0. -1.
</event>
<event>
 7    1  0.5005325E-012  0.5052885E+02  0.7816164E-02  0.1300439E+00
        -11   -1    0    0    0    0  0.00000000000E+00  0.00000000000E+00  0.45593999997E+02  0.45594000000E+02  0.51100000000E-03 0. -1.
         11   -1    0    0    0    0 -0.00000000000E+00 -0.00000000000E+00 -0.45593999997E+02  0.45594000000E+02  0.51100000000E-03 0.  1.
    9900012    2    1    2    0    0  0.14796181060E+01  0.17616320122E+02  0.36614783467E+02  0.50528851304E+02  0.29999974023E+02 0.  0.
        -12    1    1    2    0    0 -0.14796181060E+01 -0.17616320122E+02 -0.36614783467E+02  0.40659148696E+02  0.00000000000E+00 0.  1.
         11    1    3    3    0    0 -0.38815099617E+01 -0.48586821319E+01  0.10239768914E+02  0.11980224510E+02  0.51100000000E-03 0.  1.
        -11    1    3    3    0    0  0.56320232988E+01  0.25085753012E+01  0.13358059734E+02  0.14712253281E+02  0.51100000000E-03 0. -1.
        -12    1    3    3    0    0 -0.27089523107E+00  0.19966426952E+02  0.13016954819E+02  0.23836373512E+02  0.00000000000E+00 0.  1.
</event>
<event>
 7    1  0.5005325E-012  0.5052887E+02  0.7816164E-02  0.1300439E+00
        -11   -1    0    0    0    0  0.00000000000E+00  0.00000000000E+00  0.45593999997E+02  0.45594000000E+02  0.51100000000E-03 0. -1.
         11   -1    0    0    0    0 -0.00000000000E+00 -0.00000000000E+00 -0.45593999997E+02  0.45594000000E+02  0.51100000000E-03 0.  1.
    9900012    2    1    2    0    0  0.17614553467E+02  0.22609483376E+02 -0.28839269648E+02  0.50528871798E+02  0.30000036316E+02 0.  0.
         12    1    1    2    0    0 -0.17614553467E+02 -0.22609483376E+02  0.28839269648E+02  0.40659128202E+02  0.00000000000E+00 0. -1.
         11    1    3    3    0    0 -0.19844751033E+00  0.35331265496E+01 -0.10650443095E+01  0.36954951322E+01  0.51100000000E-03 0. -1.
        -11    1    3    3    0    0  0.21821678070E+01  0.13904727946E+02  0.53449004992E+00  0.14085062849E+02  0.51100000000E-03 0.  1.
         12    1    3    3    0    0  0.15630833170E+02  0.51716288803E+01 -0.28308715388E+02  0.32748313816E+02  0.00000000000E+00 0. -1.
</event>
<event>
 7    1  0.6003556E-012  0.5052886E+02  0.7816164E-02  0.1300439E+00
        -11   -1    0    0    0    0  0.00000000000E+00  0.00000000000E+00  0.45593999997E+02  0.45594000000E+02  0.51100000000E-03 0. -1.
         11   -1    0    0    0    0 -0.00000000000E+00 -0.00000000000E+00 -0.45593999997E+02  0.45594000000E+02  0.51100000000E-03 0.  1.
    9900012    2    1    2    0    0 -0.22112311812E+02 -0.29462827154E+01  0.33993095884E+02  0.50528862241E+02  0.30000007269E+02 0.  0.
        -12    1    1    2    0    0  0.22112311812E+02  0.29462827154E+01 -0.33993095884E+02  0.40659137759E+02  0.00000000000E+00 0.  1.
         11    1    3    3    0    0 -0.74553478922E+01 -0.44466223886E+01  0.18633294523E+02  0.20556126286E+02  0.51100000000E-03 0. -1.
        -11    1    3    3    0    0 -0.18882399838E+02  0.44214067553E+01  0.15511835119E+02  0.24833664457E+02  0.51100000000E-03 0.  1.
        -12    1    3    3    0    0  0.42254359179E+01 -0.29210670822E+01 -0.15203375869E+00  0.51390714977E+01  0.00000000000E+00 0.  1.
</event>
<event>
 7    1  0.5005325E-012  0.5052886E+02  0.7816164E-02  0.1300439E+00
        -11   -1    0    0    0    0  0.00000000000E+00  0.00000000000E+00  0.45593999997E+02  0.45594000000E+02  0.51100000000E-03 0.  1.
         11   -1    0    0    0    0 -0.00000000000E+00 -0.00000000000E+00 -0.45593999997E+02  0.45594000000E+02  0.51100000000E-03 0. -1.
    9900012    2    1    2    0    0 -0.11164289925E+02  0.35789306086E+02  0.15736900172E+02  0.50528858018E+02  0.29999994432E+02 0.  0.
        -12    1    1    2    0    0  0.11164289925E+02 -0.35789306086E+02 -0.15736900172E+02  0.40659141982E+02  0.00000000000E+00 0.  1.
         11    1    3    3    0    0  0.11384138905E+01  0.82081676262E+01  0.16352142405E+01  0.84465334806E+01  0.51100000000E-03 0. -1.
        -11    1    3    3    0    0  0.19749616599E+01 -0.34894269069E+01 -0.17717255948E+01  0.43835585477E+01  0.51100000000E-03 0.  1.
        -12    1    3    3    0    0 -0.14277665476E+02  0.31070565367E+02  0.15873411526E+02  0.37698765990E+02  0.00000000000E+00 0.  1.
</event>
<event>
 7    1  0.5005325E-012  0.5052886E+02  0.7816164E-02  0.1300439E+00
        -11   -1    0    0    0    0  0.00000000000E+00  0.00000000000E+00  0.45593999997E+02  0.45594000000E+02  0.51100000000E-03 0. -1.
         11   -1    0    0    0    0 -0.00000000000E+00 -0.00000000000E+00 -0.45593999997E+02  0.45594000000E+02  0.51100000000E-03 0.  1.
    9900012    2    1    2    0    0 -0.66489961628E+01  0.26473639871E+02  0.30134750510E+02  0.50528856547E+02  0.29999989961E+02 0.  0.
        -12    1    1    2    0    0  0.66489961628E+01 -0.26473639871E+02 -0.30134750510E+02  0.40659143453E+02  0.00000000000E+00 0.  1.
         11    1    3    3    0    0  0.42799451925E+01  0.85303782488E+01 -0.77716932030E+00  0.95754517561E+01  0.51100000000E-03 0. -1.
        -11    1    3    3    0    0 -0.60454417023E+01  0.83218234676E+01  0.25340085802E+01  0.10593456044E+02  0.51100000000E-03 0.  1.
         12    1    3    3    0    0 -0.48834996530E+01  0.96214381546E+01  0.28377911250E+02  0.30359948748E+02  0.00000000000E+00 0. -1.
</event>
<event>
 7    1  0.5005325E-012  0.5052886E+02  0.7816164E-02  0.1300439E+00
        -11   -1    0    0    0    0  0.00000000000E+00  0.00000000000E+00  0.45593999997E+02  0.45594000000E+02  0.51100000000E-03 0. -1.
         11   -1    0    0    0    0 -0.00000000000E+00 -0.00000000000E+00 -0.45593999997E+02  0.45594000000E+02  0.51100000000E-03 0.  1.
    9900012    2    1    2    0    0  0.11454666088E+02  0.11347357482E+02 -0.37325513064E+02  0.50528858070E+02  0.29999994588E+02 0.  0.
         12    1    1    2    0    0 -0.11454666088E+02 -0.11347357482E+02  0.37325513064E+02  0.40659141930E+02  0.00000000000E+00 0. -1.
         11    1    3    3    0    0 -0.22586580513E+01  0.68930706172E+01 -0.22222303516E+02  0.23376200130E+02  0.51100000000E-03 0. -1.
        -11    1    3    3    0    0  0.18917244916E+01 -0.57296112450E+01 -0.79694337827E+01  0.99959462608E+01  0.51100000000E-03 0.  1.
        -12    1    3    3    0    0  0.11821599648E+02  0.10183898110E+02 -0.71337757659E+01  0.17156711679E+02  0.00000000000E+00 0.  1.
</event>
<event>
 7    1  0.5005325E-012  0.5052888E+02  0.7816164E-02  0.1300439E+00
        -11   -1    0    0    0    0  0.00000000000E+00  0.00000000000E+00  0.45593999997E+02  0.45594000000E+02  0.51100000000E-03 0. -1.
         11   -1    0    0    0    0 -0.00000000000E+00 -0.00000000000E+00 -0.45593999997E+02  0.45594000000E+02  0.51100000000E-03 0.  1.
    9900012    2    1    2    0    0 -0.71741735032E+01 -0.97135243498E+01 -0.38824511026E+02  0.50528880762E+02  0.30000063565E+02 0.  0.
         12    1    1    2    0    0  0.71741735032E+01  0.97135243498E+01  0.38824511026E+02  0.40659119238E+02  0.00000000000E+00 0. -1.
         11    1    3    3    0    0  0.21552551788E+01 -0.12204553050E+02 -0.25770124226E+02  0.28595376251E+02  0.51100000000E-03 0. -1.
        -11    1    3    3    0    0 -0.72619813692E+01 -0.10286096422E+01 -0.15519227549E+02  0.17165105160E+02  0.51100000000E-03 0.  1.
        -12    1    3    3    0    0 -0.20674473129E+01  0.35196383424E+01  0.24648407488E+01  0.47683993509E+01  0.00000000000E+00 0.  1.
</event>
<event>
 7    1  0.5005325E-012  0.5052885E+02  0.7816164E-02  0.1300439E+00
        -11   -1    0    0    0    0  0.00000000000E+00  0.00000000000E+00  0.45593999997E+02  0.45594000000E+02  0.51100000000E-03 0. -1.
         11   -1    0    0    0    0 -0.00000000000E+00 -0.00000000000E+00 -0.45593999997E+02  0.45594000000E+02  0.51100000000E-03 0.  1.
    9900012    2    1    2    0    0  0.19204769820E+02 -0.40443460322E+01 -0.35608799621E+02  0.50528849381E+02  0.29999968177E+02 0.  0.
         12    1    1    2    0    0 -0.19204769820E+02  0.40443460322E+01  0.35608799621E+02  0.40659150619E+02  0.00000000000E+00 0. -1.
         11    1    3    3    0    0  0.44734255089E+01 -0.73248887885E+01 -0.15823918107E+01  0.87275137153E+01  0.51100000000E-03 0. -1.
        -11    1    3    3    0    0  0.84258657198E+01  0.29731997551E+01 -0.19967140005E+01  0.91554353786E+01  0.51100000000E-03 0.  1.
         12    1    3    3    0    0  0.63054785910E+01  0.30734300114E+00 -0.32029693810E+02  0.32645900287E+02  0.00000000000E+00 0. -1.
</event>
<event>
 7    1  0.5005325E-012  0.5052885E+02  0.7816164E-02  0.1300439E+00
        -11   -1    0    0    0    0  0.00000000000E+00  0.00000000000E+00  0.45593999997E+02  0.45594000000E+02  0.51100000000E-03 0. -1.
         11   -1    0    0    0    0 -0.00000000000E+00 -0.00000000000E+00 -0.45593999997E+02  0.45594000000E+02  0.51100000000E-03 0.  1.
    9900012    2    1    2    0    0 -0.91829745971E+01 -0.23383062409E+02 -0.31969858285E+02  0.50528850121E+02  0.29999970429E+02 0.  0.
         12    1    1    2    0    0  0.91829745971E+01  0.23383062409E+02  0.31969858285E+02  0.40659149879E+02  0.00000000000E+00 0. -1.
         11    1    3    3    0    0  0.32072729463E+01 -0.21965155565E+01 -0.25818289639E+01  0.46665963402E+01  0.51100000000E-03 0. -1.
        -11    1    3    3    0    0 -0.84746764513E+01 -0.18406628156E+02 -0.33755744571E+02  0.39370984149E+02  0.51100000000E-03 0.  1.
         12    1    3    3    0    0 -0.39155710921E+01 -0.27799186960E+01  0.43677152499E+01  0.64912696322E+01  0.00000000000E+00 0. -1.
</event>
<event>
 7    1  0.5005325E-012  0.5052886E+02  0.7816164E-02  0.1300439E+00
        -11   -1    0    0    0    0  0.00000000000E+00  0.00000000000E+00  0.45593999997E+02  0.45594000000E+02  0.51100000000E-03 0. -1.
         11   -1    0    0    0    0 -0.00000000000E+00 -0.00000000000E+00 -0.45593999997E+02  0.45594000000E+02  0.51100000000E-03 0.  1.
    9900012    2    1    2    0    0 -0.16809678587E+02  0.10310457810E+02  0.35556925064E+02  0.50528858906E+02  0.29999997131E+02 0.  0.
        -12    1    1    2    0    0  0.16809678587E+02 -0.10310457810E+02 -0.35556925064E+02  0.40659141094E+02  0.00000000000E+00 0.  1.
         11    1    3    3    0    0 -0.12567085439E-01  0.93427192838E+01  0.46880380008E+01  0.10452954707E+02  0.51100000000E-03 0. -1.
        -11    1    3    3    0    0 -0.18765382653E+02  0.55582403532E+01  0.28436194507E+02  0.34520295194E+02  0.51100000000E-03 0.  1.
         12    1    3    3    0    0  0.19682711515E+01 -0.45905018266E+01  0.24326925562E+01  0.55556090052E+01  0.00000000000E+00 0. -1.
</event>
<event>
 7    1  0.5005325E-012  0.5052886E+02  0.7816164E-02  0.1300439E+00
        -11   -1    0    0    0    0  0.00000000000E+00  0.00000000000E+00  0.45593999997E+02  0.45594000000E+02  0.51100000000E-03 0. -1.
         11   -1    0    0    0    0 -0.00000000000E+00 -0.00000000000E+00 -0.45593999997E+02  0.45594000000E+02  0.51100000000E-03 0.  1.
    9900012    2    1    2    0    0  0.17205606766E+02 -0.32128895735E+02 -0.18024057990E+02  0.50528861891E+02  0.30000006203E+02 0.  0.
         12    1    1    2    0    0 -0.17205606766E+02  0.32128895735E+02  0.18024057990E+02  0.40659138109E+02  0.00000000000E+00 0. -1.
         11    1    3    3    0    0  0.19089606711E+01  0.46972989159E+00  0.29621766432E+01  0.35551747835E+01  0.51100000000E-03 0. -1.
        -11    1    3    3    0    0  0.70512150111E+01 -0.16440937815E+02  0.16507543044E+01  0.17965218045E+02  0.51100000000E-03 0.  1.
        -12    1    3    3    0    0  0.82454310837E+01 -0.16157687812E+02 -0.22636988938E+02  0.29008469062E+02  0.00000000000E+00 0.  1.
</event>
<event>
 7    1  0.5005325E-012  0.5052886E+02  0.7816164E-02  0.1300439E+00
        -11   -1    0    0    0    0  0.00000000000E+00  0.00000000000E+00  0.45593999997E+02  0.45594000000E+02  0.51100000000E-03 0.  1.
         11   -1    0    0    0    0 -0.00000000000E+00 -0.00000000000E+00 -0.45593999997E+02  0.45594000000E+02  0.51100000000E-03 0. -1.
    9900012    2    1    2    0    0 -0.40246180232E+02 -0.56323094426E+01 -0.12989844661E+01  0.50528864574E+02  0.30000014359E+02 0.  0.
         12    1    1    2    0    0  0.40246180232E+02  0.56323094426E+01  0.12989844661E+01  0.40659135426E+02  0.00000000000E+00 0. -1.
         11    1    3    3    0    0 -0.33818315604E+00  0.65049240500E+00 -0.36160674537E+01  0.36896412165E+01  0.51100000000E-03 0. -1.
        -11    1    3    3    0    0 -0.15002045898E+02 -0.14097925087E+02  0.24788372929E+01  0.20735416742E+02  0.51100000000E-03 0.  1.
         12    1    3    3    0    0 -0.24905951179E+02  0.78151232398E+01 -0.16175430532E+00  0.26103806615E+02  0.00000000000E+00 0. -1.
</event>
<event>
 7    1  0.5005325E-012  0.5052885E+02  0.7816164E-02  0.1300439E+00
        -11   -1    0    0    0    0  0.00000000000E+00  0.00000000000E+00  0.45593999997E+02  0.45594000000E+02  0.51100000000E-03 0. -1.
         11   -1    0    0    0    0 -0.00000000000E+00 -0.00000000000E+00 -0.45593999997E+02  0.45594000000E+02  0.51100000000E-03 0.  1.
    9900012    2    1    2    0    0 -0.18745436313E+02 -0.16760636721E+02 -0.31950837215E+02  0.50528851896E+02  0.29999975822E+02 0.  0.
         12    1    1    2    0    0  0.18745436313E+02  0.16760636721E+02  0.31950837215E+02  0.40659148104E+02  0.00000000000E+00 0. -1.
         11    1    3    3    0    0 -0.10235365042E+02  0.37912261642E+01 -0.70786501908E+01  0.13009357485E+02  0.51100000000E-03 0. -1.
        -11    1    3    3    0    0 -0.61229820472E+01  0.34893290383E+00 -0.10093064444E+02  0.11810275757E+02  0.51100000000E-03 0.  1.
         12    1    3    3    0    0 -0.23870892230E+01 -0.20900795789E+02 -0.14779122580E+02  0.25709218654E+02  0.00000000000E+00 0. -1.
</event>
<event>
 7    1  0.5005325E-012  0.5052886E+02  0.7816164E-02  0.1300439E+00
        -11   -1    0    0    0    0  0.00000000000E+00  0.00000000000E+00  0.45593999997E+02  0.45594000000E+02  0.51100000000E-03 0. -1.
         11   -1    0    0    0    0 -0.00000000000E+00 -0.00000000000E+00 -0.45593999997E+02  0.45594000000E+02  0.51100000000E-03 0.  1.
    9900012    2    1    2    0    0  0.35094186177E+02 -0.16336883137E+02 -0.12436641375E+02  0.50528859542E+02  0.29999999065E+02 0.  0.
         12    1    1    2    0    0 -0.35094186177E+02  0.16336883137E+02  0.12436641375E+02  0.40659140458E+02  0.00000000000E+00 0. -1.
         11    1    3    3    0    0  0.17485732040E+02 -0.78772676817E+01 -0.18862758352E+02  0.26899922379E+02  0.51100000000E-03 0. -1.
        -11    1    3    3    0    0  0.99298901022E+01 -0.68419400609E+01 -0.18774904068E+01  0.12204090778E+02  0.51100000000E-03 0.  1.
         12    1    3    3    0    0  0.76785640351E+01 -0.16176753940E+01  0.83036073840E+01  0.11424846385E+02  0.00000000000E+00 0. -1.
</event>
<event>
 7    1  0.5005325E-012  0.5052886E+02  0.7816164E-02  0.1300439E+00
        -11   -1    0    0    0    0  0.00000000000E+00  0.00000000000E+00  0.45593999997E+02  0.45594000000E+02  0.51100000000E-03 0. -1.
         11   -1    0    0    0    0 -0.00000000000E+00 -0.00000000000E+00 -0.45593999997E+02  0.45594000000E+02  0.51100000000E-03 0.  1.
    9900012    2    1    2    0    0  0.24947950174E+01  0.21027097988E+02 -0.34710275315E+02  0.50528855095E+02  0.29999985546E+02 0.  0.
         12    1    1    2    0    0 -0.24947950174E+01 -0.21027097988E+02  0.34710275315E+02  0.40659144905E+02  0.00000000000E+00 0. -1.
         11    1    3    3    0    0  0.29379270598E+01 -0.77709986930E+00 -0.17864666882E+02  0.18121303007E+02  0.51100000000E-03 0. -1.
        -11    1    3    3    0    0  0.69569491557E+01  0.10653972461E+02 -0.13625920511E+02  0.18643282457E+02  0.51100000000E-03 0.  1.
         12    1    3    3    0    0 -0.74000811981E+01  0.11150225397E+02 -0.32196879221E+01  0.13764269630E+02  0.00000000000E+00 0. -1.
</event>
<event>
 7    1  0.5005325E-012  0.5052886E+02  0.7816164E-02  0.1300439E+00
        -11   -1    0    0    0    0  0.00000000000E+00  0.00000000000E+00  0.45593999997E+02  0.45594000000E+02  0.51100000000E-03 0. -1.
         11   -1    0    0    0    0 -0.00000000000E+00 -0.00000000000E+00 -0.45593999997E+02  0.45594000000E+02  0.51100000000E-03 0.  1.
    9900012    2    1    2    0    0 -0.12372997579E+02 -0.15341058992E+02 -0.35562996124E+02  0.50528857690E+02  0.29999993434E+02 0.  0.
         12    1    1    2    0    0  0.12372997579E+02  0.15341058992E+02  0.35562996124E+02  0.40659142310E+02  0.00000000000E+00 0. -1.
         11    1    3    3    0    0  0.30596737379E+01 -0.16042613031E+00 -0.64542376535E+00  0.31311199312E+01  0.51100000000E-03 0. -1.
        -11    1    3    3    0    0 -0.50542211513E+01 -0.19975888719E+02 -0.21792074762E+02  0.29991262132E+02  0.51100000000E-03 0.  1.
         12    1    3    3    0    0 -0.10378450165E+02  0.47952558581E+01 -0.13125497596E+02  0.17406475626E+02  0.00000000000E+00 0. -1.
</event>
<event>
 7    1  0.5005325E-012  0.5052886E+02  0.7816164E-02  0.1300439E+00
        -11   -1    0    0    0    0  0.00000000000E+00  0.00000000000E+00  0.45593999997E+02  0.45594000000E+02  0.51100000000E-03 0. -1.
         11   -1    0    0    0    0 -0.00000000000E+00 -0.00000000000E+00 -0.45593999997E+02  0.45594000000E+02  0.51100000000E-03 0.  1.
    9900012    2    1    2    0    0 -0.15552157031E+00  0.10805981319E+02 -0.39196586115E+02  0.50528858564E+02  0.29999996090E+02 0.  0.
         12    1    1    2    0    0  0.15552157031E+00 -0.10805981319E+02  0.39196586115E+02  0.40659141436E+02  0.00000000000E+00 0. -1.
         11    1    3    3    0    0  0.64842550190E+00  0.31070056272E+01  0.13536322011E+01  0.34505448839E+01  0.51100000000E-03 0. -1.
        -11    1    3    3    0    0 -0.51961216743E+01  0.13775323471E+02 -0.17663152868E+02  0.22994481657E+02  0.51100000000E-03 0.  1.
        -12    1    3    3    0    0  0.43921746021E+01 -0.60763477782E+01 -0.22887065449E+02  0.24083832023E+02  0.00000000000E+00 0.  1.
</event>
<event>
 7    1  0.5005325E-012  0.5052886E+02  0.7816164E-02  0.1300439E+00
        -11   -1    0    0    0    0  0.00000000000E+00  0.00000000000E+00  0.45593999997E+02  0.45594000000E+02  0.51100000000E-03 0.  1.
         11   -1    0    0    0    0 -0.00000000000E+00 -0.00000000000E+00 -0.45593999997E+02  0.45594000000E+02  0.51100000000E-03 0. -1.
    9900012    2    1    2    0    0 -0.32902540090E+02 -0.16900249499E+02  0.16881062572E+02  0.50528857719E+02  0.29999993522E+02 0.  0.
        -12    1    1    2    0    0  0.32902540090E+02  0.16900249499E+02 -0.16881062572E+02  0.40659142281E+02  0.00000000000E+00 0.  1.
         11    1    3    3    0    0 -0.99395585025E+01 -0.10716957720E+02  0.71767530854E+01  0.16283543567E+02  0.51100000000E-03 0. -1.
        -11    1    3    3    0    0 -0.23120968410E+02 -0.93102773902E+00 -0.79364281834E-01  0.23139842087E+02  0.51100000000E-03 0.  1.
         12    1    3    3    0    0  0.15798682263E+00 -0.52522640404E+01  0.97836737679E+01  0.11105472065E+02  0.00000000000E+00 0. -1.
</event>
<event>
 7    1  0.5005325E-012  0.5052886E+02  0.7816164E-02  0.1300439E+00
        -11   -1    0    0    0    0  0.00000000000E+00  0.00000000000E+00  0.45593999997E+02  0.45594000000E+02  0.51100000000E-03 0. -1.
         11   -1    0    0    0    0 -0.00000000000E+00 -0.00000000000E+00 -0.45593999997E+02  0.45594000000E+02  0.51100000000E-03 0.  1.
    9900012    2    1    2    0    0  0.10568976421E+02  0.75678508920E+01  0.38525187503E+02  0.50528859553E+02  0.29999999098E+02 0.  0.
        -12    1    1    2    0    0 -0.10568976421E+02 -0.75678508920E+01 -0.38525187503E+02  0.40659140447E+02  0.00000000000E+00 0.  1.
         11    1    3    3    0    0  0.52791405617E+01 -0.19315327746E+01  0.66639300332E+01  0.87182628819E+01  0.51100000000E-03 0. -1.
        -11    1    3    3    0    0  0.46139510752E+01  0.71731120081E+01 -0.12419705018E+01  0.86188497721E+01  0.51100000000E-03 0.  1.
        -12    1    3    3    0    0  0.67588478376E+00  0.23262716585E+01  0.33103227972E+02  0.33191746899E+02  0.00000000000E+00 0.  1.
</event>
<event>
 7    1  0.5005325E-012  0.5052885E+02  0.7816164E-02  0.1300439E+00
        -11   -1    0    0    0    0  0.00000000000E+00  0.00000000000E+00  0.45593999997E+02  0.45594000000E+02  0.51100000000E-03 0. -1.
         11   -1    0    0    0    0 -0.00000000000E+00 -0.00000000000E+00 -0.45593999997E+02  0.45594000000E+02  0.51100000000E-03 0.  1.
    9900012    2    1    2    0    0  0.67853835144E+01 -0.96527112777E+01  0.38909508475E+02  0.50528854483E+02  0.29999983685E+02 0.  0.
        -12    1    1    2    0    0 -0.67853835144E+01  0.96527112777E+01 -0.38909508475E+02  0.40659145517E+02  0.00000000000E+00 0.  1.
         11    1    3    3    0    0  0.12920479414E+02 -0.33152691190E+01  0.77758777555E+01  0.15440015309E+02  0.51100000000E-03 0. -1.
        -11    1    3    3    0    0 -0.38807812275E+00  0.16672695330E+01  0.20575614011E+02  0.20646701541E+02  0.51100000000E-03 0.  1.
        -12    1    3    3    0    0 -0.57470177764E+01 -0.80047116918E+01  0.10558016708E+02  0.14442137633E+02  0.00000000000E+00 0.  1.
</event>
<event>
 7    1  0.5005325E-012  0.5052886E+02  0.7816164E-02  0.1300439E+00
        -11   -1    0    0    0    0  0.00000000000E+00  0.00000000000E+00  0.45593999997E+02  0.45594000000E+02  0.51100000000E-03 0. -1.
         11   -1    0    0    0    0 -0.00000000000E+00 -0.00000000000E+00 -0.45593999997E+02  0.45594000000E+02  0.51100000000E-03 0.  1.
    9900012    2    1    2    0    0 -0.12766470020E+01 -0.30098064548E+02 -0.27306449745E+02  0.50528861854E+02  0.30000006092E+02 0.  0.
         12    1    1    2    0    0  0.12766470020E+01  0.30098064548E+02  0.27306449745E+02  0.40659138146E+02  0.00000000000E+00 0. -1.
         11    1    3    3    0    0  0.10945396488E+02 -0.17224091697E+02 -0.68694837516E+01  0.21532785383E+02  0.51100000000E-03 0. -1.
        -11    1    3    3    0    0 -0.42369984090E+01 -0.57284272824E+01 -0.15776931857E+02  0.17311227967E+02  0.51100000000E-03 0.  1.
        -12    1    3    3    0    0 -0.79850450808E+01 -0.71455455686E+01 -0.46600341358E+01  0.11684848504E+02  0.00000000000E+00 0.  1.
</event>
<event>
 7    1  0.5005325E-012  0.5052886E+02  0.7816164E-02  0.1300439E+00
        -11   -1    0    0    0    0  0.00000000000E+00  0.00000000000E+00  0.45593999997E+02  0.45594000000E+02  0.51100000000E-03 0.  1.
         11   -1    0    0    0    0 -0.00000000000E+00 -0.00000000000E+00 -0.45593999997E+02  0.45594000000E+02  0.51100000000E-03 0. -1.
    9900012    2    1    2    0    0  0.31180957501E+02  0.18454570474E+02 -0.18448376170E+02  0.50528857543E+02  0.29999992987E+02 0.  0.
         12    1    1    2    0    0 -0.31180957501E+02 -0.18454570474E+02  0.18448376170E+02  0.40659142457E+02  0.00000000000E+00 0. -1.
         11    1    3    3    0    0  0.10786125423E+02 -0.19950139218E+01 -0.89030400415E+01  0.14127445078E+02  0.51100000000E-03 0. -1.
        -11    1    3    3    0    0  0.18483165561E+02  0.20474255987E+02 -0.14448928067E+02  0.31138305829E+02  0.51100000000E-03 0.  1.
         12    1    3    3    0    0  0.19116665162E+01 -0.24671590545E-01  0.49035919384E+01  0.52631066353E+01  0.00000000000E+00 0. -1.
</event>
<event>
 7    1  0.5005325E-012  0.5052885E+02  0.7816164E-02  0.1300439E+00
        -11   -1    0    0    0    0  0.00000000000E+00  0.00000000000E+00  0.45593999997E+02  0.45594000000E+02  0.51100000000E-03 0. -1.
         11   -1    0    0    0    0 -0.00000000000E+00 -0.00000000000E+00 -0.45593999997E+02  0.45594000000E+02  0.51100000000E-03 0.  1.
    9900012    2    1    2    0    0 -0.21204723539E+02 -0.22495471709E+02 -0.26409840713E+02  0.50528853006E+02  0.29999979198E+02 0.  0.
         12    1    1    2    0    0  0.21204723539E+02  0.22495471709E+02  0.26409840713E+02  0.40659146994E+02  0.00000000000E+00 0. -1.
         11    1    3    3    0    0 -0.78459928246E+01 -0.64515702955E+01  0.38043308041E+01  0.10846902591E+02  0.51100000000E-03 0. -1.
        -11    1    3    3    0    0  0.18689198688E+01 -0.77077589106E+01 -0.62883697503E+01  0.10121561306E+02  0.51100000000E-03 0.  1.
         12    1    3    3    0    0 -0.15227650583E+02 -0.83361425028E+01 -0.23925801767E+02  0.29560389109E+02  0.00000000000E+00 0. -1.
</event>
<event>
 7    1  0.5005325E-012  0.5052886E+02  0.7816164E-02  0.1300439E+00
        -11   -1    0    0    0    0  0.00000000000E+00  0.00000000000E+00  0.45593999997E+02  0.45594000000E+02  0.51100000000E-03 0. -1.
         11   -1    0    0    0    0 -0.00000000000E+00 -0.00000000000E+00 -0.45593999997E+02  0.45594000000E+02  0.51100000000E-03 0.  1.
    9900012    2    1    2    0    0 -0.33006972934E+02  0.12646382210E+02 -0.20094137918E+02  0.50528860512E+02  0.30000002012E+02 0.  0.
         12    1    1    2    0    0  0.33006972934E+02 -0.12646382210E+02  0.20094137918E+02  0.40659139488E+02  0.00000000000E+00 0. -1.
         11    1    3    3    0    0 -0.83882742735E+01 -0.80016706104E+00  0.69167762551E+01  0.10901614864E+02  0.51100000000E-03 0. -1.
        -11    1    3    3    0    0 -0.36101725016E+01  0.24600369888E+01 -0.84700535989E+01  0.95303166635E+01  0.51100000000E-03 0.  1.
        -12    1    3    3    0    0 -0.21008526158E+02  0.10986512282E+02 -0.18540860574E+02  0.30096928985E+02  0.00000000000E+00 0.  1.
</event>
<event>
 7    1  0.5005325E-012  0.5052885E+02  0.7816164E-02  0.1300439E+00
        -11   -1    0    0    0    0  0.00000000000E+00  0.00000000000E+00  0.45593999997E+02  0.45594000000E+02  0.51100000000E-03 0. -1.
         11   -1    0    0    0    0 -0.00000000000E+00 -0.00000000000E+00 -0.45593999997E+02  0.45594000000E+02  0.51100000000E-03 0.  1.
    9900012    2    1    2    0    0  0.33622299129E+02 -0.20576357925E+02  0.99659742736E+01  0.50528854074E+02  0.29999982444E+02 0.  0.
        -12    1    1    2    0    0 -0.33622299129E+02  0.20576357925E+02 -0.99659742736E+01  0.40659145926E+02  0.00000000000E+00 0.  1.
         11    1    3    3    0    0  0.33069999566E+00 -0.27481085371E+01  0.36362066024E+01  0.45698426380E+01  0.51100000000E-03 0.  1.
        -11    1    3    3    0    0  0.32432307367E+01  0.42509616140E+01 -0.46521639462E+01  0.70874431143E+01  0.51100000000E-03 0. -1.
         12    1    3    3    0    0  0.30048368396E+02 -0.22079211002E+02  0.10981931617E+02  0.38871568322E+02  0.00000000000E+00 0. -1.
</event>
<event>
 7    1  0.5005325E-012  0.5052886E+02  0.7816164E-02  0.1300439E+00
        -11   -1    0    0    0    0  0.00000000000E+00  0.00000000000E+00  0.45593999997E+02  0.45594000000E+02  0.51100000000E-03 0. -1.
         11   -1    0    0    0    0 -0.00000000000E+00 -0.00000000000E+00 -0.45593999997E+02  0.45594000000E+02  0.51100000000E-03 0.  1.
    9900012    2    1    2    0    0 -0.26386035184E+02 -0.25334769984E+02  0.17750834776E+02  0.50528861321E+02  0.30000004471E+02 0.  0.
        -12    1    1    2    0    0  0.26386035184E+02  0.25334769984E+02 -0.17750834776E+02  0.40659138679E+02  0.00000000000E+00 0.  1.
         11    1    3    3    0    0 -0.11847938666E+02 -0.13150045581E+02  0.39349976419E+01  0.18132334547E+02  0.51100000000E-03 0. -1.
        -11    1    3    3    0    0 -0.42134637985E+01 -0.16899561173E+02  0.11328374949E+02  0.20776922878E+02  0.51100000000E-03 0.  1.
        -12    1    3    3    0    0 -0.10324632720E+02  0.47148367710E+01  0.24874621856E+01  0.11619603896E+02  0.00000000000E+00 0.  1.
</event>
<event>
 7    1  0.5005325E-012  0.5052886E+02  0.7816164E-02  0.1300439E+00
        -11   -1    0    0    0    0  0.00000000000E+00  0.00000000000E+00  0.45593999997E+02  0.45594000000E+02  0.51100000000E-03 0. -1.
         11   -1    0    0    0    0 -0.00000000000E+00 -0.00000000000E+00 -0.45593999997E+02  0.45594000000E+02  0.51100000000E-03 0.  1.
    9900012    2    1    2    0    0 -0.11399790757E+02 -0.10370432679E+02 -0.37625320864E+02  0.50528857444E+02  0.29999992687E+02 0.  0.
         12    1    1    2    0    0  0.11399790757E+02  0.10370432679E+02  0.37625320864E+02  0.40659142556E+02  0.00000000000E+00 0. -1.
         11    1    3    3    0    0  0.15393086579E+00  0.36921601602E+01  0.83350936847E+00  0.37882026725E+01  0.51100000000E-03 0. -1.
        -11    1    3    3    0    0 -0.94420403860E+01  0.25602726425E+01 -0.15140347692E+02  0.18026015953E+02  0.51100000000E-03 0.  1.
        -12    1    3    3    0    0 -0.21116812365E+01 -0.16622865481E+02 -0.23318482541E+02  0.28714638819E+02  0.00000000000E+00 0.  1.
</event>
<event>
 7    1  0.5005325E-012  0.5052886E+02  0.7816164E-02  0.1300439E+00
        -11   -1    0    0    0    0  0.00000000000E+00  0.00000000000E+00  0.45593999997E+02  0.45594000000E+02  0.51100000000E-03 0. -1.
         11   -1    0    0    0    0 -0.00000000000E+00 -0.00000000000E+00 -0.45593999997E+02  0.45594000000E+02  0.51100000000E-03 0.  1.
    9900012    2    1    2    0    0  0.34326239093E+01  0.16323921702E+02 -0.37079811564E+02  0.50528858933E+02  0.29999997214E+02 0.  0.
         12    1    1    2    0    0 -0.34326239093E+01 -0.16323921702E+02  0.37079811564E+02  0.40659141067E+02  0.00000000000E+00 0. -1.
         11    1    3    3    0    0  0.70559526868E+01  0.10294957197E+02 -0.52591818785E+01  0.13543692491E+02  0.51100000000E-03 0. -1.
        -11    1    3    3    0    0  0.34692155270E+01 -0.37328042258E+01 -0.17661579836E+02  0.18382075137E+02  0.51100000000E-03 0.  1.
        -12    1    3    3    0    0 -0.70925443045E+01  0.97617687309E+01 -0.14159049850E+02  0.18603091305E+02  0.00000000000E+00 0.  1.
</event>
<event>
 7    1  0.5005325E-012  0.5052887E+02  0.7816164E-02  0.1300439E+00
        -11   -1    0    0    0    0  0.00000000000E+00  0.00000000000E+00  0.45593999997E+02  0.45594000000E+02  0.51100000000E-03 0. -1.
         11   -1    0    0    0    0 -0.00000000000E+00 -0.00000000000E+00 -0.45593999997E+02  0.45594000000E+02  0.51100000000E-03 0.  1.
    9900012    2    1    2    0    0  0.21409558015E+02  0.28228808524E+02  0.19948193421E+02  0.50528865407E+02  0.30000016891E+02 0.  0.
        -12    1    1    2    0    0 -0.21409558015E+02 -0.28228808524E+02 -0.19948193421E+02  0.40659134593E+02  0.00000000000E+00 0.  1.
         11    1    3    3    0    0  0.19988768597E+02  0.19966044884E+02  0.15128968506E+02  0.32048081170E+02  0.51100000000E-03 0. -1.
        -11    1    3    3    0    0 -0.59113859677E+00 -0.34355671276E+01 -0.27175475585E+01  0.44201392877E+01  0.51100000000E-03 0.  1.
         12    1    3    3    0    0  0.20119280145E+01  0.11698330767E+02  0.75367724738E+01  0.14060644950E+02  0.00000000000E+00 0. -1.
</event>
<event>
 7    1  0.5005325E-012  0.5052888E+02  0.7816164E-02  0.1300439E+00
        -11   -1    0    0    0    0  0.00000000000E+00  0.00000000000E+00  0.45593999997E+02  0.45594000000E+02  0.51100000000E-03 0.  1.
         11   -1    0    0    0    0 -0.00000000000E+00 -0.00000000000E+00 -0.45593999997E+02  0.45594000000E+02  0.51100000000E-03 0. -1.
    9900012    2    1    2    0    0  0.15385191538E+02 -0.35404715709E+02 -0.12765822416E+02  0.50528877592E+02  0.30000053927E+02 0.  0.
         12    1    1    2    0    0 -0.15385191538E+02  0.35404715709E+02  0.12765822416E+02  0.40659122408E+02  0.00000000000E+00 0. -1.
         11    1    3    3    0    0  0.92627530987E+01 -0.22252593902E+02 -0.24637480967E+01  0.24229044250E+02  0.51100000000E-03 0. -1.
        -11    1    3    3    0    0  0.12872109501E+02 -0.10690617758E+02 -0.53239153161E+01  0.17559173831E+02  0.51100000000E-03 0.  1.
         12    1    3    3    0    0 -0.67496710617E+01 -0.24615040480E+01 -0.49781590030E+01  0.87406595105E+01  0.00000000000E+00 0. -1.
</event>
<event>
 7    1  0.9661750E-012  0.5052886E+02  0.7816164E-02  0.1300439E+00
        -11   -1    0    0    0    0  0.00000000000E+00  0.00000000000E+00  0.45593999997E+02  0.45594000000E+02  0.51100000000E-03 0. -1.
         11   -1    0    0    0    0 -0.00000000000E+00 -0.00000000000E+00 -0.45593999997E+02  0.45594000000E+02  0.51100000000E-03 0.  1.
    9900012    2    1    2    0    0 -0.25427356561E+02  0.23469991169E+01  0.31640277478E+02  0.50528855575E+02  0.29999987004E+02 0.  0.
        -12    1    1    2    0    0  0.25427356561E+02 -0.23469991169E+01 -0.31640277478E+02  0.40659144425E+02  0.00000000000E+00 0.  1.
         11    1    3    3    0    0 -0.22026244992E+02 -0.73789691255E+00  0.24330170151E+02  0.32827688620E+02  0.51100000000E-03 0. -1.
        -11    1    3    3    0    0  0.19608131338E+01 -0.11262872721E+01  0.10088521326E+02  0.10338838134E+02  0.51100000000E-03 0.  1.
        -12    1    3    3    0    0 -0.53619247024E+01  0.42111833015E+01 -0.27784139983E+01  0.73623288204E+01  0.00000000000E+00 0.  1.
</event>
<event>
 7    1  0.5005325E-012  0.5052886E+02  0.7816164E-02  0.1300439E+00
        -11   -1    0    0    0    0  0.00000000000E+00  0.00000000000E+00  0.45593999997E+02  0.45594000000E+02  0.51100000000E-03 0. -1.
         11   -1    0    0    0    0 -0.00000000000E+00 -0.00000000000E+00 -0.45593999997E+02  0.45594000000E+02  0.51100000000E-03 0.  1.
    9900012    2    1    2    0    0  0.32407700297E+02  0.69789922664E+00 -0.24544230641E+02  0.50528863763E+02  0.30000011893E+02 0.  0.
         12    1    1    2    0    0 -0.32407700297E+02 -0.69789922664E+00  0.24544230641E+02  0.40659136237E+02  0.00000000000E+00 0. -1.
         11    1    3    3    0    0  0.38294111029E+00 -0.38882193476E+01  0.14292071675E+01  0.41602316015E+01  0.51100000000E-03 0. -1.
        -11    1    3    3    0    0  0.17145858761E+02 -0.39926444044E+01 -0.32781511212E+01  0.17907204054E+02  0.51100000000E-03 0.  1.
        -12    1    3    3    0    0  0.14878900425E+02  0.85787629787E+01 -0.22695286687E+02  0.28461428107E+02  0.00000000000E+00 0.  1.
</event>
<event>
 7    1  0.5005325E-012  0.5052886E+02  0.7816164E-02  0.1300439E+00
        -11   -1    0    0    0    0  0.00000000000E+00  0.00000000000E+00  0.45593999997E+02  0.45594000000E+02  0.51100000000E-03 0. -1.
         11   -1    0    0    0    0 -0.00000000000E+00 -0.00000000000E+00 -0.45593999997E+02  0.45594000000E+02  0.51100000000E-03 0.  1.
    9900012    2    1    2    0    0 -0.29583162294E+02 -0.81212080479E+01  0.26684226456E+02  0.50528862613E+02  0.30000008399E+02 0.  0.
        -12    1    1    2    0    0  0.29583162294E+02  0.81212080479E+01 -0.26684226456E+02  0.40659137387E+02  0.00000000000E+00 0.  1.
         11    1    3    3    0    0 -0.10168392833E+02 -0.74691362649E+01  0.84797151530E+01  0.15201637369E+02  0.51100000000E-03 0. -1.
        -11    1    3    3    0    0  0.48435188676E+01  0.73021849033E+00 -0.11132925165E+00  0.48995192140E+01  0.51100000000E-03 0.  1.
         12    1    3    3    0    0 -0.24258288329E+02 -0.13822902734E+01  0.18315840555E+02  0.30427706030E+02  0.00000000000E+00 0. -1.
</event>
<event>
 7    1  0.5005325E-012  0.5052883E+02  0.7816164E-02  0.1300439E+00
        -11   -1    0    0    0    0  0.00000000000E+00  0.00000000000E+00  0.45593999997E+02  0.45594000000E+02  0.51100000000E-03 0. -1.
         11   -1    0    0    0    0 -0.00000000000E+00 -0.00000000000E+00 -0.45593999997E+02  0.45594000000E+02  0.51100000000E-03 0.  1.
    9900012    2    1    2    0    0 -0.22856737518E+02 -0.49554384877E+01 -0.33259305178E+02  0.50528828815E+02  0.29999905665E+02 0.  0.
         12    1    1    2    0    0  0.22856737518E+02  0.49554384877E+01  0.33259305178E+02  0.40659171185E+02  0.00000000000E+00 0. -1.
         11    1    3    3    0    0  0.41987336484E+01 -0.26930263904E+01 -0.38488960922E+01  0.63004568707E+01  0.51100000000E-03 0. -1.
        -11    1    3    3    0    0 -0.84857620967E+01 -0.33652501430E+01  0.34653102143E+00  0.91352696127E+01  0.51100000000E-03 0.  1.
        -12    1    3    3    0    0 -0.18569709069E+02  0.11028380457E+01 -0.29756940107E+02  0.35093102331E+02  0.00000000000E+00 0.  1.
</event>
<event>
 7    1  0.5005325E-012  0.5052886E+02  0.7816164E-02  0.1300439E+00
        -11   -1    0    0    0    0  0.00000000000E+00  0.00000000000E+00  0.45593999997E+02  0.45594000000E+02  0.51100000000E-03 0. -1.
         11   -1    0    0    0    0 -0.00000000000E+00 -0.00000000000E+00 -0.45593999997E+02  0.45594000000E+02  0.51100000000E-03 0.  1.
    9900012    2    1    2    0    0 -0.24202874513E+02  0.23891240198E+01 -0.32583414634E+02  0.50528856410E+02  0.29999989543E+02 0.  0.
         12    1    1    2    0    0  0.24202874513E+02 -0.23891240198E+01  0.32583414634E+02  0.40659143590E+02  0.00000000000E+00 0. -1.
         11    1    3    3    0    0 -0.15200530449E+02  0.55167647243E+01 -0.45686585382E+01  0.16803674005E+02  0.51100000000E-03 0. -1.
        -11    1    3    3    0    0 -0.13293720947E+02 -0.48450529505E+01 -0.20769669261E+02  0.25131190107E+02  0.51100000000E-03 0.  1.
        -12    1    3    3    0    0  0.42913768834E+01  0.17174122459E+01 -0.72450868350E+01  0.85939922983E+01  0.00000000000E+00 0.  1.
</event>
<event>
 7    1  0.5005325E-012  0.5052886E+02  0.7816164E-02  0.1300439E+00
        -11   -1    0    0    0    0  0.00000000000E+00  0.00000000000E+00  0.45593999997E+02  0.45594000000E+02  0.51100000000E-03 0.  1.
         11   -1    0    0    0    0 -0.00000000000E+00 -0.00000000000E+00 -0.45593999997E+02  0.45594000000E+02  0.51100000000E-03 0. -1.
    9900012    2    1    2    0    0  0.30995385121E+02  0.26028543447E+02 -0.38687011951E+01  0.50528858080E+02  0.29999994619E+02 0.  0.
         12    1    1    2    0    0 -0.30995385121E+02 -0.26028543447E+02  0.38687011951E+01  0.40659141920E+02  0.00000000000E+00 0. -1.
         11    1    3    3    0    0  0.96852827441E+00 -0.34053527577E+00 -0.46657379810E+01  0.47773551743E+01  0.51100000000E-03 0. -1.
        -11    1    3    3    0    0  0.23464241323E+01  0.15911116292E+02 -0.93823076413E+00  0.16110543290E+02  0.51100000000E-03 0.  1.
        -12    1    3    3    0    0  0.27680432714E+02  0.10457962431E+02  0.17352675500E+01  0.29640959615E+02  0.00000000000E+00 0.  1.
</event>
<event>
 7    1  0.5182331E-012  0.5052883E+02  0.7816164E-02  0.1300439E+00
        -11   -1    0    0    0    0  0.00000000000E+00  0.00000000000E+00  0.45593999997E+02  0.45594000000E+02  0.51100000000E-03 0. -1.
         11   -1    0    0    0    0 -0.00000000000E+00 -0.00000000000E+00 -0.45593999997E+02  0.45594000000E+02  0.51100000000E-03 0.  1.
    9900012    2    1    2    0    0  0.77762312476E+01 -0.11261538151E+02  0.38286759767E+02  0.50528831447E+02  0.29999913667E+02 0.  0.
        -12    1    1    2    0    0 -0.77762312476E+01  0.11261538151E+02 -0.38286759767E+02  0.40659168553E+02  0.00000000000E+00 0.  1.
         11    1    3    3    0    0  0.64202205214E+01 -0.29998651284E+01  0.25268974205E+02  0.26243846516E+02  0.51100000000E-03 0. -1.
        -11    1    3    3    0    0 -0.22573793980E+01  0.35557747803E+01  0.10980610173E+02  0.11760658828E+02  0.51100000000E-03 0.  1.
        -12    1    3    3    0    0  0.36133901242E+01 -0.11817447803E+02  0.20371753889E+01  0.12524326103E+02  0.00000000000E+00 0.  1.
</event>
<event>
 7    1  0.5005325E-012  0.5052886E+02  0.7816164E-02  0.1300439E+00
        -11   -1    0    0    0    0  0.00000000000E+00  0.00000000000E+00  0.45593999997E+02  0.45594000000E+02  0.51100000000E-03 0. -1.
         11   -1    0    0    0    0 -0.00000000000E+00 -0.00000000000E+00 -0.45593999997E+02  0.45594000000E+02  0.51100000000E-03 0.  1.
    9900012    2    1    2    0    0 -0.76477807191E+01  0.56064492841E+00 -0.39929473297E+02  0.50528859448E+02  0.29999998778E+02 0.  0.
         12    1    1    2    0    0  0.76477807191E+01 -0.56064492841E+00  0.39929473297E+02  0.40659140552E+02  0.00000000000E+00 0. -1.
         11    1    3    3    0    0  0.11889811723E+01 -0.92986854260E+01 -0.17987413202E+02  0.20283645157E+02  0.51100000000E-03 0. -1.
        -11    1    3    3    0    0 -0.66985095906E+01 -0.28978693439E+01 -0.46631507372E+01  0.86609845011E+01  0.51100000000E-03 0.  1.
        -12    1    3    3    0    0 -0.21382523008E+01  0.12757199698E+02 -0.17278909358E+02  0.21584229790E+02  0.00000000000E+00 0.  1.
</event>
<event>
 7    1  0.5005325E-012  0.5052887E+02  0.7816164E-02  0.1300439E+00
        -11   -1    0    0    0    0  0.00000000000E+00  0.00000000000E+00  0.45593999997E+02  0.45594000000E+02  0.51100000000E-03 0. -1.
         11   -1    0    0    0    0 -0.00000000000E+00 -0.00000000000E+00 -0.45593999997E+02  0.45594000000E+02  0.51100000000E-03 0.  1.
    9900012    2    1    2    0    0  0.67904778636E+00  0.24333423925E+00  0.40652731854E+02  0.50528869111E+02  0.30000028151E+02 0.  0.
        -12    1    1    2    0    0 -0.67904778636E+00 -0.24333423925E+00 -0.40652731854E+02  0.40659130889E+02  0.00000000000E+00 0.  1.
         11    1    3    3    0    0  0.51069767275E+01  0.40646504398E+01  0.24224838565E+02  0.25088750433E+02  0.51100000000E-03 0. -1.
        -11    1    3    3    0    0 -0.36597505826E+00  0.73511857005E+01  0.46528243288E+01  0.87076198495E+01  0.51100000000E-03 0.  1.
        -12    1    3    3    0    0 -0.40619538829E+01 -0.11172501901E+02  0.11775068960E+02  0.16732498829E+02  0.00000000000E+00 0.  1.
</event>
<event>
 7    1  0.5005325E-012  0.5052886E+02  0.7816164E-02  0.1300439E+00
        -11   -1    0    0    0    0  0.00000000000E+00  0.00000000000E+00  0.45593999997E+02  0.45594000000E+02  0.51100000000E-03 0. -1.
         11   -1    0    0    0    0 -0.00000000000E+00 -0.00000000000E+00 -0.45593999997E+02  0.45594000000E+02  0.51100000000E-03 0.  1.
    9900012    2    1    2    0    0  0.13751379654E+02 -0.28867741334E+01 -0.38154051983E+02  0.50528860929E+02  0.30000003280E+02 0.  0.
         12    1    1    2    0    0 -0.13751379654E+02  0.28867741334E+01  0.38154051983E+02  0.40659139071E+02  0.00000000000E+00 0. -1.
         11    1    3    3    0    0  0.62361242448E+01 -0.20033658611E+01  0.19157839325E+01  0.68244376111E+01  0.51100000000E-03 0. -1.
        -11    1    3    3    0    0  0.90587982246E+01  0.53265249284E+01 -0.19355817366E+02  0.22024562634E+02  0.51100000000E-03 0.  1.
        -12    1    3    3    0    0 -0.15435428156E+01 -0.62099332007E+01 -0.20714018550E+02  0.21679860684E+02  0.00000000000E+00 0.  1.
</event>
<event>
 7    1  0.5005325E-012  0.5052886E+02  0.7816164E-02  0.1300439E+00
        -11   -1    0    0    0    0  0.00000000000E+00  0.00000000000E+00  0.45593999997E+02  0.45594000000E+02  0.51100000000E-03 0.  1.
         11   -1    0    0    0    0 -0.00000000000E+00 -0.00000000000E+00 -0.45593999997E+02  0.45594000000E+02  0.51100000000E-03 0. -1.
    9900012    2    1    2    0    0 -0.22405213216E+02  0.30038972712E+02 -0.15774416505E+02  0.50528859860E+02  0.30000000030E+02 0.  0.
         12    1    1    2    0    0  0.22405213216E+02 -0.30038972712E+02  0.15774416505E+02  0.40659140140E+02  0.00000000000E+00 0. -1.
         11    1    3    3    0    0 -0.55356722988E+01 -0.59388766829E+00 -0.41946685449E+01  0.69707685965E+01  0.51100000000E-03 0. -1.
        -11    1    3    3    0    0 -0.16707685568E+02  0.25473437971E+02 -0.17950109142E+02  0.35358863352E+02  0.51100000000E-03 0.  1.
        -12    1    3    3    0    0 -0.16185534942E+00  0.51594224094E+01  0.63703611815E+01  0.81992279110E+01  0.00000000000E+00 0.  1.
</event>
<event>
 7    1  0.5005325E-012  0.5052886E+02  0.7816164E-02  0.1300439E+00
        -11   -1    0    0    0    0  0.00000000000E+00  0.00000000000E+00  0.45593999997E+02  0.45594000000E+02  0.51100000000E-03 0. -1.
         11   -1    0    0    0    0 -0.00000000000E+00 -0.00000000000E+00 -0.45593999997E+02  0.45594000000E+02  0.51100000000E-03 0.  1.
    9900012    2    1    2    0    0  0.13708395826E+02 -0.63265372271E+01 -0.37752095057E+02  0.50528857479E+02  0.29999992792E+02 0.  0.
         12    1    1    2    0    0 -0.13708395826E+02  0.63265372271E+01  0.37752095057E+02  0.40659142521E+02  0.00000000000E+00 0. -1.
         11    1    3    3    0    0  0.10511191192E+02 -0.55553120122E+01 -0.14166325323E+02  0.18494091090E+02  0.51100000000E-03 0.  1.
        -11    1    3    3    0    0  0.46157088128E+01 -0.12580915334E+01 -0.27463525095E+02  0.27877101231E+02  0.51100000000E-03 0. -1.
         12    1    3    3    0    0 -0.14185041797E+01  0.48686631849E+00  0.38777553609E+01  0.41576651572E+01  0.00000000000E+00 0. -1.
</event>
<event>
 7    1  0.5005325E-012  0.5052886E+02  0.7816164E-02  0.1300439E+00
        -11   -1    0    0    0    0  0.00000000000E+00  0.00000000000E+00  0.45593999997E+02  0.45594000000E+02  0.51100000000E-03 0. -1.
         11   -1    0    0    0    0 -0.00000000000E+00 -0.00000000000E+00 -0.45593999997E+02  0.45594000000E+02  0.51100000000E-03 0.  1.
    9900012    2    1    2    0    0 -0.39072398800E+01  0.83083057258E+01  0.39608980589E+02  0.50528858214E+02  0.29999995027E+02 0.  0.
        -12    1    1    2    0    0  0.39072398800E+01 -0.83083057258E+01 -0.39608980589E+02  0.40659141786E+02  0.00000000000E+00 0.  1.
         11    1    3    3    0    0 -0.22729686211E+01  0.30313667934E+01  0.20957330775E+02  0.21297072204E+02  0.51100000000E-03 0. -1.
        -11    1    3    3    0    0 -0.10887001771E+02  0.71686946263E+01  0.10083280070E+02  0.16479973527E+02  0.51100000000E-03 0.  1.
        -12    1    3    3    0    0  0.92527305123E+01 -0.18917556939E+01  0.85683697438E+01  0.12751812483E+02  0.00000000000E+00 0.  1.
</event>
<event>
 7    1  0.5005325E-012  0.5052886E+02  0.7816164E-02  0.1300439E+00
        -11   -1    0    0    0    0  0.00000000000E+00  0.00000000000E+00  0.45593999997E+02  0.45594000000E+02  0.51100000000E-03 0. -1.
         11   -1    0    0    0    0 -0.00000000000E+00 -0.00000000000E+00 -0.45593999997E+02  0.45594000000E+02  0.51100000000E-03 0.  1.
    9900012    2    1    2    0    0 -0.22090975297E+02 -0.21604419877E+02  0.26427321788E+02  0.50528862224E+02  0.30000007215E+02 0.  0.
        -12    1    1    2    0    0  0.22090975297E+02  0.21604419877E+02 -0.26427321788E+02  0.40659137776E+02  0.00000000000E+00 0.  1.
         11    1    3    3    0    0 -0.15027020672E+02 -0.12228899621E+02  0.23555179741E+02  0.30499243091E+02  0.51100000000E-03 0. -1.
        -11    1    3    3    0    0  0.40361496765E+01 -0.33836876746E+01  0.49708319143E+01  0.72421693347E+01  0.51100000000E-03 0.  1.
         12    1    3    3    0    0 -0.11100104301E+02 -0.59918325811E+01 -0.20986898665E+01  0.12787449798E+02  0.00000000000E+00 0. -1.
</event>
<event>
 7    1  0.5005325E-012  0.5052886E+02  0.7816164E-02  0.1300439E+00
        -11   -1    0    0    0    0  0.00000000000E+00  0.00000000000E+00  0.45593999997E+02  0.45594000000E+02  0.51100000000E-03 0. -1.
         11   -1    0    0    0    0 -0.00000000000E+00 -0.00000000000E+00 -0.45593999997E+02  0.45594000000E+02  0.51100000000E-03 0.  1.
    9900012    2    1    2    0    0  0.24982059630E+02  0.27224897375E+02  0.16966662055E+02  0.50528856358E+02  0.29999989386E+02 0.  0.
        -12    1    1    2    0    0 -0.24982059630E+02 -0.27224897375E+02 -0.16966662055E+02  0.40659143642E+02  0.00000000000E+00 0.  1.
         11    1    3    3    0    0  0.17077759139E+02  0.87304152102E+01  0.22972448174E+01  0.19317022053E+02  0.51100000000E-03 0. -1.
        -11    1    3    3    0    0 -0.45331102463E+01  0.29306942746E+01 -0.14446527898E+01  0.55879405312E+01  0.51100000000E-03 0.  1.
         12    1    3    3    0    0  0.12437410737E+02  0.15563787890E+02  0.16114070027E+02  0.25623893774E+02  0.00000000000E+00 0. -1.
</event>
<event>
 7    1  0.5005325E-012  0.5052885E+02  0.7816164E-02  0.1300439E+00
        -11   -1    0    0    0    0  0.00000000000E+00  0.00000000000E+00  0.45593999997E+02  0.45594000000E+02  0.51100000000E-03 0. -1.
         11   -1    0    0    0    0 -0.00000000000E+00 -0.00000000000E+00 -0.45593999997E+02  0.45594000000E+02  0.51100000000E-03 0.  1.
    9900012    2    1    2    0    0  0.54285713238E+01 -0.14631390512E+02  0.37544901984E+02  0.50528848018E+02  0.29999964036E+02 0.  0.
        -12    1    1    2    0    0 -0.54285713238E+01  0.14631390512E+02 -0.37544901984E+02  0.40659151982E+02  0.00000000000E+00 0.  1.
         11    1    3    3    0    0 -0.58037957893E-01 -0.16127862690E+02  0.94179486130E+01  0.18676431128E+02  0.51100000000E-03 0.  1.
        -11    1    3    3    0    0  0.72155228221E+01 -0.44906837264E+01  0.13488653951E+02  0.15942828971E+02  0.51100000000E-03 0. -1.
        -12    1    3    3    0    0 -0.17289135404E+01  0.59871559043E+01  0.14638299420E+02  0.15909587919E+02  0.00000000000E+00 0.  1.
</event>
<event>
 7    1  0.5005325E-012  0.5052887E+02  0.7816164E-02  0.1300439E+00
        -11   -1    0    0    0    0  0.00000000000E+00  0.00000000000E+00  0.45593999997E+02  0.45594000000E+02  0.51100000000E-03 0.  1.
         11   -1    0    0    0    0 -0.00000000000E+00 -0.00000000000E+00 -0.45593999997E+02  0.45594000000E+02  0.51100000000E-03 0. -1.
    9900012    2    1    2    0    0 -0.30097309455E+02  0.16922880747E+02 -0.21469350569E+02  0.50528868885E+02  0.30000027462E+02 0.  0.
         12    1    1    2    0    0  0.30097309455E+02 -0.16922880747E+02  0.21469350569E+02  0.40659131115E+02  0.00000000000E+00 0. -1.
         11    1    3    3    0    0 -0.12967419408E+01 -0.24940735782E+01 -0.53576452836E+01  0.60503145307E+01  0.51100000000E-03 0. -1.
        -11    1    3    3    0    0 -0.60081558271E+01  0.12429369489E+02 -0.15324777188E+02  0.20626098963E+02  0.51100000000E-03 0.  1.
        -12    1    3    3    0    0 -0.22792411687E+02  0.69875848360E+01 -0.78692809795E+00  0.23852455391E+02  0.00000000000E+00 0.  1.
</event>
<event>
 7    1  0.5005325E-012  0.5052887E+02  0.7816164E-02  0.1300439E+00
        -11   -1    0    0    0    0  0.00000000000E+00  0.00000000000E+00  0.45593999997E+02  0.45594000000E+02  0.51100000000E-03 0. -1.
         11   -1    0    0    0    0 -0.00000000000E+00 -0.00000000000E+00 -0.45593999997E+02  0.45594000000E+02  0.51100000000E-03 0.  1.
    9900012    2    1    2    0    0  0.12070166798E+02 -0.32995143065E+01 -0.38685772564E+02  0.50528871627E+02  0.30000035798E+02 0.  0.
         12    1    1    2    0    0 -0.12070166798E+02  0.32995143065E+01  0.38685772564E+02  0.40659128373E+02  0.00000000000E+00 0. -1.
         11    1    3    3    0    0 -0.20371590719E+01  0.25632014776E+00 -0.24059327908E+02  0.24146779842E+02  0.51100000000E-03 0. -1.
        -11    1    3    3    0    0  0.13705132774E+02  0.10003692748E+01 -0.16470748182E+02  0.21450336803E+02  0.51100000000E-03 0.  1.
         12    1    3    3    0    0  0.40219309650E+00 -0.45562037291E+01  0.18443035262E+01  0.49317549822E+01  0.00000000000E+00 0. -1.
</event>
<event>
 7    1  0.5005325E-012  0.5052890E+02  0.7816164E-02  0.1300439E+00
        -11   -1    0    0    0    0  0.00000000000E+00  0.00000000000E+00  0.45593999997E+02  0.45594000000E+02  0.51100000000E-03 0. -1.
         11   -1    0    0    0    0 -0.00000000000E+00 -0.00000000000E+00 -0.45593999997E+02  0.45594000000E+02  0.51100000000E-03 0.  1.
    9900012    2    1    2    0    0 -0.12077250878E+02 -0.87638192768E+01 -0.37821920363E+02  0.50528902899E+02  0.30000130852E+02 0.  0.
         12    1    1    2    0    0  0.12077250878E+02  0.87638192768E+01  0.37821920363E+02  0.40659097101E+02  0.00000000000E+00 0. -1.
         11    1    3    3    0    0 -0.13189561234E+02 -0.62114919079E+01 -0.56419103585E+01  0.15632604070E+02  0.51100000000E-03 0. -1.
        -11    1    3    3    0    0 -0.27335526026E+01  0.45053718850E+01 -0.99763502650E+01  0.11282652637E+02  0.51100000000E-03 0.  1.
         12    1    3    3    0    0  0.38458629582E+01 -0.70576992539E+01 -0.22203659740E+02  0.23613646192E+02  0.00000000000E+00 0. -1.
</event>
<event>
 7    1  0.5005325E-012  0.5052885E+02  0.7816164E-02  0.1300439E+00
        -11   -1    0    0    0    0  0.00000000000E+00  0.00000000000E+00  0.45593999997E+02  0.45594000000E+02  0.51100000000E-03 0.  1.
         11   -1    0    0    0    0 -0.00000000000E+00 -0.00000000000E+00 -0.45593999997E+02  0.45594000000E+02  0.51100000000E-03 0. -1.
    9900012    2    1    2    0    0 -0.19906013572E+02 -0.29499470377E+02 -0.19664654155E+02  0.50528846640E+02  0.29999959848E+02 0.  0.
         12    1    1    2    0    0  0.19906013572E+02  0.29499470377E+02  0.19664654155E+02  0.40659153360E+02  0.00000000000E+00 0. -1.
         11    1    3    3    0    0 -0.64939218006E+01 -0.68571064324E+01 -0.11288399743E+02  0.14717978733E+02  0.51100000000E-03 0. -1.
        -11    1    3    3    0    0 -0.18365759888E+02 -0.93299570962E+01 -0.44661898519E+01  0.21078332186E+02  0.51100000000E-03 0.  1.
         12    1    3    3    0    0  0.49536681161E+01 -0.13312406849E+02 -0.39100645602E+01  0.14732535721E+02  0.00000000000E+00 0. -1.
</event>
<event>
 7    1  0.5005325E-012  0.5052887E+02  0.7816164E-02  0.1300439E+00
        -11   -1    0    0    0    0  0.00000000000E+00  0.00000000000E+00  0.45593999997E+02  0.45594000000E+02  0.51100000000E-03 0. -1.
         11   -1    0    0    0    0 -0.00000000000E+00 -0.00000000000E+00 -0.45593999997E+02  0.45594000000E+02  0.51100000000E-03 0.  1.
    9900012    2    1    2    0    0 -0.56084528100E+01 -0.56249600674E+00  0.40266529963E+02  0.50528873350E+02  0.30000041035E+02 0.  0.
        -12    1    1    2    0    0  0.56084528100E+01  0.56249600674E+00 -0.40266529963E+02  0.40659126650E+02  0.00000000000E+00 0.  1.
         11    1    3    3    0    0 -0.78427687061E+01  0.38799447112E+01  0.98411095517E+01  0.13168539380E+02  0.51100000000E-03 0. -1.
        -11    1    3    3    0    0 -0.83954925491E+01 -0.96405316243E+00  0.21334640951E+02  0.22947344038E+02  0.51100000000E-03 0.  1.
        -12    1    3    3    0    0  0.10629808445E+02 -0.34783875555E+01  0.90907794603E+01  0.14412989932E+02  0.00000000000E+00 0.  1.
</event>
<event>
 7    1  0.5005325E-012  0.5052886E+02  0.7816164E-02  0.1300439E+00
        -11   -1    0    0    0    0  0.00000000000E+00  0.00000000000E+00  0.45593999997E+02  0.45594000000E+02  0.51100000000E-03 0. -1.
         11   -1    0    0    0    0 -0.00000000000E+00 -0.00000000000E+00 -0.45593999997E+02  0.45594000000E+02  0.51100000000E-03 0.  1.
    9900012    2    1    2    0    0 -0.32527151534E+01  0.38885523364E+02 -0.11423731162E+02  0.50528859369E+02  0.29999998538E+02 0.  0.
         12    1    1    2    0    0  0.32527151534E+01 -0.38885523364E+02  0.11423731162E+02  0.40659140631E+02  0.00000000000E+00 0. -1.
         11    1    3    3    0    0 -0.75929356456E+01  0.33217720857E+01  0.15098010796E+01  0.84241522463E+01  0.51100000000E-03 0. -1.
        -11    1    3    3    0    0 -0.55337095422E+01  0.23044357847E+02 -0.10705415873E+02  0.26005197541E+02  0.51100000000E-03 0.  1.
         12    1    3    3    0    0  0.98739300345E+01  0.12519393431E+02 -0.22281163689E+01  0.16099509582E+02  0.00000000000E+00 0. -1.
</event>
<event>
 7    1  0.5005325E-012  0.5052888E+02  0.7816164E-02  0.1300439E+00
        -11   -1    0    0    0    0  0.00000000000E+00  0.00000000000E+00  0.45593999997E+02  0.45594000000E+02  0.51100000000E-03 0. -1.
         11   -1    0    0    0    0 -0.00000000000E+00 -0.00000000000E+00 -0.45593999997E+02  0.45594000000E+02  0.51100000000E-03 0.  1.
    9900012    2    1    2    0    0  0.16393110118E+02  0.26797170743E+02 -0.25813597188E+02  0.50528877789E+02  0.30000054528E+02 0.  0.
         12    1    1    2    0    0 -0.16393110118E+02 -0.26797170743E+02  0.25813597188E+02  0.40659122211E+02  0.00000000000E+00 0. -1.
         11    1    3    3    0    0  0.33556470962E+01  0.96291767986E+01 -0.21567797839E+02  0.23856892445E+02  0.51100000000E-03 0. -1.
        -11    1    3    3    0    0  0.86950644445E+01  0.42930989860E+01 -0.80046750176E+01  0.12574166652E+02  0.51100000000E-03 0.  1.
         12    1    3    3    0    0  0.43423985777E+01  0.12874894958E+02  0.37588756684E+01  0.14097818692E+02  0.00000000000E+00 0. -1.
</event>
<event>
 7    1  0.5005325E-012  0.5052886E+02  0.7816164E-02  0.1300439E+00
        -11   -1    0    0    0    0  0.00000000000E+00  0.00000000000E+00  0.45593999997E+02  0.45594000000E+02  0.51100000000E-03 0. -1.
         11   -1    0    0    0    0 -0.00000000000E+00 -0.00000000000E+00 -0.45593999997E+02  0.45594000000E+02  0.51100000000E-03 0.  1.
    9900012    2    1    2    0    0  0.66272036733E+01 -0.30289867988E+02 -0.26301509323E+02  0.50528864201E+02  0.30000013225E+02 0.  0.
         12    1    1    2    0    0 -0.66272036733E+01  0.30289867988E+02  0.26301509323E+02  0.40659135799E+02  0.00000000000E+00 0. -1.
         11    1    3    3    0    0  0.67459418095E+01 -0.33364458427E+01 -0.75774830786E+01  0.10679787068E+02  0.51100000000E-03 0. -1.
        -11    1    3    3    0    0  0.11597576621E+01 -0.19600378042E+02 -0.23776968797E+02  0.30836084425E+02  0.51100000000E-03 0.  1.
         12    1    3    3    0    0 -0.12784957983E+01 -0.73530441037E+01  0.50529425530E+01  0.90129927073E+01  0.00000000000E+00 0. -1.
</event>
<event>
 7    1  0.5005325E-012  0.5052886E+02  0.7816164E-02  0.1300439E+00
        -11   -1    0    0    0    0  0.00000000000E+00  0.00000000000E+00  0.45593999997E+02  0.45594000000E+02  0.51100000000E-03 0. -1.
         11   -1    0    0    0    0 -0.00000000000E+00 -0.00000000000E+00 -0.45593999997E+02  0.45594000000E+02  0.51100000000E-03 0.  1.
    9900012    2    1    2    0    0  0.36422970933E+02  0.84460371391E+01 -0.15974901549E+02  0.50528857923E+02  0.29999994142E+02 0.  0.
         12    1    1    2    0    0 -0.36422970933E+02 -0.84460371391E+01  0.15974901549E+02  0.40659142077E+02  0.00000000000E+00 0. -1.
         11    1    3    3    0    0  0.11844103286E+02  0.86483723834E+01 -0.77869062538E+01  0.16604608902E+02  0.51100000000E-03 0.  1.
        -11    1    3    3    0    0  0.30826322924E+01  0.94114620470E+00 -0.11679713746E+02  0.12116273828E+02  0.51100000000E-03 0. -1.
         12    1    3    3    0    0  0.21496235355E+02 -0.11434814490E+01  0.34917184510E+01  0.21807975193E+02  0.00000000000E+00 0. -1.
</event>
<event>
 7    1  0.5005325E-012  0.5052886E+02  0.7816164E-02  0.1300439E+00
        -11   -1    0    0    0    0  0.00000000000E+00  0.00000000000E+00  0.45593999997E+02  0.45594000000E+02  0.51100000000E-03 0. -1.
         11   -1    0    0    0    0 -0.00000000000E+00 -0.00000000000E+00 -0.45593999997E+02  0.45594000000E+02  0.51100000000E-03 0.  1.
    9900012    2    1    2    0    0 -0.79329243460E+01 -0.12029938501E+02  0.38019930932E+02  0.50528857644E+02  0.29999993296E+02 0.  0.
        -12    1    1    2    0    0  0.79329243460E+01  0.12029938501E+02 -0.38019930932E+02  0.40659142356E+02  0.00000000000E+00 0.  1.
         11    1    3    3    0    0 -0.68772118083E+01 -0.16034698157E+02  0.15476174412E+02  0.23322083139E+02  0.51100000000E-03 0. -1.
        -11    1    3    3    0    0 -0.44081812570E+01  0.31789256908E+01  0.11744070767E+01  0.55602934082E+01  0.51100000000E-03 0.  1.
         12    1    3    3    0    0  0.33524687193E+01  0.82583396515E+00  0.21369349444E+02  0.21646481097E+02  0.00000000000E+00 0. -1.
</event>
<event>
 7    1  0.5005325E-012  0.5052886E+02  0.7816164E-02  0.1300439E+00
        -11   -1    0    0    0    0  0.00000000000E+00  0.00000000000E+00  0.45593999997E+02  0.45594000000E+02  0.51100000000E-03 0. -1.
         11   -1    0    0    0    0 -0.00000000000E+00 -0.00000000000E+00 -0.45593999997E+02  0.45594000000E+02  0.51100000000E-03 0.  1.
    9900012    2    1    2    0    0  0.98757236658E+01  0.39020459739E+02 -0.57480075274E+01  0.50528858510E+02  0.29999995926E+02 0.  0.
        -12    1    1    2    0    0 -0.98757236658E+01 -0.39020459739E+02  0.57480075274E+01  0.40659141490E+02  0.00000000000E+00 0.  1.
         11    1    3    3    0    0  0.15930879732E+00  0.28833833409E+01  0.29532076838E+01  0.41304617984E+01  0.51100000000E-03 0. -1.
        -11    1    3    3    0    0 -0.75393430273E+01  0.12349903770E+02  0.29833957587E+01  0.14773708638E+02  0.51100000000E-03 0.  1.
         12    1    3    3    0    0  0.17255757896E+02  0.23787172628E+02 -0.11684610970E+02  0.31624688073E+02  0.00000000000E+00 0. -1.
</event>
<event>
 7    1  0.5488190E-012  0.5052888E+02  0.7816164E-02  0.1300439E+00
        -11   -1    0    0    0    0  0.00000000000E+00  0.00000000000E+00  0.45593999997E+02  0.45594000000E+02  0.51100000000E-03 0. -1.
         11   -1    0    0    0    0 -0.00000000000E+00 -0.00000000000E+00 -0.45593999997E+02  0.45594000000E+02  0.51100000000E-03 0.  1.
    9900012    2    1    2    0    0 -0.15396891533E+02  0.26736053325E+02  0.26481752705E+02  0.50528879958E+02  0.30000061119E+02 0.  0.
        -12    1    1    2    0    0  0.15396891533E+02 -0.26736053325E+02 -0.26481752705E+02  0.40659120042E+02  0.00000000000E+00 0.  1.
         11    1    3    3    0    0 -0.46801296982E+01  0.20120619033E+02  0.15170149401E+02  0.25629599243E+02  0.51100000000E-03 0. -1.
        -11    1    3    3    0    0 -0.73259222137E+01  0.67372900798E+01 -0.28371443127E+01  0.10349376890E+02  0.51100000000E-03 0.  1.
        -12    1    3    3    0    0 -0.33908396209E+01 -0.12185578755E+00  0.14148747618E+02  0.14549903825E+02  0.00000000000E+00 0.  1.
</event>
<event>
 7    1  0.5005325E-012  0.5052886E+02  0.7816164E-02  0.1300439E+00
        -11   -1    0    0    0    0  0.00000000000E+00  0.00000000000E+00  0.45593999997E+02  0.45594000000E+02  0.51100000000E-03 0. -1.
         11   -1    0    0    0    0 -0.00000000000E+00 -0.00000000000E+00 -0.45593999997E+02  0.45594000000E+02  0.51100000000E-03 0.  1.
    9900012    2    1    2    0    0  0.13352544411E+02  0.30987676267E+02 -0.22685663186E+02  0.50528857893E+02  0.29999994053E+02 0.  0.
         12    1    1    2    0    0 -0.13352544411E+02 -0.30987676267E+02  0.22685663186E+02  0.40659142107E+02  0.00000000000E+00 0. -1.
         11    1    3    3    0    0  0.63812193528E+01  0.46974141460E+01 -0.72297506138E+01  0.10726367246E+02  0.51100000000E-03 0. -1.
        -11    1    3    3    0    0  0.92432091049E+01  0.81089789957E+01 -0.17476560505E+02  0.21368730010E+02  0.51100000000E-03 0.  1.
         12    1    3    3    0    0 -0.22718840465E+01  0.18181283125E+02  0.20206479323E+01  0.18433760638E+02  0.00000000000E+00 0. -1.
</event>
<event>
 7    1  0.6916552E-012  0.5052886E+02  0.7816164E-02  0.1300439E+00
        -11   -1    0    0    0    0  0.00000000000E+00  0.00000000000E+00  0.45593999997E+02  0.45594000000E+02  0.51100000000E-03 0. -1.
         11   -1    0    0    0    0 -0.00000000000E+00 -0.00000000000E+00 -0.45593999997E+02  0.45594000000E+02  0.51100000000E-03 0.  1.
    9900012    2    1    2    0    0  0.23813878087E+02 -0.17105835959E+02  0.28168331247E+02  0.50528864512E+02  0.30000014170E+02 0.  0.
        -12    1    1    2    0    0 -0.23813878087E+02  0.17105835959E+02 -0.28168331247E+02  0.40659135488E+02  0.00000000000E+00 0.  1.
         11    1    3    3    0    0  0.14427133308E+02 -0.12673069335E+02  0.13362948728E+02  0.23394812691E+02  0.51100000000E-03 0. -1.
        -11    1    3    3    0    0 -0.11042391332E+00 -0.66761516352E+01 -0.26115537673E+01  0.71696169659E+01  0.51100000000E-03 0.  1.
        -12    1    3    3    0    0  0.94971686923E+01  0.22433850111E+01  0.17416936286E+02  0.19964434855E+02  0.00000000000E+00 0.  1.
</event>
<event>
 7    1  0.5005325E-012  0.5052886E+02  0.7816164E-02  0.1300439E+00
        -11   -1    0    0    0    0  0.00000000000E+00  0.00000000000E+00  0.45593999997E+02  0.45594000000E+02  0.51100000000E-03 0. -1.
         11   -1    0    0    0    0 -0.00000000000E+00 -0.00000000000E+00 -0.45593999997E+02  0.45594000000E+02  0.51100000000E-03 0.  1.
    9900012    2    1    2    0    0 -0.25825363512E+02  0.40917001349E+01 -0.31136377005E+02  0.50528863468E+02  0.30000010998E+02 0.  0.
         12    1    1    2    0    0  0.25825363512E+02 -0.40917001349E+01  0.31136377005E+02  0.40659136532E+02  0.00000000000E+00 0. -1.
         11    1    3    3    0    0 -0.79820943938E+00 -0.32394175978E+01  0.23560761516E+01  0.40843677326E+01  0.51100000000E-03 0. -1.
        -11    1    3    3    0    0 -0.11752740066E+02 -0.37302607155E+01 -0.23357741996E+02  0.26412607889E+02  0.51100000000E-03 0.  1.
        -12    1    3    3    0    0 -0.13274414007E+02  0.11061378448E+02 -0.10134711160E+02  0.20031887847E+02  0.00000000000E+00 0.  1.
</event>
<event>
 7    1  0.5005325E-012  0.5052887E+02  0.7816164E-02  0.1300439E+00
        -11   -1    0    0    0    0  0.00000000000E+00  0.00000000000E+00  0.45593999997E+02  0.45594000000E+02  0.51100000000E-03 0.  1.
         11   -1    0    0    0    0 -0.00000000000E+00 -0.00000000000E+00 -0.45593999997E+02  0.45594000000E+02  0.51100000000E-03 0. -1.
    9900012    2    1    2    0    0  0.38123388486E+02  0.13852567769E+02 -0.28068560377E+01  0.50528870346E+02  0.30000031903E+02 0.  0.
         12    1    1    2    0    0 -0.38123388486E+02 -0.13852567769E+02  0.28068560377E+01  0.40659129654E+02  0.00000000000E+00 0. -1.
         11    1    3    3    0    0 -0.31335802234E+00  0.39740962384E+01 -0.10509291405E+01  0.41226310145E+01  0.51100000000E-03 0. -1.
        -11    1    3    3    0    0  0.97839317595E+01 -0.27850740451E+00  0.98313915656E+01  0.13872964623E+02  0.51100000000E-03 0.  1.
         12    1    3    3    0    0  0.28652814749E+02  0.10156978935E+02 -0.11587318463E+02  0.32533274708E+02  0.00000000000E+00 0. -1.
</event>
<event>
 7    1  0.5005325E-012  0.5052886E+02  0.7816164E-02  0.1300439E+00
        -11   -1    0    0    0    0  0.00000000000E+00  0.00000000000E+00  0.45593999997E+02  0.45594000000E+02  0.51100000000E-03 0. -1.
         11   -1    0    0    0    0 -0.00000000000E+00 -0.00000000000E+00 -0.45593999997E+02  0.45594000000E+02  0.51100000000E-03 0.  1.
    9900012    2    1    2    0    0  0.53582904322E+01 -0.31867933352E+02 -0.24675680773E+02  0.50528859895E+02  0.30000000136E+02 0.  0.
         12    1    1    2    0    0 -0.53582904322E+01  0.31867933352E+02  0.24675680773E+02  0.40659140105E+02  0.00000000000E+00 0. -1.
         11    1    3    3    0    0  0.84898800842E+01 -0.59009351228E+01  0.99885289881E+00  0.10387338761E+02  0.51100000000E-03 0. -1.
        -11    1    3    3    0    0 -0.53885921839E+01 -0.24334143852E+02 -0.14955421526E+02  0.29066339914E+02  0.51100000000E-03 0.  1.
         12    1    3    3    0    0  0.22570025319E+01 -0.16328543777E+01 -0.10719112146E+02  0.11075181219E+02  0.00000000000E+00 0. -1.
</event>
<event>
 7    1  0.5005325E-012  0.5052886E+02  0.7816164E-02  0.1300439E+00
        -11   -1    0    0    0    0  0.00000000000E+00  0.00000000000E+00  0.45593999997E+02  0.45594000000E+02  0.51100000000E-03 0. -1.
         11   -1    0    0    0    0 -0.00000000000E+00 -0.00000000000E+00 -0.45593999997E+02  0.45594000000E+02  0.51100000000E-03 0.  1.
    9900012    2    1    2    0    0 -0.10302697821E+02 -0.26635898021E+02 -0.28940440475E+02  0.50528859076E+02  0.29999997647E+02 0.  0.
         12    1    1    2    0    0  0.10302697821E+02  0.26635898021E+02  0.28940440475E+02  0.40659140924E+02  0.00000000000E+00 0. -1.
         11    1    3    3    0    0 -0.57200641245E+01  0.35809695381E+01 -0.18132661715E+01  0.69878759928E+01  0.51100000000E-03 0. -1.
        -11    1    3    3    0    0 -0.86065087540E+01 -0.90757261310E+01 -0.91036930657E+01  0.15469907092E+02  0.51100000000E-03 0.  1.
        -12    1    3    3    0    0  0.40238750575E+01 -0.21141141428E+02 -0.18023481238E+02  0.28071075991E+02  0.00000000000E+00 0.  1.
</event>
<event>
 7    1  0.5005325E-012  0.5052887E+02  0.7816164E-02  0.1300439E+00
        -11   -1    0    0    0    0  0.00000000000E+00  0.00000000000E+00  0.45593999997E+02  0.45594000000E+02  0.51100000000E-03 0. -1.
         11   -1    0    0    0    0 -0.00000000000E+00 -0.00000000000E+00 -0.45593999997E+02  0.45594000000E+02  0.51100000000E-03 0.  1.
    9900012    2    1    2    0    0 -0.14718882761E+02 -0.13523896056E+02  0.35406543790E+02  0.50528872889E+02  0.30000039635E+02 0.  0.
        -12    1    1    2    0    0  0.14718882761E+02  0.13523896056E+02 -0.35406543790E+02  0.40659127111E+02  0.00000000000E+00 0.  1.
         11    1    3    3    0    0  0.33150317831E+01 -0.71116120319E+01  0.75923510769E+01  0.10918253365E+02  0.51100000000E-03 0.  1.
        -11    1    3    3    0    0 -0.13308663128E+02  0.21336985733E+01  0.42977560786E+01  0.14147222039E+02  0.51100000000E-03 0. -1.
         12    1    3    3    0    0 -0.47252514160E+01 -0.85459825971E+01  0.23516436634E+02  0.25463397485E+02  0.00000000000E+00 0. -1.
</event>
<event>
 7    1  0.5005325E-012  0.5052884E+02  0.7816164E-02  0.1300439E+00
        -11   -1    0    0    0    0  0.00000000000E+00  0.00000000000E+00  0.45593999997E+02  0.45594000000E+02  0.51100000000E-03 0. -1.
         11   -1    0    0    0    0 -0.00000000000E+00 -0.00000000000E+00 -0.45593999997E+02  0.45594000000E+02  0.51100000000E-03 0.  1.
    9900012    2    1    2    0    0  0.29290370705E+02  0.11615379389E+02  0.25696782543E+02  0.50528837595E+02  0.29999932355E+02 0.  0.
        -12    1    1    2    0    0 -0.29290370705E+02 -0.11615379389E+02 -0.25696782543E+02  0.40659162405E+02  0.00000000000E+00 0.  1.
         11    1    3    3    0    0  0.10558258013E+02 -0.76322053205E+01  0.91777583586E+01  0.15936079163E+02  0.51100000000E-03 0. -1.
        -11    1    3    3    0    0  0.41482257990E+01  0.10706288614E+02  0.12972047418E+02  0.17323579527E+02  0.51100000000E-03 0.  1.
        -12    1    3    3    0    0  0.14583886893E+02  0.85412960953E+01  0.35469767666E+01  0.17269178906E+02  0.00000000000E+00 0.  1.
</event>
<event>
 7    1  0.5005325E-012  0.5052887E+02  0.7816164E-02  0.1300439E+00
        -11   -1    0    0    0    0  0.00000000000E+00  0.00000000000E+00  0.45593999997E+02  0.45594000000E+02  0.51100000000E-03 0. -1.
         11   -1    0    0    0    0 -0.00000000000E+00 -0.00000000000E+00 -0.45593999997E+02  0.45594000000E+02  0.51100000000E-03 0.  1.
    9900012    2    1    2    0    0  0.16678235585E+02  0.19145875492E+01  0.37031547322E+02  0.50528872061E+02  0.30000037117E+02 0.  0.
        -12    1    1    2    0    0 -0.16678235585E+02 -0.19145875492E+01 -0.37031547322E+02  0.40659127939E+02  0.00000000000E+00 0.  1.
         11    1    3    3    0    0  0.56332646067E+01  0.11662489989E+02  0.21126463856E+02  0.24780533049E+02  0.51100000000E-03 0. -1.
        -11    1    3    3    0    0  0.62682952527E+01  0.43509244303E-01 -0.23808173797E+00  0.62729659337E+01  0.51100000000E-03 0.  1.
         12    1    3    3    0    0  0.47766757257E+01 -0.97914116838E+01  0.16143165204E+02  0.19475373078E+02  0.00000000000E+00 0. -1.
</event>
<event>
 7    1  0.5005325E-012  0.5052886E+02  0.7816164E-02  0.1300439E+00
        -11   -1    0    0    0    0  0.00000000000E+00  0.00000000000E+00  0.45593999997E+02  0.45594000000E+02  0.51100000000E-03 0. -1.
         11   -1    0    0    0    0 -0.00000000000E+00 -0.00000000000E+00 -0.45593999997E+02  0.45594000000E+02  0.51100000000E-03 0.  1.
    9900012    2    1    2    0    0 -0.14122510209E+02  0.16352440823E+01 -0.38092607533E+02  0.50528855070E+02  0.29999985471E+02 0.  0.
         12    1    1    2    0    0  0.14122510209E+02 -0.16352440823E+01  0.38092607533E+02  0.40659144930E+02  0.00000000000E+00 0. -1.
         11    1    3    3    0    0  0.23510259464E+01 -0.71360162624E+01 -0.29059944840E+01  0.80557343116E+01  0.51100000000E-03 0. -1.
        -11    1    3    3    0    0 -0.57875607656E+00  0.12540390863E+01 -0.17428214053E+02  0.17482854972E+02  0.51100000000E-03 0.  1.
        -12    1    3    3    0    0 -0.15894780079E+02  0.75172212583E+01 -0.17758398996E+02  0.24990265787E+02  0.00000000000E+00 0.  1.
</event>
<event>
 7    1  0.5005325E-012  0.5052886E+02  0.7816164E-02  0.1300439E+00
        -11   -1    0    0    0    0  0.00000000000E+00  0.00000000000E+00  0.45593999997E+02  0.45594000000E+02  0.51100000000E-03 0. -1.
         11   -1    0    0    0    0 -0.00000000000E+00 -0.00000000000E+00 -0.45593999997E+02  0.45594000000E+02  0.51100000000E-03 0.  1.
    9900012    2    1    2    0    0  0.29778302738E+02 -0.15732035951E+02 -0.22779849337E+02  0.50528858286E+02  0.29999995247E+02 0.  0.
         12    1    1    2    0    0 -0.29778302738E+02  0.15732035951E+02  0.22779849337E+02  0.40659141714E+02  0.00000000000E+00 0. -1.
         11    1    3    3    0    0  0.16572110975E+02 -0.59186213758E+01  0.29861520868E+00  0.17599832740E+02  0.51100000000E-03 0. -1.
        -11    1    3    3    0    0  0.17186166813E+02 -0.69462100875E+01 -0.19064917889E+02  0.26591074794E+02  0.51100000000E-03 0.  1.
        -12    1    3    3    0    0 -0.39799750508E+01 -0.28672044880E+01 -0.40135466565E+01  0.63379507528E+01  0.00000000000E+00 0.  1.
</event>
<event>
 7    1  0.5005325E-012  0.5052887E+02  0.7816164E-02  0.1300439E+00
        -11   -1    0    0    0    0  0.00000000000E+00  0.00000000000E+00  0.45593999997E+02  0.45594000000E+02  0.51100000000E-03 0. -1.
         11   -1    0    0    0    0 -0.00000000000E+00 -0.00000000000E+00 -0.45593999997E+02  0.45594000000E+02  0.51100000000E-03 0.  1.
    9900012    2    1    2    0    0  0.23803869457E+02 -0.68064824922E+00 -0.32955687259E+02  0.50528870572E+02  0.30000032590E+02 0.  0.
         12    1    1    2    0    0 -0.23803869457E+02  0.68064824922E+00  0.32955687259E+02  0.40659129428E+02  0.00000000000E+00 0. -1.
         11    1    3    3    0    0  0.52009015336E+01  0.59541524073E+01 -0.37792040424E+01  0.87626303760E+01  0.51100000000E-03 0. -1.
        -11    1    3    3    0    0  0.10443392189E+02  0.77250928548E+01 -0.95951164656E+01  0.16149543655E+02  0.51100000000E-03 0.  1.
         12    1    3    3    0    0  0.81595757350E+01 -0.14359893511E+02 -0.19581366751E+02  0.25616696541E+02  0.00000000000E+00 0. -1.
</event>
<event>
 7    1  0.5005325E-012  0.5052885E+02  0.7816164E-02  0.1300439E+00
        -11   -1    0    0    0    0  0.00000000000E+00  0.00000000000E+00  0.45593999997E+02  0.45594000000E+02  0.51100000000E-03 0. -1.
         11   -1    0    0    0    0 -0.00000000000E+00 -0.00000000000E+00 -0.45593999997E+02  0.45594000000E+02  0.51100000000E-03 0.  1.
    9900012    2    1    2    0    0 -0.73019063093E+01 -0.18007135684E+02  0.35715422528E+02  0.50528853703E+02  0.29999981315E+02 0.  0.
        -12    1    1    2    0    0  0.73019063093E+01  0.18007135684E+02 -0.35715422528E+02  0.40659146297E+02  0.00000000000E+00 0.  1.
         11    1    3    3    0    0  0.59213140671E+01 -0.10500065110E+02  0.17351455774E+02  0.21127857093E+02  0.51100000000E-03 0. -1.
        -11    1    3    3    0    0 -0.32824957795E+01  0.53717799508E+01  0.77111307292E+01  0.99545133364E+01  0.51100000000E-03 0.  1.
         12    1    3    3    0    0 -0.99407245970E+01 -0.12878850525E+02  0.10652836025E+02  0.19446483274E+02  0.00000000000E+00 0. -1.
</event>
<event>
 7    1  0.5005325E-012  0.5052894E+02  0.7816164E-02  0.1300439E+00
        -11   -1    0    0    0    0  0.00000000000E+00  0.00000000000E+00  0.45593999997E+02  0.45594000000E+02  0.51100000000E-03 0. -1.
         11   -1    0    0    0    0 -0.00000000000E+00 -0.00000000000E+00 -0.45593999997E+02  0.45594000000E+02  0.51100000000E-03 0.  1.
    9900012    2    1    2    0    0  0.11819398531E+02 -0.34667625026E+02 -0.17652670922E+02  0.50528939543E+02  0.30000242234E+02 0.  0.
         12    1    1    2    0    0 -0.11819398531E+02  0.34667625026E+02  0.17652670922E+02  0.40659060457E+02  0.00000000000E+00 0. -1.
         11    1    3    3    0    0  0.78437686401E+01 -0.36463644033E+01 -0.83776168244E+01  0.12041808160E+02  0.51100000000E-03 0. -1.
        -11    1    3    3    0    0  0.16367156433E+01 -0.25920084411E+02 -0.15388658959E+02  0.30188415639E+02  0.51100000000E-03 0.  1.
         12    1    3    3    0    0  0.23389142473E+01 -0.51011762120E+01  0.61136048617E+01  0.82987157444E+01  0.00000000000E+00 0. -1.
</event>
<event>
 7    1  0.5119502E-012  0.5052886E+02  0.7816164E-02  0.1300439E+00
        -11   -1    0    0    0    0  0.00000000000E+00  0.00000000000E+00  0.45593999997E+02  0.45594000000E+02  0.51100000000E-03 0. -1.
         11   -1    0    0    0    0 -0.00000000000E+00 -0.00000000000E+00 -0.45593999997E+02  0.45594000000E+02  0.51100000000E-03 0.  1.
    9900012    2    1    2    0    0  0.17344910991E+02 -0.35633072541E+02  0.90886636962E+01  0.50528860759E+02  0.30000002764E+02 0.  0.
        -12    1    1    2    0    0 -0.17344910991E+02  0.35633072541E+02 -0.90886636962E+01  0.40659139241E+02  0.00000000000E+00 0.  1.
         11    1    3    3    0    0 -0.42760350201E+00 -0.20576408895E+02  0.43611175310E+01  0.21037841955E+02  0.51100000000E-03 0.  1.
        -11    1    3    3    0    0  0.12389042176E+02 -0.18788406522E+02  0.29071662113E+01  0.22692382010E+02  0.51100000000E-03 0. -1.
        -12    1    3    3    0    0  0.53834723174E+01  0.37317428752E+01  0.18203799539E+01  0.67986367939E+01  0.00000000000E+00 0.  1.
</event>
<event>
 7    1  0.5005325E-012  0.5052887E+02  0.7816164E-02  0.1300439E+00
        -11   -1    0    0    0    0  0.00000000000E+00  0.00000000000E+00  0.45593999997E+02  0.45594000000E+02  0.51100000000E-03 0. -1.
         11   -1    0    0    0    0 -0.00000000000E+00 -0.00000000000E+00 -0.45593999997E+02  0.45594000000E+02  0.51100000000E-03 0.  1.
    9900012    2    1    2    0    0 -0.17009471799E+02 -0.21159347607E+01 -0.36869579099E+02  0.50528866048E+02  0.30000018840E+02 0.  0.
         12    1    1    2    0    0  0.17009471799E+02  0.21159347607E+01  0.36869579099E+02  0.40659133952E+02  0.00000000000E+00 0. -1.
         11    1    3    3    0    0 -0.13114637534E+02  0.23143793764E+01 -0.77110045581E+01  0.15388621157E+02  0.51100000000E-03 0. -1.
        -11    1    3    3    0    0 -0.94961664089E+01 -0.66402533066E+01 -0.25711242645E+02  0.28201740000E+02  0.51100000000E-03 0.  1.
         12    1    3    3    0    0  0.56013321442E+01  0.22099391695E+01 -0.34473318959E+01  0.69385048910E+01  0.00000000000E+00 0. -1.
</event>
<event>
 7    1  0.5005325E-012  0.5052886E+02  0.7816164E-02  0.1300439E+00
        -11   -1    0    0    0    0  0.00000000000E+00  0.00000000000E+00  0.45593999997E+02  0.45594000000E+02  0.51100000000E-03 0.  1.
         11   -1    0    0    0    0 -0.00000000000E+00 -0.00000000000E+00 -0.45593999997E+02  0.45594000000E+02  0.51100000000E-03 0. -1.
    9900012    2    1    2    0    0  0.20780142116E+02  0.33901998308E+02 -0.84856358019E+01  0.50528858216E+02  0.29999995032E+02 0.  0.
         12    1    1    2    0    0 -0.20780142116E+02 -0.33901998308E+02  0.84856358019E+01  0.40659141784E+02  0.00000000000E+00 0. -1.
         11    1    3    3    0    0 -0.90469289852E+00  0.53590613121E+01 -0.42290935696E+01  0.68864533738E+01  0.51100000000E-03 0. -1.
        -11    1    3    3    0    0  0.42243871938E+01  0.21747283257E+02  0.50500253418E+01  0.22722071482E+02  0.51100000000E-03 0.  1.
         12    1    3    3    0    0  0.17460447821E+02  0.67956537390E+01 -0.93065675741E+01  0.20920333359E+02  0.00000000000E+00 0. -1.
</event>
<event>
 7    1  0.5005325E-012  0.5052885E+02  0.7816164E-02  0.1300439E+00
        -11   -1    0    0    0    0  0.00000000000E+00  0.00000000000E+00  0.45593999997E+02  0.45594000000E+02  0.51100000000E-03 0. -1.
         11   -1    0    0    0    0 -0.00000000000E+00 -0.00000000000E+00 -0.45593999997E+02  0.45594000000E+02  0.51100000000E-03 0.  1.
    9900012    2    1    2    0    0  0.86981005258E+01  0.12961367556E+01 -0.39696717896E+02  0.50528851768E+02  0.29999975433E+02 0.  0.
         12    1    1    2    0    0 -0.86981005258E+01 -0.12961367556E+01  0.39696717896E+02  0.40659148232E+02  0.00000000000E+00 0. -1.
         11    1    3    3    0    0 -0.55362035397E+01 -0.25521330182E+01 -0.22743916328E+01  0.65065958947E+01  0.51100000000E-03 0. -1.
        -11    1    3    3    0    0  0.13291166232E+02 -0.50623633798E+01 -0.23213042977E+02  0.27223665941E+02  0.51100000000E-03 0.  1.
         12    1    3    3    0    0  0.94313783378E+00  0.89106331536E+01 -0.14209283287E+02  0.16798589932E+02  0.00000000000E+00 0. -1.
</event>
<event>
 7    1  0.5005325E-012  0.5052885E+02  0.7816164E-02  0.1300439E+00
        -11   -1    0    0    0    0  0.00000000000E+00  0.00000000000E+00  0.45593999997E+02  0.45594000000E+02  0.51100000000E-03 0. -1.
         11   -1    0    0    0    0 -0.00000000000E+00 -0.00000000000E+00 -0.45593999997E+02  0.45594000000E+02  0.51100000000E-03 0.  1.
    9900012    2    1    2    0    0 -0.16085639175E+02  0.25800867928E+01 -0.37252678666E+02  0.50528847238E+02  0.29999961663E+02 0.  0.
         12    1    1    2    0    0  0.16085639175E+02 -0.25800867928E+01  0.37252678666E+02  0.40659152762E+02  0.00000000000E+00 0. -1.
         11    1    3    3    0    0 -0.19218086228E+00  0.13641824223E+01  0.26445932040E+01  0.29819122456E+01  0.51100000000E-03 0. -1.
        -11    1    3    3    0    0 -0.60042794897E+01 -0.19662862438E+01 -0.35842522546E+02  0.36395110613E+02  0.51100000000E-03 0.  1.
         12    1    3    3    0    0 -0.98891788233E+01  0.31821906143E+01 -0.40547493245E+01  0.11151824379E+02  0.00000000000E+00 0. -1.
</event>
<event>
 7    1  0.5005325E-012  0.5052888E+02  0.7816164E-02  0.1300439E+00
        -11   -1    0    0    0    0  0.00000000000E+00  0.00000000000E+00  0.45593999997E+02  0.45594000000E+02  0.51100000000E-03 0. -1.
         11   -1    0    0    0    0 -0.00000000000E+00 -0.00000000000E+00 -0.45593999997E+02  0.45594000000E+02  0.51100000000E-03 0.  1.
    9900012    2    1    2    0    0 -0.76964807225E+01 -0.29127774886E+02  0.27303869043E+02  0.50528876177E+02  0.30000049628E+02 0.  0.
        -12    1    1    2    0    0  0.76964807225E+01  0.29127774886E+02 -0.27303869043E+02  0.40659123823E+02  0.00000000000E+00 0.  1.
         11    1    3    3    0    0 -0.95376728585E+01 -0.22164784435E+02  0.79141829772E+01  0.25394471152E+02  0.51100000000E-03 0. -1.
        -11    1    3    3    0    0 -0.16161425587E+01  0.35933203400E+00 -0.18027548502E+01  0.24476440901E+01  0.51100000000E-03 0.  1.
        -12    1    3    3    0    0  0.34573346946E+01 -0.73223224843E+01  0.21192440916E+02  0.22686760935E+02  0.00000000000E+00 0.  1.
</event>
<event>
 7    1  0.5005325E-012  0.5052887E+02  0.7816164E-02  0.1300439E+00
        -11   -1    0    0    0    0  0.00000000000E+00  0.00000000000E+00  0.45593999997E+02  0.45594000000E+02  0.51100000000E-03 0. -1.
         11   -1    0    0    0    0 -0.00000000000E+00 -0.00000000000E+00 -0.45593999997E+02  0.45594000000E+02  0.51100000000E-03 0.  1.
    9900012    2    1    2    0    0 -0.23165649906E+02  0.11615475846E+02  0.31330473080E+02  0.50528866240E+02  0.30000019423E+02 0.  0.
        -12    1    1    2    0    0  0.23165649906E+02 -0.11615475846E+02 -0.31330473080E+02  0.40659133760E+02  0.00000000000E+00 0.  1.
         11    1    3    3    0    0 -0.64816429852E+01  0.60278699975E+01  0.12404551114E+02  0.15238759828E+02  0.51100000000E-03 0. -1.
        -11    1    3    3    0    0 -0.32488219974E+01  0.12467033672E+02  0.27652612986E+01  0.13176814610E+02  0.51100000000E-03 0.  1.
        -12    1    3    3    0    0 -0.13435184924E+02 -0.68794278239E+01  0.16160660668E+02  0.22113291802E+02  0.00000000000E+00 0.  1.
</event>
<event>
 7    1  0.5005325E-012  0.5052886E+02  0.7816164E-02  0.1300439E+00
        -11   -1    0    0    0    0  0.00000000000E+00  0.00000000000E+00  0.45593999997E+02  0.45594000000E+02  0.51100000000E-03 0. -1.
         11   -1    0    0    0    0 -0.00000000000E+00 -0.00000000000E+00 -0.45593999997E+02  0.45594000000E+02  0.51100000000E-03 0.  1.
    9900012    2    1    2    0    0 -0.42765554532E+01  0.83221204271E+01  0.39567902542E+02  0.50528861710E+02  0.30000005654E+02 0.  0.
        -12    1    1    2    0    0  0.42765554532E+01 -0.83221204271E+01 -0.39567902542E+02  0.40659138290E+02  0.00000000000E+00 0.  1.
         11    1    3    3    0    0 -0.25903529210E+01 -0.30697632440E+01  0.17536789629E+02  0.17990896737E+02  0.51100000000E-03 0. -1.
        -11    1    3    3    0    0 -0.10896685448E+02  0.31354212546E+01  0.12824921229E+02  0.17118622170E+02  0.51100000000E-03 0.  1.
         12    1    3    3    0    0  0.92104829159E+01  0.82564624166E+01  0.92061916831E+01  0.15419342803E+02  0.00000000000E+00 0. -1.
</event>
<event>
 7    1  0.5005325E-012  0.5052893E+02  0.7816164E-02  0.1300439E+00
        -11   -1    0    0    0    0  0.00000000000E+00  0.00000000000E+00  0.45593999997E+02  0.45594000000E+02  0.51100000000E-03 0. -1.
         11   -1    0    0    0    0 -0.00000000000E+00 -0.00000000000E+00 -0.45593999997E+02  0.45594000000E+02  0.51100000000E-03 0.  1.
    9900012    2    1    2    0    0 -0.58633852831E+00 -0.32587527801E+02 -0.24307803346E+02  0.50528928877E+02  0.30000209814E+02 0.  0.
         12    1    1    2    0    0  0.58633852831E+00  0.32587527801E+02  0.24307803346E+02  0.40659071123E+02  0.00000000000E+00 0. -1.
         11    1    3    3    0    0  0.96680735970E+01 -0.15007720046E+02 -0.11739879790E+02  0.21366517868E+02  0.51100000000E-03 0. -1.
        -11    1    3    3    0    0 -0.65397287709E+01 -0.17441269595E+02 -0.15653790438E+02  0.24331195877E+02  0.51100000000E-03 0.  1.
        -12    1    3    3    0    0 -0.37146833544E+01 -0.13853815957E+00  0.30858668810E+01  0.48312151320E+01  0.00000000000E+00 0.  1.
</event>
<event>
 7    1  0.5005325E-012  0.5052886E+02  0.7816164E-02  0.1300439E+00
        -11   -1    0    0    0    0  0.00000000000E+00  0.00000000000E+00  0.45593999997E+02  0.45594000000E+02  0.51100000000E-03 0. -1.
         11   -1    0    0    0    0 -0.00000000000E+00 -0.00000000000E+00 -0.45593999997E+02  0.45594000000E+02  0.51100000000E-03 0.  1.
    9900012    2    1    2    0    0  0.23497494894E+02  0.12922935972E+02 -0.30561927481E+02  0.50528856479E+02  0.29999989755E+02 0.  0.
         12    1    1    2    0    0 -0.23497494894E+02 -0.12922935972E+02  0.30561927481E+02  0.40659143521E+02  0.00000000000E+00 0. -1.
         11    1    3    3    0    0  0.29754958656E+01 -0.70598660991E+00 -0.92318364748E+01  0.97251631193E+01  0.51100000000E-03 0. -1.
        -11    1    3    3    0    0  0.75833565669E+01  0.17015620086E+02 -0.20049094295E+02  0.27367952171E+02  0.51100000000E-03 0.  1.
        -12    1    3    3    0    0  0.12938642462E+02 -0.33866975033E+01 -0.12809967120E+01  0.13435741189E+02  0.00000000000E+00 0.  1.
</event>
<event>
 7    1  0.5005325E-012  0.5052887E+02  0.7816164E-02  0.1300439E+00
        -11   -1    0    0    0    0  0.00000000000E+00  0.00000000000E+00  0.45593999997E+02  0.45594000000E+02  0.51100000000E-03 0. -1.
         11   -1    0    0    0    0 -0.00000000000E+00 -0.00000000000E+00 -0.45593999997E+02  0.45594000000E+02  0.51100000000E-03 0.  1.
    9900012    2    1    2    0    0  0.17010284809E+02  0.18211853432E+02 -0.32126995700E+02  0.50528865142E+02  0.30000016084E+02 0.  0.
         12    1    1    2    0    0 -0.17010284809E+02 -0.18211853432E+02  0.32126995700E+02  0.40659134858E+02  0.00000000000E+00 0. -1.
         11    1    3    3    0    0 -0.43825987587E+01  0.44617762295E+01 -0.16653324912E+01  0.64720902009E+01  0.51100000000E-03 0. -1.
        -11    1    3    3    0    0  0.87062015072E+01  0.14346339244E+02 -0.25272975529E+02  0.30337084348E+02  0.51100000000E-03 0.  1.
        -12    1    3    3    0    0  0.12686682060E+02 -0.59626204137E+00 -0.51886876805E+01  0.13719690593E+02  0.00000000000E+00 0.  1.
</event>
<event>
 7    1  0.5005325E-012  0.5052886E+02  0.7816164E-02  0.1300439E+00
        -11   -1    0    0    0    0  0.00000000000E+00  0.00000000000E+00  0.45593999997E+02  0.45594000000E+02  0.51100000000E-03 0. -1.
         11   -1    0    0    0    0 -0.00000000000E+00 -0.00000000000E+00 -0.45593999997E+02  0.45594000000E+02  0.51100000000E-03 0.  1.
    9900012    2    1    2    0    0  0.11681038859E+01  0.21188975286E+02 -0.34681814689E+02  0.50528863137E+02  0.30000009991E+02 0.  0.
         12    1    1    2    0    0 -0.11681038859E+01 -0.21188975286E+02  0.34681814689E+02  0.40659136863E+02  0.00000000000E+00 0. -1.
         11    1    3    3    0    0 -0.46475527006E+00 -0.45982888290E+01  0.14150740558E+01  0.48334969184E+01  0.51100000000E-03 0. -1.
        -11    1    3    3    0    0  0.52816427636E+00  0.35322398188E+01 -0.37171561424E+00  0.35908005235E+01  0.51100000000E-03 0.  1.
        -12    1    3    3    0    0  0.11046948796E+01  0.22255024296E+02 -0.35725173130E+02  0.42104565695E+02  0.00000000000E+00 0.  1.
</event>
<event>
 7    1  0.5005325E-012  0.5052887E+02  0.7816164E-02  0.1300439E+00
        -11   -1    0    0    0    0  0.00000000000E+00  0.00000000000E+00  0.45593999997E+02  0.45594000000E+02  0.51100000000E-03 0. -1.
         11   -1    0    0    0    0 -0.00000000000E+00 -0.00000000000E+00 -0.45593999997E+02  0.45594000000E+02  0.51100000000E-03 0.  1.
    9900012    2    1    2    0    0 -0.17184128796E+02 -0.16223764112E+02  0.33085646412E+02  0.50528870608E+02  0.30000032699E+02 0.  0.
        -12    1    1    2    0    0  0.17184128796E+02  0.16223764112E+02 -0.33085646412E+02  0.40659129392E+02  0.00000000000E+00 0.  1.
         11    1    3    3    0    0  0.99088808548E+00 -0.42385397792E+01  0.12770245692E+02  0.13491710564E+02  0.51100000000E-03 0.  1.
        -11    1    3    3    0    0 -0.20171867680E+02 -0.13804377872E+02  0.22756399955E+02  0.33396389525E+02  0.51100000000E-03 0. -1.
         12    1    3    3    0    0  0.19968507978E+01  0.18191535393E+01 -0.24409992345E+01  0.36407705188E+01  0.00000000000E+00 0. -1.
</event>
<event>
 7    1  0.5005325E-012  0.5052887E+02  0.7816164E-02  0.1300439E+00
        -11   -1    0    0    0    0  0.00000000000E+00  0.00000000000E+00  0.45593999997E+02  0.45594000000E+02  0.51100000000E-03 0. -1.
         11   -1    0    0    0    0 -0.00000000000E+00 -0.00000000000E+00 -0.45593999997E+02  0.45594000000E+02  0.51100000000E-03 0.  1.
    9900012    2    1    2    0    0 -0.36406068061E+02 -0.90521427467E+01  0.15678704669E+02  0.50528869905E+02  0.30000030564E+02 0.  0.
        -12    1    1    2    0    0  0.36406068061E+02  0.90521427467E+01 -0.15678704669E+02  0.40659130095E+02  0.00000000000E+00 0.  1.
         11    1    3    3    0    0 -0.14691647826E+02  0.18881705365E+01  0.11411563280E+02  0.18698488725E+02  0.51100000000E-03 0. -1.
        -11    1    3    3    0    0 -0.34066581475E+01  0.55046534029E+01 -0.12918396139E+01  0.66011649479E+01  0.51100000000E-03 0.  1.
         12    1    3    3    0    0 -0.18307762087E+02 -0.16444966686E+02  0.55589810029E+01  0.25229216233E+02  0.00000000000E+00 0. -1.
</event>
<event>
 7    1  0.5005325E-012  0.5052886E+02  0.7816164E-02  0.1300439E+00
        -11   -1    0    0    0    0  0.00000000000E+00  0.00000000000E+00  0.45593999997E+02  0.45594000000E+02  0.51100000000E-03 0. -1.
         11   -1    0    0    0    0 -0.00000000000E+00 -0.00000000000E+00 -0.45593999997E+02  0.45594000000E+02  0.51100000000E-03 0.  1.
    9900012    2    1    2    0    0  0.26654874345E+02 -0.18984603648E+02 -0.24130229886E+02  0.50528862081E+02  0.30000006780E+02 0.  0.
         12    1    1    2    0    0 -0.26654874345E+02  0.18984603648E+02  0.24130229886E+02  0.40659137919E+02  0.00000000000E+00 0. -1.
         11    1    3    3    0    0  0.40372911351E+00  0.97145953800E+00  0.43003619690E+01  0.44271711235E+01  0.51100000000E-03 0. -1.
        -11    1    3    3    0    0 -0.20801647108E+00 -0.35667657809E+01 -0.82965732755E+01  0.90331731615E+01  0.51100000000E-03 0.  1.
         12    1    3    3    0    0  0.26459161702E+02 -0.16389297405E+02 -0.20134018580E+02  0.37068517796E+02  0.00000000000E+00 0. -1.
</event>
<event>
 7    1  0.5005325E-012  0.5052886E+02  0.7816164E-02  0.1300439E+00
        -11   -1    0    0    0    0  0.00000000000E+00  0.00000000000E+00  0.45593999997E+02  0.45594000000E+02  0.51100000000E-03 0. -1.
         11   -1    0    0    0    0 -0.00000000000E+00 -0.00000000000E+00 -0.45593999997E+02  0.45594000000E+02  0.51100000000E-03 0.  1.
    9900012    2    1    2    0    0 -0.12501452919E+00 -0.31735281076E+02  0.25416960879E+02  0.50528860881E+02  0.30000003134E+02 0.  0.
        -12    1    1    2    0    0  0.12501452919E+00  0.31735281076E+02 -0.25416960879E+02  0.40659139119E+02  0.00000000000E+00 0.  1.
         11    1    3    3    0    0  0.55587447312E+01 -0.66934315667E+01  0.88814780208E+01  0.12433113899E+02  0.51100000000E-03 0. -1.
        -11    1    3    3    0    0 -0.46133802209E+01  0.55313829377E+00  0.10923844969E+02  0.11870957341E+02  0.51100000000E-03 0.  1.
        -12    1    3    3    0    0 -0.10703790395E+01 -0.25594987803E+02  0.56116378895E+01  0.26224789641E+02  0.00000000000E+00 0.  1.
</event>
<event>
 7    1  0.5005325E-012  0.5052891E+02  0.7816164E-02  0.1300439E+00
        -11   -1    0    0    0    0  0.00000000000E+00  0.00000000000E+00  0.45593999997E+02  0.45594000000E+02  0.51100000000E-03 0. -1.
         11   -1    0    0    0    0 -0.00000000000E+00 -0.00000000000E+00 -0.45593999997E+02  0.45594000000E+02  0.51100000000E-03 0.  1.
    9900012    2    1    2    0    0 -0.14506054004E+01  0.14090266251E+02 -0.38111962569E+02  0.50528910612E+02  0.30000154295E+02 0.  0.
         12    1    1    2    0    0  0.14506054004E+01 -0.14090266251E+02  0.38111962569E+02  0.40659089388E+02  0.00000000000E+00 0. -1.
         11    1    3    3    0    0  0.25874153141E+01  0.55030744540E+01 -0.13803276498E+02  0.15083401101E+02  0.51100000000E-03 0. -1.
        -11    1    3    3    0    0  0.69752947804E+01 -0.43094967041E+01 -0.11814230847E+02  0.14380631067E+02  0.51100000000E-03 0.  1.
        -12    1    3    3    0    0 -0.11013315495E+02  0.12896688501E+02 -0.12494455224E+02  0.21064878443E+02  0.00000000000E+00 0.  1.
</event>
<event>
 7    1  0.5005325E-012  0.5052886E+02  0.7816164E-02  0.1300439E+00
        -11   -1    0    0    0    0  0.00000000000E+00  0.00000000000E+00  0.45593999997E+02  0.45594000000E+02  0.51100000000E-03 0. -1.
         11   -1    0    0    0    0 -0.00000000000E+00 -0.00000000000E+00 -0.45593999997E+02  0.45594000000E+02  0.51100000000E-03 0.  1.
    9900012    2    1    2    0    0 -0.64304052616E+01  0.11309751773E+02  0.38521490866E+02  0.50528857664E+02  0.29999993355E+02 0.  0.
        -12    1    1    2    0    0  0.64304052616E+01 -0.11309751773E+02 -0.38521490866E+02  0.40659142336E+02  0.00000000000E+00 0.  1.
         11    1    3    3    0    0 -0.51661106054E+01  0.10637286763E+02  0.29606312400E+02  0.31880625820E+02  0.51100000000E-03 0. -1.
        -11    1    3    3    0    0  0.52262418223E+01 -0.45760387460E+01  0.74274521271E+01  0.10169600757E+02  0.51100000000E-03 0.  1.
         12    1    3    3    0    0 -0.64905364785E+01  0.52485037564E+01  0.14877263385E+01  0.84786310875E+01  0.00000000000E+00 0. -1.
</event>
<event>
 7    1  0.5005325E-012  0.5052881E+02  0.7816164E-02  0.1300439E+00
        -11   -1    0    0    0    0  0.00000000000E+00  0.00000000000E+00  0.45593999997E+02  0.45594000000E+02  0.51100000000E-03 0. -1.
         11   -1    0    0    0    0 -0.00000000000E+00 -0.00000000000E+00 -0.45593999997E+02  0.45594000000E+02  0.51100000000E-03 0.  1.
    9900012    2    1    2    0    0  0.13875097495E+02 -0.19126129054E+02 -0.33088401073E+02  0.50528813723E+02  0.29999859793E+02 0.  0.
         12    1    1    2    0    0 -0.13875097495E+02  0.19126129054E+02  0.33088401073E+02  0.40659186277E+02  0.00000000000E+00 0. -1.
         11    1    3    3    0    0  0.10567959285E+02  0.17897122000E+01 -0.63731341907E+01  0.12470030989E+02  0.51100000000E-03 0. -1.
        -11    1    3    3    0    0 -0.48756435871E+01 -0.42221988436E+01 -0.13162291753E+01  0.65826531859E+01  0.51100000000E-03 0.  1.
        -12    1    3    3    0    0  0.81827817976E+01 -0.16693642410E+02 -0.25399037707E+02  0.31476129548E+02  0.00000000000E+00 0.  1.
</event>
<event>
 7    1  0.5005325E-012  0.5052883E+02  0.7816164E-02  0.1300439E+00
        -11   -1    0    0    0    0  0.00000000000E+00  0.00000000000E+00  0.45593999997E+02  0.45594000000E+02  0.51100000000E-03 0.  1.
         11   -1    0    0    0    0 -0.00000000000E+00 -0.00000000000E+00 -0.45593999997E+02  0.45594000000E+02  0.51100000000E-03 0. -1.
    9900012    2    1    2    0    0  0.19108382105E+02 -0.91087872978E+01 -0.34714092413E+02  0.50528825331E+02  0.29999895075E+02 0.  0.
         12    1    1    2    0    0 -0.19108382105E+02  0.91087872978E+01  0.34714092413E+02  0.40659174669E+02  0.00000000000E+00 0. -1.
         11    1    3    3    0    0  0.85618531701E+00 -0.71603443813E-01  0.23263636460E+01  0.24799492786E+01  0.51100000000E-03 0. -1.
        -11    1    3    3    0    0  0.92564071691E+01 -0.89197503751E+01 -0.34997846745E+01  0.13322594097E+02  0.51100000000E-03 0.  1.
         12    1    3    3    0    0  0.89957896191E+01 -0.11743347883E+00 -0.33540671385E+02  0.34726281955E+02  0.00000000000E+00 0. -1.
</event>
<event>
 7    1  0.5005325E-012  0.5052885E+02  0.7816164E-02  0.1300439E+00
        -11   -1    0    0    0    0  0.00000000000E+00  0.00000000000E+00  0.45593999997E+02  0.45594000000E+02  0.51100000000E-03 0. -1.
         11   -1    0    0    0    0 -0.00000000000E+00 -0.00000000000E+00 -0.45593999997E+02  0.45594000000E+02  0.51100000000E-03 0.  1.
    9900012    2    1    2    0    0  0.47911021215E+01 -0.28243701263E+02  0.28853159644E+02  0.50528854141E+02  0.29999982646E+02 0.  0.
        -12    1    1    2    0    0 -0.47911021215E+01  0.28243701263E+02 -0.28853159644E+02  0.40659145859E+02  0.00000000000E+00 0.  1.
         11    1    3    3    0    0  0.11664358323E+02 -0.19112281039E+02  0.10110876474E+02  0.24567587691E+02  0.51100000000E-03 0. -1.
        -11    1    3    3    0    0  0.25240453383E+01  0.21202104707E+01  0.37481902777E+01  0.49914955603E+01  0.51100000000E-03 0.  1.
         12    1    3    3    0    0 -0.93973015399E+01 -0.11251630695E+02  0.14994092892E+02  0.20969770890E+02  0.00000000000E+00 0. -1.
</event>
<event>
 7    1  0.5005325E-012  0.5052881E+02  0.7816164E-02  0.1300439E+00
        -11   -1    0    0    0    0  0.00000000000E+00  0.00000000000E+00  0.45593999997E+02  0.45594000000E+02  0.51100000000E-03 0. -1.
         11   -1    0    0    0    0 -0.00000000000E+00 -0.00000000000E+00 -0.45593999997E+02  0.45594000000E+02  0.51100000000E-03 0.  1.
    9900012    2    1    2    0    0 -0.35061159527E+02  0.21134989960E+01  0.20479699856E+02  0.50528808031E+02  0.29999842490E+02 0.  0.
        -12    1    1    2    0    0  0.35061159527E+02 -0.21134989960E+01 -0.20479699856E+02  0.40659191969E+02  0.00000000000E+00 0.  1.
         11    1    3    3    0    0 -0.21824723268E+02  0.43167281463E+01  0.18207992926E+01  0.22321917434E+02  0.51100000000E-03 0. -1.
        -11    1    3    3    0    0 -0.13392959310E+02 -0.69408976193E+01  0.93139343662E+01  0.17728417653E+02  0.51100000000E-03 0.  1.
        -12    1    3    3    0    0  0.15652305185E+00  0.47376684690E+01  0.93449661975E+01  0.10478472943E+02  0.00000000000E+00 0.  1.
</event>
<event>
 7    1  0.5005325E-012  0.5052886E+02  0.7816164E-02  0.1300439E+00
        -11   -1    0    0    0    0  0.00000000000E+00  0.00000000000E+00  0.45593999997E+02  0.45594000000E+02  0.51100000000E-03 0. -1.
         11   -1    0    0    0    0 -0.00000000000E+00 -0.00000000000E+00 -0.45593999997E+02  0.45594000000E+02  0.51100000000E-03 0.  1.
    9900012    2    1    2    0    0 -0.14858956534E+02  0.56719250720E+01  0.37419332018E+02  0.50528859183E+02  0.29999997974E+02 0.  0.
        -12    1    1    2    0    0  0.14858956534E+02 -0.56719250720E+01 -0.37419332018E+02  0.40659140817E+02  0.00000000000E+00 0.  1.
         11    1    3    3    0    0 -0.73268448490E+01 -0.43058761404E+01  0.53141417910E+01  0.10023139629E+02  0.51100000000E-03 0. -1.
        -11    1    3    3    0    0 -0.13583121697E+01  0.11141392017E+02  0.43320807069E+01  0.12030899864E+02  0.51100000000E-03 0.  1.
         12    1    3    3    0    0 -0.61737995153E+01 -0.11635908048E+01  0.27773109520E+02  0.28474819691E+02  0.00000000000E+00 0. -1.
</event>
<event>
 7    1  0.5005325E-012  0.5052880E+02  0.7816164E-02  0.1300439E+00
        -11   -1    0    0    0    0  0.00000000000E+00  0.00000000000E+00  0.45593999997E+02  0.45594000000E+02  0.51100000000E-03 0. -1.
         11   -1    0    0    0    0 -0.00000000000E+00 -0.00000000000E+00 -0.45593999997E+02  0.45594000000E+02  0.51100000000E-03 0.  1.
    9900012    2    1    2    0    0 -0.18207241939E+02 -0.34435848863E+02 -0.11654994906E+02  0.50528803596E+02  0.29999829010E+02 0.  0.
         12    1    1    2    0    0  0.18207241939E+02  0.34435848863E+02  0.11654994906E+02  0.40659196404E+02  0.00000000000E+00 0. -1.
         11    1    3    3    0    0 -0.42544002988E+01 -0.22405571575E+01  0.50897860229E+01  0.70018526333E+01  0.51100000000E-03 0. -1.
        -11    1    3    3    0    0 -0.18420667358E+00 -0.20409447884E+01  0.39489126713E+01  0.44489660906E+01  0.51100000000E-03 0.  1.
        -12    1    3    3    0    0 -0.13768634966E+02 -0.30154346918E+02 -0.20693693600E+02  0.39077984872E+02  0.00000000000E+00 0.  1.
</event>
<event>
 7    1  0.5005325E-012  0.5052886E+02  0.7816164E-02  0.1300439E+00
        -11   -1    0    0    0    0  0.00000000000E+00  0.00000000000E+00  0.45593999997E+02  0.45594000000E+02  0.51100000000E-03 0.  1.
         11   -1    0    0    0    0 -0.00000000000E+00 -0.00000000000E+00 -0.45593999997E+02  0.45594000000E+02  0.51100000000E-03 0. -1.
    9900012    2    1    2    0    0  0.32661599765E+02  0.70784838949E+00 -0.24205050019E+02  0.50528860868E+02  0.30000003093E+02 0.  0.
         12    1    1    2    0    0 -0.32661599765E+02 -0.70784838949E+00  0.24205050019E+02  0.40659139132E+02  0.00000000000E+00 0. -1.
         11    1    3    3    0    0  0.13034262860E+02  0.36724738548E+01 -0.22541912359E+01  0.13728089849E+02  0.51100000000E-03 0. -1.
        -11    1    3    3    0    0  0.11877111419E+00  0.50797182752E+01  0.14564562512E+01  0.52857269515E+01  0.51100000000E-03 0.  1.
         12    1    3    3    0    0  0.19508565791E+02 -0.80443437405E+01 -0.23407315034E+02  0.31515044067E+02  0.00000000000E+00 0. -1.
</event>
<event>
 7    1  0.5005325E-012  0.5052886E+02  0.7816164E-02  0.1300439E+00
        -11   -1    0    0    0    0  0.00000000000E+00  0.00000000000E+00  0.45593999997E+02  0.45594000000E+02  0.51100000000E-03 0. -1.
         11   -1    0    0    0    0 -0.00000000000E+00 -0.00000000000E+00 -0.45593999997E+02  0.45594000000E+02  0.51100000000E-03 0.  1.
    9900012    2    1    2    0    0  0.61910079620E+01 -0.13334768662E+02 -0.37908056951E+02  0.50528863060E+02  0.30000009758E+02 0.  0.
         12    1    1    2    0    0 -0.61910079620E+01  0.13334768662E+02  0.37908056951E+02  0.40659136940E+02  0.00000000000E+00 0. -1.
         11    1    3    3    0    0 -0.31729705385E+01 -0.73505794537E+01 -0.21593222375E+02  0.23029676792E+02  0.51100000000E-03 0. -1.
        -11    1    3    3    0    0  0.98760880930E+01 -0.16120473056E+01 -0.19599814779E+02  0.22006557027E+02  0.51100000000E-03 0.  1.
         12    1    3    3    0    0 -0.51210959253E+00 -0.43721419022E+01  0.32849802030E+01  0.54926292413E+01  0.00000000000E+00 0. -1.
</event>
<event>
 7    1  0.5005325E-012  0.5052887E+02  0.7816164E-02  0.1300439E+00
        -11   -1    0    0    0    0  0.00000000000E+00  0.00000000000E+00  0.45593999997E+02  0.45594000000E+02  0.51100000000E-03 0. -1.
         11   -1    0    0    0    0 -0.00000000000E+00 -0.00000000000E+00 -0.45593999997E+02  0.45594000000E+02  0.51100000000E-03 0.  1.
    9900012    2    1    2    0    0 -0.73691919043E+01 -0.54365050459E+01  0.39614445785E+02  0.50528869521E+02  0.30000029396E+02 0.  0.
        -12    1    1    2    0    0  0.73691919043E+01  0.54365050459E+01 -0.39614445785E+02  0.40659130479E+02  0.00000000000E+00 0.  1.
         11    1    3    3    0    0 -0.70220394694E+01 -0.58800916934E+01  0.28367668106E+02  0.29809547308E+02  0.51100000000E-03 0. -1.
        -11    1    3    3    0    0 -0.86443073275E+01 -0.17306370163E+01  0.60147906805E+01  0.10672247226E+02  0.51100000000E-03 0.  1.
         12    1    3    3    0    0  0.82971548926E+01  0.21742236638E+01  0.52319869985E+01  0.10047074988E+02  0.00000000000E+00 0. -1.
</event>
<event>
 7    1  0.5005325E-012  0.5052886E+02  0.7816164E-02  0.1300439E+00
        -11   -1    0    0    0    0  0.00000000000E+00  0.00000000000E+00  0.45593999997E+02  0.45594000000E+02  0.51100000000E-03 0. -1.
         11   -1    0    0    0    0 -0.00000000000E+00 -0.00000000000E+00 -0.45593999997E+02  0.45594000000E+02  0.51100000000E-03 0.  1.
    9900012    2    1    2    0    0  0.38106781388E+01  0.32379273995E+02 -0.24294585876E+02  0.50528861357E+02  0.30000004581E+02 0.  0.
         12    1    1    2    0    0 -0.38106781388E+01 -0.32379273995E+02  0.24294585876E+02  0.40659138643E+02  0.00000000000E+00 0. -1.
         11    1    3    3    0    0  0.13842861052E+01 -0.44238470187E+01 -0.61293181857E+00  0.46757198527E+01  0.51100000000E-03 0. -1.
        -11    1    3    3    0    0  0.51277746629E+01  0.12459655478E+02 -0.30165881969E+01  0.13807131934E+02  0.51100000000E-03 0.  1.
        -12    1    3    3    0    0 -0.27013826294E+01  0.24343465535E+02 -0.20665065860E+02  0.32046009570E+02  0.00000000000E+00 0.  1.
</event>
<event>
 7    1  0.5005325E-012  0.5052884E+02  0.7816164E-02  0.1300439E+00
        -11   -1    0    0    0    0  0.00000000000E+00  0.00000000000E+00  0.45593999997E+02  0.45594000000E+02  0.51100000000E-03 0. -1.
         11   -1    0    0    0    0 -0.00000000000E+00 -0.00000000000E+00 -0.45593999997E+02  0.45594000000E+02  0.51100000000E-03 0.  1.
    9900012    2    1    2    0    0  0.20616194613E+02  0.27171969620E+01 -0.34939325271E+02  0.50528842482E+02  0.29999947208E+02 0.  0.
         12    1    1    2    0    0 -0.20616194613E+02 -0.27171969620E+01  0.34939325271E+02  0.40659157518E+02  0.00000000000E+00 0. -1.
         11    1    3    3    0    0  0.13748368642E+02  0.32080221798E+01 -0.77808917562E+01  0.16119904572E+02  0.51100000000E-03 0. -1.
        -11    1    3    3    0    0  0.11980349961E+02  0.16465896279E+01 -0.26102761966E+02  0.28767937450E+02  0.51100000000E-03 0.  1.
         12    1    3    3    0    0 -0.51125239899E+01 -0.21374148458E+01 -0.10556715489E+01  0.56410004600E+01  0.00000000000E+00 0. -1.
</event>
<event>
 7    1  0.5005325E-012  0.5052886E+02  0.7816164E-02  0.1300439E+00
        -11   -1    0    0    0    0  0.00000000000E+00  0.00000000000E+00  0.45593999997E+02  0.45594000000E+02  0.51100000000E-03 0. -1.
         11   -1    0    0    0    0 -0.00000000000E+00 -0.00000000000E+00 -0.45593999997E+02  0.45594000000E+02  0.51100000000E-03 0.  1.
    9900012    2    1    2    0    0 -0.14748737551E+02  0.23131525663E+02  0.30009545811E+02  0.50528861069E+02  0.30000003704E+02 0.  0.
        -12    1    1    2    0    0  0.14748737551E+02 -0.23131525663E+02 -0.30009545811E+02  0.40659138931E+02  0.00000000000E+00 0.  1.
         11    1    3    3    0    0 -0.50651804948E+01  0.15201963144E+02  0.26555279673E+02  0.31015135268E+02  0.51100000000E-03 0. -1.
        -11    1    3    3    0    0 -0.54112711102E+01 -0.23693905232E+01  0.56221247987E+01  0.81550079088E+01  0.51100000000E-03 0.  1.
         12    1    3    3    0    0 -0.42722859463E+01  0.10298953042E+02 -0.21678586614E+01  0.11358717892E+02  0.00000000000E+00 0. -1.
</event>
<event>
 7    1  0.5005325E-012  0.5052886E+02  0.7816164E-02  0.1300439E+00
        -11   -1    0    0    0    0  0.00000000000E+00  0.00000000000E+00  0.45593999997E+02  0.45594000000E+02  0.51100000000E-03 0. -1.
         11   -1    0    0    0    0 -0.00000000000E+00 -0.00000000000E+00 -0.45593999997E+02  0.45594000000E+02  0.51100000000E-03 0.  1.
    9900012    2    1    2    0    0 -0.23455072031E+02 -0.61506541098E+01 -0.32637316467E+02  0.50528863559E+02  0.30000011273E+02 0.  0.
         12    1    1    2    0    0  0.23455072031E+02  0.61506541098E+01  0.32637316467E+02  0.40659136441E+02  0.00000000000E+00 0. -1.
         11    1    3    3    0    0 -0.22308172675E+01  0.50572563045E+01 -0.18572340056E+02  0.19377414751E+02  0.51100000000E-03 0. -1.
        -11    1    3    3    0    0 -0.84619690540E+01 -0.54131080827E+01 -0.13880426776E+02  0.17133969392E+02  0.51100000000E-03 0.  1.
         12    1    3    3    0    0 -0.12762285710E+02 -0.57948023316E+01 -0.18454963531E+00  0.14017479415E+02  0.00000000000E+00 0. -1.
</event>
<event>
 7    1  0.5005325E-012  0.5052886E+02  0.7816164E-02  0.1300439E+00
        -11   -1    0    0    0    0  0.00000000000E+00  0.00000000000E+00  0.45593999997E+02  0.45594000000E+02  0.51100000000E-03 0. -1.
         11   -1    0    0    0    0 -0.00000000000E+00 -0.00000000000E+00 -0.45593999997E+02  0.45594000000E+02  0.51100000000E-03 0.  1.
    9900012    2    1    2    0    0 -0.13953099329E+02  0.11028537878E+02 -0.36562932595E+02  0.50528859963E+02  0.30000000344E+02 0.  0.
         12    1    1    2    0    0  0.13953099329E+02 -0.11028537878E+02  0.36562932595E+02  0.40659140037E+02  0.00000000000E+00 0. -1.
         11    1    3    3    0    0  0.61259230936E+01  0.43588550364E+01 -0.13960483671E+02  0.15856281265E+02  0.51100000000E-03 0. -1.
        -11    1    3    3    0    0 -0.81021108267E+01 -0.38598890959E+00 -0.18466889490E+02  0.20169759418E+02  0.51100000000E-03 0.  1.
         12    1    3    3    0    0 -0.11976911596E+02  0.70556717510E+01 -0.41355594341E+01  0.14502819280E+02  0.00000000000E+00 0. -1.
</event>
<event>
 7    1  0.5005325E-012  0.5052886E+02  0.7816164E-02  0.1300439E+00
        -11   -1    0    0    0    0  0.00000000000E+00  0.00000000000E+00  0.45593999997E+02  0.45594000000E+02  0.51100000000E-03 0. -1.
         11   -1    0    0    0    0 -0.00000000000E+00 -0.00000000000E+00 -0.45593999997E+02  0.45594000000E+02  0.51100000000E-03 0.  1.
    9900012    2    1    2    0    0 -0.21962115854E+02  0.12835949242E+02 -0.31718596410E+02  0.50528862233E+02  0.30000007243E+02 0.  0.
         12    1    1    2    0    0  0.21962115854E+02 -0.12835949242E+02  0.31718596410E+02  0.40659137767E+02  0.00000000000E+00 0. -1.
         11    1    3    3    0    0  0.28323174303E+01 -0.12650809566E+01 -0.27075456699E+01  0.41174331407E+01  0.51100000000E-03 0. -1.
        -11    1    3    3    0    0 -0.10674380590E+02  0.25349905840E+01  0.12805744558E+01  0.11045743498E+02  0.51100000000E-03 0.  1.
        -12    1    3    3    0    0 -0.14120052695E+02  0.11566039615E+02 -0.30291625196E+02  0.35365685594E+02  0.00000000000E+00 0.  1.
</event>
<event>
 7    1  0.5005325E-012  0.5052885E+02  0.7816164E-02  0.1300439E+00
        -11   -1    0    0    0    0  0.00000000000E+00  0.00000000000E+00  0.45593999997E+02  0.45594000000E+02  0.51100000000E-03 0. -1.
         11   -1    0    0    0    0 -0.00000000000E+00 -0.00000000000E+00 -0.45593999997E+02  0.45594000000E+02  0.51100000000E-03 0.  1.
    9900012    2    1    2    0    0 -0.13035616572E+02  0.22902320803E+02  0.30963256507E+02  0.50528845421E+02  0.29999956141E+02 0.  0.
        -12    1    1    2    0    0  0.13035616572E+02 -0.22902320803E+02 -0.30963256507E+02  0.40659154579E+02  0.00000000000E+00 0.  1.
         11    1    3    3    0    0 -0.89212509212E+01  0.10623378582E+02  0.15268240503E+02  0.20629204027E+02  0.51100000000E-03 0. -1.
        -11    1    3    3    0    0  0.11716044787E+01  0.17779167435E+02  0.11193861598E+02  0.21042195453E+02  0.51100000000E-03 0.  1.
         12    1    3    3    0    0 -0.52859701296E+01 -0.55002252133E+01  0.45011544061E+01  0.88574459409E+01  0.00000000000E+00 0. -1.
</event>
<event>
 7    1  0.5005325E-012  0.5052877E+02  0.7816164E-02  0.1300439E+00
        -11   -1    0    0    0    0  0.00000000000E+00  0.00000000000E+00  0.45593999997E+02  0.45594000000E+02  0.51100000000E-03 0. -1.
         11   -1    0    0    0    0 -0.00000000000E+00 -0.00000000000E+00 -0.45593999997E+02  0.45594000000E+02  0.51100000000E-03 0.  1.
    9900012    2    1    2    0    0 -0.28103440635E+01  0.26400133151E+01  0.40475981246E+02  0.50528772734E+02  0.29999735201E+02 0.  0.
        -12    1    1    2    0    0  0.28103440635E+01 -0.26400133151E+01 -0.40475981246E+02  0.40659227266E+02  0.00000000000E+00 0.  1.
         11    1    3    3    0    0 -0.38283815521E+01 -0.18196466038E+01  0.22831823710E+02  0.23221967903E+02  0.51100000000E-03 0. -1.
        -11    1    3    3    0    0 -0.81494246014E+01  0.64513558186E+01  0.49236848575E+01  0.11501121079E+02  0.51100000000E-03 0.  1.
         12    1    3    3    0    0  0.91674620899E+01 -0.19916958997E+01  0.12720472678E+02  0.15805683752E+02  0.00000000000E+00 0. -1.
</event>
<event>
 7    1  0.5005325E-012  0.5052889E+02  0.7816164E-02  0.1300439E+00
        -11   -1    0    0    0    0  0.00000000000E+00  0.00000000000E+00  0.45593999997E+02  0.45594000000E+02  0.51100000000E-03 0. -1.
         11   -1    0    0    0    0 -0.00000000000E+00 -0.00000000000E+00 -0.45593999997E+02  0.45594000000E+02  0.51100000000E-03 0.  1.
    9900012    2    1    2    0    0 -0.25107956036E+02  0.80155203280E+01 -0.30959740357E+02  0.50528886072E+02  0.30000079705E+02 0.  0.
         12    1    1    2    0    0  0.25107956036E+02 -0.80155203280E+01  0.30959740357E+02  0.40659113928E+02  0.00000000000E+00 0. -1.
         11    1    3    3    0    0 -0.49151639994E+01  0.75707768050E+01 -0.11692874473E+02  0.14771554159E+02  0.51100000000E-03 0. -1.
        -11    1    3    3    0    0 -0.71493029718E+01  0.78596458717E+01  0.85309323460E+00  0.10659002511E+02  0.51100000000E-03 0.  1.
        -12    1    3    3    0    0 -0.13043489065E+02 -0.74149023487E+01 -0.20119959118E+02  0.25098329401E+02  0.00000000000E+00 0.  1.
</event>
<event>
 7    1  0.6000182E-012  0.5052886E+02  0.7816164E-02  0.1300439E+00
        -11   -1    0    0    0    0  0.00000000000E+00  0.00000000000E+00  0.45593999997E+02  0.45594000000E+02  0.51100000000E-03 0. -1.
         11   -1    0    0    0    0 -0.00000000000E+00 -0.00000000000E+00 -0.45593999997E+02  0.45594000000E+02  0.51100000000E-03 0.  1.
    9900012    2    1    2    0    0  0.20646321612E+02  0.23940887548E+02  0.25568121168E+02  0.50528861879E+02  0.30000006169E+02 0.  0.
        -12    1    1    2    0    0 -0.20646321612E+02 -0.23940887548E+02 -0.25568121168E+02  0.40659138121E+02  0.00000000000E+00 0.  1.
         11    1    3    3    0    0  0.11988655513E+02  0.14406400375E+02  0.74612997610E+01  0.20172833890E+02  0.51100000000E-03 0. -1.
        -11    1    3    3    0    0  0.39160111073E+01  0.15731361879E+02  0.14539759825E+02  0.21776489745E+02  0.51100000000E-03 0.  1.
        -12    1    3    3    0    0  0.47416549915E+01 -0.61968747057E+01  0.35670615815E+01  0.85795382453E+01  0.00000000000E+00 0.  1.
</event>
<event>
 7    1  0.5005325E-012  0.5052886E+02  0.7816164E-02  0.1300439E+00
        -11   -1    0    0    0    0  0.00000000000E+00  0.00000000000E+00  0.45593999997E+02  0.45594000000E+02  0.51100000000E-03 0. -1.
         11   -1    0    0    0    0 -0.00000000000E+00 -0.00000000000E+00 -0.45593999997E+02  0.45594000000E+02  0.51100000000E-03 0.  1.
    9900012    2    1    2    0    0  0.10523818455E+02 -0.15253507031E+02 -0.36190407768E+02  0.50528857780E+02  0.29999993708E+02 0.  0.
         12    1    1    2    0    0 -0.10523818455E+02  0.15253507031E+02  0.36190407768E+02  0.40659142220E+02  0.00000000000E+00 0. -1.
         11    1    3    3    0    0  0.47700722529E+01 -0.16415106589E+00 -0.36439070138E+01  0.60048808029E+01  0.51100000000E-03 0.  1.
        -11    1    3    3    0    0 -0.72195849816E+01 -0.15804366542E+02 -0.19297964898E+02  0.25967515449E+02  0.51100000000E-03 0. -1.
         12    1    3    3    0    0  0.12973331184E+02  0.71501057644E+00 -0.13248535856E+02  0.18556461529E+02  0.00000000000E+00 0. -1.
</event>
<event>
 7    1  0.5005325E-012  0.5052885E+02  0.7816164E-02  0.1300439E+00
        -11   -1    0    0    0    0  0.00000000000E+00  0.00000000000E+00  0.45593999997E+02  0.45594000000E+02  0.51100000000E-03 0. -1.
         11   -1    0    0    0    0 -0.00000000000E+00 -0.00000000000E+00 -0.45593999997E+02  0.45594000000E+02  0.51100000000E-03 0.  1.
    9900012    2    1    2    0    0 -0.23695062803E+02  0.26164861695E+02  0.20176974964E+02  0.50528852106E+02  0.29999976461E+02 0.  0.
        -12    1    1    2    0    0  0.23695062803E+02 -0.26164861695E+02 -0.20176974964E+02  0.40659147894E+02  0.00000000000E+00 0.  1.
         11    1    3    3    0    0  0.76618036358E+00 -0.42833297870E+01 -0.27474737306E+00  0.43599808250E+01  0.51100000000E-03 0. -1.
        -11    1    3    3    0    0 -0.58911811762E+01  0.32176991297E+01  0.91022663986E+01  0.11309768220E+02  0.51100000000E-03 0.  1.
         12    1    3    3    0    0 -0.18570061991E+02  0.27230492353E+02  0.11349455938E+02  0.34859103061E+02  0.00000000000E+00 0. -1.
</event>
<event>
 7    1  0.5005325E-012  0.5052897E+02  0.7816164E-02  0.1300438E+00
        -11   -1    0    0    0    0  0.00000000000E+00  0.00000000000E+00  0.45593999997E+02  0.45594000000E+02  0.51100000000E-03 0. -1.
         11   -1    0    0    0    0 -0.00000000000E+00 -0.00000000000E+00 -0.45593999997E+02  0.45594000000E+02  0.51100000000E-03 0.  1.
    9900012    2    1    2    0    0  0.15549662131E+02 -0.23327114709E+02 -0.29448438176E+02  0.50528969219E+02  0.30000332437E+02 0.  0.
         12    1    1    2    0    0 -0.15549662131E+02  0.23327114709E+02  0.29448438176E+02  0.40659030781E+02  0.00000000000E+00 0. -1.
         11    1    3    3    0    0  0.14539641753E+02 -0.15950834686E+02 -0.13429921188E+02  0.25420328339E+02  0.51100000000E-03 0.  1.
        -11    1    3    3    0    0  0.81213349264E+01  0.11827635909E+01 -0.68804160853E+01  0.10709581526E+02  0.51100000000E-03 0. -1.
        -12    1    3    3    0    0 -0.71113145480E+01 -0.85590436134E+01 -0.91381009025E+01  0.14399059354E+02  0.00000000000E+00 0.  1.
</event>
<event>
 7    1  0.5005325E-012  0.5052886E+02  0.7816164E-02  0.1300439E+00
        -11   -1    0    0    0    0  0.00000000000E+00  0.00000000000E+00  0.45593999997E+02  0.45594000000E+02  0.51100000000E-03 0. -1.
         11   -1    0    0    0    0 -0.00000000000E+00 -0.00000000000E+00 -0.45593999997E+02  0.45594000000E+02  0.51100000000E-03 0.  1.
    9900012    2    1    2    0    0 -0.49960549529E+01  0.31792602158E+02  0.24848252184E+02  0.50528858916E+02  0.29999997161E+02 0.  0.
        -12    1    1    2    0    0  0.49960549529E+01 -0.31792602158E+02 -0.24848252184E+02  0.40659141084E+02  0.00000000000E+00 0.  1.
         11    1    3    3    0    0 -0.45874730018E+01  0.40650204393E+01  0.38388993549E+01  0.72323196992E+01  0.51100000000E-03 0. -1.
        -11    1    3    3    0    0 -0.11157899966E+02  0.54024542611E+01  0.32642633511E+01  0.12819542082E+02  0.51100000000E-03 0.  1.
         12    1    3    3    0    0  0.10749318015E+02  0.22325127457E+02  0.17745089478E+02  0.30476997135E+02  0.00000000000E+00 0. -1.
</event>
<event>
 7    1  0.5005325E-012  0.5052887E+02  0.7816164E-02  0.1300439E+00
        -11   -1    0    0    0    0  0.00000000000E+00  0.00000000000E+00  0.45593999997E+02  0.45594000000E+02  0.51100000000E-03 0. -1.
         11   -1    0    0    0    0 -0.00000000000E+00 -0.00000000000E+00 -0.45593999997E+02  0.45594000000E+02  0.51100000000E-03 0.  1.
    9900012    2    1    2    0    0  0.33984798128E+02 -0.59545138307E+00 -0.22312421880E+02  0.50528865279E+02  0.30000016501E+02 0.  0.
         12    1    1    2    0    0 -0.33984798128E+02  0.59545138307E+00  0.22312421880E+02  0.40659134721E+02  0.00000000000E+00 0. -1.
         11    1    3    3    0    0  0.21518387104E+02 -0.54436061616E+01 -0.20192204968E+02  0.30006648819E+02  0.51100000000E-03 0.  1.
        -11    1    3    3    0    0  0.10297309610E+02  0.16621671566E+01 -0.82380721556E+01  0.13291471626E+02  0.51100000000E-03 0. -1.
         12    1    3    3    0    0  0.21691014132E+01  0.31859876219E+01  0.61178552442E+01  0.72307448342E+01  0.00000000000E+00 0. -1.
</event>
<event>
 7    1  0.5005325E-012  0.5052887E+02  0.7816164E-02  0.1300439E+00
        -11   -1    0    0    0    0  0.00000000000E+00  0.00000000000E+00  0.45593999997E+02  0.45594000000E+02  0.51100000000E-03 0. -1.
         11   -1    0    0    0    0 -0.00000000000E+00 -0.00000000000E+00 -0.45593999997E+02  0.45594000000E+02  0.51100000000E-03 0.  1.
    9900012    2    1    2    0    0 -0.27611008704E+02  0.37741948619E+01  0.29606636251E+02  0.50528865004E+02  0.30000015667E+02 0.  0.
        -12    1    1    2    0    0  0.27611008704E+02 -0.37741948619E+01 -0.29606636251E+02  0.40659134996E+02  0.00000000000E+00 0.  1.
         11    1    3    3    0    0 -0.16803479794E+02 -0.21037759505E+01  0.77702546187E+01  0.18632221112E+02  0.51100000000E-03 0. -1.
        -11    1    3    3    0    0  0.15788481923E+00 -0.18255358805E+01 -0.30922249764E+01  0.35943517403E+01  0.51100000000E-03 0.  1.
         12    1    3    3    0    0 -0.10965413728E+02  0.77035066929E+01  0.24928606609E+02  0.28302292152E+02  0.00000000000E+00 0. -1.
</event>
<event>
 7    1  0.5005325E-012  0.5052887E+02  0.7816164E-02  0.1300439E+00
        -11   -1    0    0    0    0  0.00000000000E+00  0.00000000000E+00  0.45593999997E+02  0.45594000000E+02  0.51100000000E-03 0. -1.
         11   -1    0    0    0    0 -0.00000000000E+00 -0.00000000000E+00 -0.45593999997E+02  0.45594000000E+02  0.51100000000E-03 0.  1.
    9900012    2    1    2    0    0 -0.30226477942E+02  0.11100814835E+02 -0.24825332946E+02  0.50528865545E+02  0.30000017311E+02 0.  0.
         12    1    1    2    0    0  0.30226477942E+02 -0.11100814835E+02  0.24825332946E+02  0.40659134455E+02  0.00000000000E+00 0. -1.
         11    1    3    3    0    0 -0.13806998481E+02  0.71703214859E+01 -0.15221588296E+02  0.21765648802E+02  0.51100000000E-03 0. -1.
        -11    1    3    3    0    0 -0.17274362571E+00  0.63636342845E+01 -0.10534894853E+02  0.12308927308E+02  0.51100000000E-03 0.  1.
         12    1    3    3    0    0 -0.16246735835E+02 -0.24331409354E+01  0.93115020311E+00  0.16454289435E+02  0.00000000000E+00 0. -1.
</event>
<event>
 7    1  0.5005325E-012  0.5052886E+02  0.7816164E-02  0.1300439E+00
        -11   -1    0    0    0    0  0.00000000000E+00  0.00000000000E+00  0.45593999997E+02  0.45594000000E+02  0.51100000000E-03 0.  1.
         11   -1    0    0    0    0 -0.00000000000E+00 -0.00000000000E+00 -0.45593999997E+02  0.45594000000E+02  0.51100000000E-03 0. -1.
    9900012    2    1    2    0    0  0.33029047295E+02 -0.21940724191E+02  0.89917944026E+01  0.50528859456E+02  0.29999998801E+02 0.  0.
        -12    1    1    2    0    0 -0.33029047295E+02  0.21940724191E+02 -0.89917944026E+01  0.40659140544E+02  0.00000000000E+00 0.  1.
         11    1    3    3    0    0  0.26589897737E+02 -0.13702127121E+01  0.28108515059E+01  0.26773140104E+02  0.51100000000E-03 0. -1.
        -11    1    3    3    0    0  0.59065967925E+01 -0.72443795553E+01  0.82427121299E+00  0.93834079152E+01  0.51100000000E-03 0.  1.
        -12    1    3    3    0    0  0.53255276473E+00 -0.13326131924E+02  0.53566716837E+01  0.14372311437E+02  0.00000000000E+00 0.  1.
</event>
<event>
 7    1  0.5005325E-012  0.5052885E+02  0.7816164E-02  0.1300439E+00
        -11   -1    0    0    0    0  0.00000000000E+00  0.00000000000E+00  0.45593999997E+02  0.45594000000E+02  0.51100000000E-03 0. -1.
         11   -1    0    0    0    0 -0.00000000000E+00 -0.00000000000E+00 -0.45593999997E+02  0.45594000000E+02  0.51100000000E-03 0.  1.
    9900012    2    1    2    0    0 -0.31847722795E+01  0.11570939673E+02  0.38847609185E+02  0.50528853934E+02  0.29999982018E+02 0.  0.
        -12    1    1    2    0    0  0.31847722795E+01 -0.11570939673E+02 -0.38847609185E+02  0.40659146066E+02  0.00000000000E+00 0.  1.
         11    1    3    3    0    0  0.45771059200E+01 -0.47213577877E+01  0.20351769768E+02  0.21387745345E+02  0.51100000000E-03 0. -1.
        -11    1    3    3    0    0 -0.53137511878E+01  0.14978442915E+01  0.11152069959E+02  0.12443799816E+02  0.51100000000E-03 0.  1.
         12    1    3    3    0    0 -0.24481270116E+01  0.14794453169E+02  0.73437694576E+01  0.16697308774E+02  0.00000000000E+00 0. -1.
</event>
<event>
 7    1  0.5005325E-012  0.5052885E+02  0.7816164E-02  0.1300439E+00
        -11   -1    0    0    0    0  0.00000000000E+00  0.00000000000E+00  0.45593999997E+02  0.45594000000E+02  0.51100000000E-03 0. -1.
         11   -1    0    0    0    0 -0.00000000000E+00 -0.00000000000E+00 -0.45593999997E+02  0.45594000000E+02  0.51100000000E-03 0.  1.
    9900012    2    1    2    0    0 -0.18888677553E+02  0.23780653406E+02 -0.27034507721E+02  0.50528853135E+02  0.29999979588E+02 0.  0.
         12    1    1    2    0    0  0.18888677553E+02 -0.23780653406E+02  0.27034507721E+02  0.40659146865E+02  0.00000000000E+00 0. -1.
         11    1    3    3    0    0 -0.15668289533E+00  0.29555652468E+01 -0.38558695123E+01  0.48608276471E+01  0.51100000000E-03 0. -1.
        -11    1    3    3    0    0  0.25590978228E+01  0.17405357523E+02 -0.12668083803E+02  0.21678925243E+02  0.51100000000E-03 0.  1.
         12    1    3    3    0    0 -0.21291092481E+02  0.34197306356E+01 -0.10510554405E+02  0.23989100245E+02  0.00000000000E+00 0. -1.
</event>
<event>
 7    1  0.5005325E-012  0.5052886E+02  0.7816164E-02  0.1300439E+00
        -11   -1    0    0    0    0  0.00000000000E+00  0.00000000000E+00  0.45593999997E+02  0.45594000000E+02  0.51100000000E-03 0. -1.
         11   -1    0    0    0    0 -0.00000000000E+00 -0.00000000000E+00 -0.45593999997E+02  0.45594000000E+02  0.51100000000E-03 0.  1.
    9900012    2    1    2    0    0  0.48522912408E+01  0.24566038515E+02  0.32033279584E+02  0.50528856139E+02  0.29999988720E+02 0.  0.
        -12    1    1    2    0    0 -0.48522912408E+01 -0.24566038515E+02 -0.32033279584E+02  0.40659143861E+02  0.00000000000E+00 0.  1.
         11    1    3    3    0    0 -0.25318486123E+01  0.22792074757E+02  0.22106530494E+02  0.31852592043E+02  0.51100000000E-03 0. -1.
        -11    1    3    3    0    0 -0.94783481465E+00  0.58307498139E+01  0.13726131204E+01  0.60646600290E+01  0.51100000000E-03 0.  1.
        -12    1    3    3    0    0  0.83319746678E+01 -0.40567860554E+01  0.85541359690E+01  0.12611604067E+02  0.00000000000E+00 0.  1.
</event>
<event>
 7    1  0.5005325E-012  0.5052887E+02  0.7816164E-02  0.1300439E+00
        -11   -1    0    0    0    0  0.00000000000E+00  0.00000000000E+00  0.45593999997E+02  0.45594000000E+02  0.51100000000E-03 0. -1.
         11   -1    0    0    0    0 -0.00000000000E+00 -0.00000000000E+00 -0.45593999997E+02  0.45594000000E+02  0.51100000000E-03 0.  1.
    9900012    2    1    2    0    0  0.29879086777E+02 -0.27510581555E+02 -0.18902852686E+01  0.50528866924E+02  0.30000021502E+02 0.  0.
         12    1    1    2    0    0 -0.29879086777E+02  0.27510581555E+02  0.18902852686E+01  0.40659133076E+02  0.00000000000E+00 0. -1.
         11    1    3    3    0    0 -0.14960002369E+01  0.34340402454E+01  0.18587531460E+01  0.41815801600E+01  0.51100000000E-03 0. -1.
        -11    1    3    3    0    0  0.11910799600E+02 -0.84821889349E+01 -0.74231070176E+01  0.16398694896E+02  0.51100000000E-03 0.  1.
        -12    1    3    3    0    0  0.19464287414E+02 -0.22462432865E+02  0.36740686030E+01  0.29948591868E+02  0.00000000000E+00 0.  1.
</event>
<event>
 7    1  0.5005325E-012  0.5052886E+02  0.7816164E-02  0.1300439E+00
        -11   -1    0    0    0    0  0.00000000000E+00  0.00000000000E+00  0.45593999997E+02  0.45594000000E+02  0.51100000000E-03 0. -1.
         11   -1    0    0    0    0 -0.00000000000E+00 -0.00000000000E+00 -0.45593999997E+02  0.45594000000E+02  0.51100000000E-03 0.  1.
    9900012    2    1    2    0    0 -0.15032832911E+02  0.16250051044E+02  0.34104478899E+02  0.50528859512E+02  0.29999998972E+02 0.  0.
        -12    1    1    2    0    0  0.15032832911E+02 -0.16250051044E+02 -0.34104478899E+02  0.40659140488E+02  0.00000000000E+00 0.  1.
         11    1    3    3    0    0 -0.43464770424E+01  0.12815214047E+01  0.28675219497E+01  0.53625406464E+01  0.51100000000E-03 0. -1.
        -11    1    3    3    0    0 -0.33939193835E+01 -0.71516857948E+01  0.27735941263E+01  0.83879749122E+01  0.51100000000E-03 0.  1.
        -12    1    3    3    0    0 -0.72924364851E+01  0.22120215434E+02  0.28463362823E+02  0.36778343953E+02  0.00000000000E+00 0.  1.
</event>
<event>
 7    1  0.5005325E-012  0.5052884E+02  0.7816164E-02  0.1300439E+00
        -11   -1    0    0    0    0  0.00000000000E+00  0.00000000000E+00  0.45593999997E+02  0.45594000000E+02  0.51100000000E-03 0. -1.
         11   -1    0    0    0    0 -0.00000000000E+00 -0.00000000000E+00 -0.45593999997E+02  0.45594000000E+02  0.51100000000E-03 0.  1.
    9900012    2    1    2    0    0 -0.13628551079E+02 -0.19823163983E+02 -0.32779144456E+02  0.50528836874E+02  0.29999930163E+02 0.  0.
         12    1    1    2    0    0  0.13628551079E+02  0.19823163983E+02  0.32779144456E+02  0.40659163126E+02  0.00000000000E+00 0. -1.
         11    1    3    3    0    0 -0.62309306406E+01 -0.15625689735E+02 -0.15649277477E+02  0.22975782079E+02  0.51100000000E-03 0.  1.
        -11    1    3    3    0    0  0.23756415192E+01 -0.15929065489E+01  0.35341061340E+01  0.45465294817E+01  0.51100000000E-03 0. -1.
        -12    1    3    3    0    0 -0.97732619575E+01 -0.26045676995E+01 -0.20663973113E+02  0.23006525313E+02  0.00000000000E+00 0.  1.
</event>
<event>
 7    1  0.5005325E-012  0.5052886E+02  0.7816164E-02  0.1300439E+00
        -11   -1    0    0    0    0  0.00000000000E+00  0.00000000000E+00  0.45593999997E+02  0.45594000000E+02  0.51100000000E-03 0. -1.
         11   -1    0    0    0    0 -0.00000000000E+00 -0.00000000000E+00 -0.45593999997E+02  0.45594000000E+02  0.51100000000E-03 0.  1.
    9900012    2    1    2    0    0  0.21548685723E+02  0.50859181711E+01 -0.34102094479E+02  0.50528864890E+02  0.30000015320E+02 0.  0.
         12    1    1    2    0    0 -0.21548685723E+02 -0.50859181711E+01  0.34102094479E+02  0.40659135110E+02  0.00000000000E+00 0. -1.
         11    1    3    3    0    0  0.72572364540E+01 -0.54668622827E-01  0.30016043510E+01  0.78536678405E+01  0.51100000000E-03 0. -1.
        -11    1    3    3    0    0 -0.18775376568E+01  0.43974967209E+01 -0.10445586013E+02  0.11487967291E+02  0.51100000000E-03 0.  1.
         12    1    3    3    0    0  0.16168986926E+02  0.74309007299E+00 -0.26658112817E+02  0.31187229759E+02  0.00000000000E+00 0. -1.
</event>
<event>
 7    1  0.5005325E-012  0.5052888E+02  0.7816164E-02  0.1300439E+00
        -11   -1    0    0    0    0  0.00000000000E+00  0.00000000000E+00  0.45593999997E+02  0.45594000000E+02  0.51100000000E-03 0. -1.
         11   -1    0    0    0    0 -0.00000000000E+00 -0.00000000000E+00 -0.45593999997E+02  0.45594000000E+02  0.51100000000E-03 0.  1.
    9900012    2    1    2    0    0  0.52942819752E+01  0.45773376623E+01 -0.40052252524E+02  0.50528875883E+02  0.30000048733E+02 0.  0.
         12    1    1    2    0    0 -0.52942819752E+01 -0.45773376623E+01  0.40052252524E+02  0.40659124117E+02  0.00000000000E+00 0. -1.
         11    1    3    3    0    0 -0.11164216065E+01  0.36524047048E+01 -0.36177726467E+02  0.36378762347E+02  0.51100000000E-03 0. -1.
        -11    1    3    3    0    0  0.30857393287E+01 -0.39819236913E+01 -0.60170923810E+01  0.78474775865E+01  0.51100000000E-03 0.  1.
         12    1    3    3    0    0  0.33249642530E+01  0.49068566488E+01  0.21425663236E+01  0.63026359491E+01  0.00000000000E+00 0. -1.
</event>
<event>
 7    1  0.6170611E-012  0.5052885E+02  0.7816164E-02  0.1300439E+00
        -11   -1    0    0    0    0  0.00000000000E+00  0.00000000000E+00  0.45593999997E+02  0.45594000000E+02  0.51100000000E-03 0. -1.
         11   -1    0    0    0    0 -0.00000000000E+00 -0.00000000000E+00 -0.45593999997E+02  0.45594000000E+02  0.51100000000E-03 0.  1.
    9900012    2    1    2    0    0  0.13681967679E+02  0.27955301949E+02  0.26162395672E+02  0.50528854732E+02  0.29999984442E+02 0.  0.
        -12    1    1    2    0    0 -0.13681967679E+02 -0.27955301949E+02 -0.26162395672E+02  0.40659145268E+02  0.00000000000E+00 0.  1.
         11    1    3    3    0    0 -0.30039186909E+01  0.15981272892E+02  0.13727575186E+02  0.21280764354E+02  0.51100000000E-03 0. -1.
        -11    1    3    3    0    0  0.95838257175E+01  0.13863247478E+02  0.13788688072E+02  0.21775382087E+02  0.51100000000E-03 0.  1.
        -12    1    3    3    0    0  0.71020606528E+01 -0.18892184206E+01 -0.13538675858E+01  0.74727082906E+01  0.00000000000E+00 0.  1.
</event>
<event>
 7    1  0.5005325E-012  0.5052886E+02  0.7816164E-02  0.1300439E+00
        -11   -1    0    0    0    0  0.00000000000E+00  0.00000000000E+00  0.45593999997E+02  0.45594000000E+02  0.51100000000E-03 0. -1.
         11   -1    0    0    0    0 -0.00000000000E+00 -0.00000000000E+00 -0.45593999997E+02  0.45594000000E+02  0.51100000000E-03 0.  1.
    9900012    2    1    2    0    0  0.17339682469E+02  0.26208383904E+02 -0.25799652744E+02  0.50528855190E+02  0.29999985835E+02 0.  0.
         12    1    1    2    0    0 -0.17339682469E+02 -0.26208383904E+02  0.25799652744E+02  0.40659144810E+02  0.00000000000E+00 0. -1.
         11    1    3    3    0    0  0.16869335576E+02  0.22307316037E+01 -0.10869677480E+02  0.20191595654E+02  0.51100000000E-03 0. -1.
        -11    1    3    3    0    0 -0.14443629343E+01  0.63830643605E+00 -0.43739618463E+01  0.46502862155E+01  0.51100000000E-03 0.  1.
        -12    1    3    3    0    0  0.19147098278E+01  0.23339345864E+02 -0.10556013417E+02  0.25686973320E+02  0.00000000000E+00 0.  1.
</event>
<event>
 7    1  0.5005325E-012  0.5052888E+02  0.7816164E-02  0.1300439E+00
        -11   -1    0    0    0    0  0.00000000000E+00  0.00000000000E+00  0.45593999997E+02  0.45594000000E+02  0.51100000000E-03 0. -1.
         11   -1    0    0    0    0 -0.00000000000E+00 -0.00000000000E+00 -0.45593999997E+02  0.45594000000E+02  0.51100000000E-03 0.  1.
    9900012    2    1    2    0    0  0.30057776674E+02 -0.20013550269E+00 -0.27379811667E+02  0.50528879501E+02  0.30000059731E+02 0.  0.
         12    1    1    2    0    0 -0.30057776674E+02  0.20013550269E+00  0.27379811667E+02  0.40659120499E+02  0.00000000000E+00 0. -1.
         11    1    3    3    0    0  0.16900410566E+02 -0.72860181170E+01 -0.29653329471E+02  0.34900284902E+02  0.51100000000E-03 0.  1.
        -11    1    3    3    0    0  0.13834402174E+01 -0.57050715560E-01  0.11708309029E+01  0.18132862112E+01  0.51100000000E-03 0. -1.
        -12    1    3    3    0    0  0.11773925891E+02  0.71429333298E+01  0.11026869005E+01  0.13815308387E+02  0.00000000000E+00 0.  1.
</event>
<event>
 7    1  0.5005325E-012  0.5052886E+02  0.7816164E-02  0.1300439E+00
        -11   -1    0    0    0    0  0.00000000000E+00  0.00000000000E+00  0.45593999997E+02  0.45594000000E+02  0.51100000000E-03 0.  1.
         11   -1    0    0    0    0 -0.00000000000E+00 -0.00000000000E+00 -0.45593999997E+02  0.45594000000E+02  0.51100000000E-03 0. -1.
    9900012    2    1    2    0    0 -0.38689028935E+02  0.11799944495E+02  0.41334884461E+01  0.50528863552E+02  0.30000011251E+02 0.  0.
        -12    1    1    2    0    0  0.38689028935E+02 -0.11799944495E+02 -0.41334884461E+01  0.40659136448E+02  0.00000000000E+00 0.  1.
         11    1    3    3    0    0 -0.26369499114E+01  0.79753455218E+01 -0.96074098919E+00  0.84547421331E+01  0.51100000000E-03 0. -1.
        -11    1    3    3    0    0 -0.14104622119E+02 -0.45942145153E+01 -0.60985083396E+01  0.16038671278E+02  0.51100000000E-03 0.  1.
        -12    1    3    3    0    0 -0.21947456904E+02  0.84188134890E+01  0.11192737775E+02  0.26035450140E+02  0.00000000000E+00 0.  1.
</event>
<event>
 7    1  0.5005325E-012  0.5052886E+02  0.7816164E-02  0.1300439E+00
        -11   -1    0    0    0    0  0.00000000000E+00  0.00000000000E+00  0.45593999997E+02  0.45594000000E+02  0.51100000000E-03 0. -1.
         11   -1    0    0    0    0 -0.00000000000E+00 -0.00000000000E+00 -0.45593999997E+02  0.45594000000E+02  0.51100000000E-03 0.  1.
    9900012    2    1    2    0    0 -0.36190852498E+02 -0.66179620990E+01  0.17308676809E+02  0.50528861792E+02  0.30000005904E+02 0.  0.
        -12    1    1    2    0    0  0.36190852498E+02  0.66179620990E+01 -0.17308676809E+02  0.40659138208E+02  0.00000000000E+00 0.  1.
         11    1    3    3    0    0 -0.24876985414E+02 -0.10791770764E+02  0.84153299279E+01  0.28392683874E+02  0.51100000000E-03 0. -1.
        -11    1    3    3    0    0  0.17515508970E+01 -0.43350131195E+01  0.18718668549E+01  0.50362838557E+01  0.51100000000E-03 0.  1.
         12    1    3    3    0    0 -0.13065417981E+02  0.85088217849E+01  0.70214800261E+01  0.17099894063E+02  0.00000000000E+00 0. -1.
</event>
<event>
 7    1  0.5005325E-012  0.5052887E+02  0.7816164E-02  0.1300439E+00
        -11   -1    0    0    0    0  0.00000000000E+00  0.00000000000E+00  0.45593999997E+02  0.45594000000E+02  0.51100000000E-03 0. -1.
         11   -1    0    0    0    0 -0.00000000000E+00 -0.00000000000E+00 -0.45593999997E+02  0.45594000000E+02  0.51100000000E-03 0.  1.
    9900012    2    1    2    0    0  0.21327925517E+02 -0.10248941340E+02 -0.33064241023E+02  0.50528865235E+02  0.30000016367E+02 0.  0.
         12    1    1    2    0    0 -0.21327925517E+02  0.10248941340E+02  0.33064241023E+02  0.40659134765E+02  0.00000000000E+00 0. -1.
         11    1    3    3    0    0 -0.45350089490E+01 -0.77566309460E+00 -0.14207442525E+01  0.48152335245E+01  0.51100000000E-03 0. -1.
        -11    1    3    3    0    0  0.80279738534E+01  0.20857620246E+01 -0.19605791770E+02  0.21288161936E+02  0.51100000000E-03 0.  1.
         12    1    3    3    0    0  0.17834960613E+02 -0.11559040270E+02 -0.12037705000E+02  0.24425469774E+02  0.00000000000E+00 0. -1.
</event>
<event>
 7    1  0.5005325E-012  0.5052886E+02  0.7816164E-02  0.1300439E+00
        -11   -1    0    0    0    0  0.00000000000E+00  0.00000000000E+00  0.45593999997E+02  0.45594000000E+02  0.51100000000E-03 0.  1.
         11   -1    0    0    0    0 -0.00000000000E+00 -0.00000000000E+00 -0.45593999997E+02  0.45594000000E+02  0.51100000000E-03 0. -1.
    9900012    2    1    2    0    0  0.29773621728E+02  0.47180066046E+01  0.27284384983E+02  0.50528858334E+02  0.29999995393E+02 0.  0.
        -12    1    1    2    0    0 -0.29773621728E+02 -0.47180066046E+01 -0.27284384983E+02  0.40659141666E+02  0.00000000000E+00 0.  1.
         11    1    3    3    0    0  0.12871201247E+02 -0.46450250626E+01  0.14576313632E+01  0.13761132541E+02  0.51100000000E-03 0. -1.
        -11    1    3    3    0    0  0.12862411495E+02  0.94862528366E+01  0.68894463277E+01  0.17403881559E+02  0.51100000000E-03 0.  1.
        -12    1    3    3    0    0  0.40400089858E+01 -0.12322116931E+00  0.18937307292E+02  0.19363844234E+02  0.00000000000E+00 0.  1.
</event>
<event>
 7    1  0.5005325E-012  0.5052887E+02  0.7816164E-02  0.1300439E+00
        -11   -1    0    0    0    0  0.00000000000E+00  0.00000000000E+00  0.45593999997E+02  0.45594000000E+02  0.51100000000E-03 0. -1.
         11   -1    0    0    0    0 -0.00000000000E+00 -0.00000000000E+00 -0.45593999997E+02  0.45594000000E+02  0.51100000000E-03 0.  1.
    9900012    2    1    2    0    0  0.21572305778E+02 -0.24601228875E+02 -0.24136694771E+02  0.50528869744E+02  0.30000030072E+02 0.  0.
         12    1    1    2    0    0 -0.21572305778E+02  0.24601228875E+02  0.24136694771E+02  0.40659130256E+02  0.00000000000E+00 0. -1.
         11    1    3    3    0    0  0.10104841509E+02 -0.54028633964E+01  0.33203051203E+01  0.11929927961E+02  0.51100000000E-03 0. -1.
        -11    1    3    3    0    0 -0.30596157826E+01 -0.15836826327E+01 -0.75819733852E+01  0.83280021670E+01  0.51100000000E-03 0.  1.
        -12    1    3    3    0    0  0.14527080052E+02 -0.17614682846E+02 -0.19875026506E+02  0.30270939616E+02  0.00000000000E+00 0.  1.
</event>
<event>
 7    1  0.5005325E-012  0.5052886E+02  0.7816164E-02  0.1300439E+00
        -11   -1    0    0    0    0  0.00000000000E+00  0.00000000000E+00  0.45593999997E+02  0.45594000000E+02  0.51100000000E-03 0.  1.
         11   -1    0    0    0    0 -0.00000000000E+00 -0.00000000000E+00 -0.45593999997E+02  0.45594000000E+02  0.51100000000E-03 0. -1.
    9900012    2    1    2    0    0 -0.25715459158E+02 -0.28691025182E+02 -0.12988678913E+02  0.50528861475E+02  0.30000004939E+02 0.  0.
         12    1    1    2    0    0  0.25715459158E+02  0.28691025182E+02  0.12988678913E+02  0.40659138525E+02  0.00000000000E+00 0. -1.
         11    1    3    3    0    0 -0.14425516369E+02 -0.85310741908E+01  0.37152138313E+01  0.17166174979E+02  0.51100000000E-03 0. -1.
        -11    1    3    3    0    0 -0.86566799425E+01 -0.11565445653E+00 -0.47001426759E+01  0.98510316726E+01  0.51100000000E-03 0.  1.
        -12    1    3    3    0    0 -0.26332628467E+01 -0.20044296535E+02 -0.12003750068E+02  0.23511654823E+02  0.00000000000E+00 0.  1.
</event>
<event>
 7    1  0.5005325E-012  0.5052885E+02  0.7816164E-02  0.1300439E+00
        -11   -1    0    0    0    0  0.00000000000E+00  0.00000000000E+00  0.45593999997E+02  0.45594000000E+02  0.51100000000E-03 0. -1.
         11   -1    0    0    0    0 -0.00000000000E+00 -0.00000000000E+00 -0.45593999997E+02  0.45594000000E+02  0.51100000000E-03 0.  1.
    9900012    2    1    2    0    0  0.22013672120E+02 -0.56649599059E+01  0.33711617239E+02  0.50528847675E+02  0.29999962992E+02 0.  0.
        -12    1    1    2    0    0 -0.22013672120E+02  0.56649599059E+01 -0.33711617239E+02  0.40659152325E+02  0.00000000000E+00 0.  1.
         11    1    3    3    0    0  0.11485036901E+02 -0.35770901070E+00  0.98702465078E+01  0.15147798347E+02  0.51100000000E-03 0. -1.
        -11    1    3    3    0    0  0.43915920819E+01  0.82160290952E+01  0.29946110213E+01  0.97855460009E+01  0.51100000000E-03 0.  1.
         12    1    3    3    0    0  0.61370431364E+01 -0.13523279990E+02  0.20846759710E+02  0.25595503327E+02  0.00000000000E+00 0. -1.
</event>
<event>
 7    1  0.5005325E-012  0.5052886E+02  0.7816164E-02  0.1300439E+00
        -11   -1    0    0    0    0  0.00000000000E+00  0.00000000000E+00  0.45593999997E+02  0.45594000000E+02  0.51100000000E-03 0. -1.
         11   -1    0    0    0    0 -0.00000000000E+00 -0.00000000000E+00 -0.45593999997E+02  0.45594000000E+02  0.51100000000E-03 0.  1.
    9900012    2    1    2    0    0  0.24373053423E+02  0.96972993628E+01 -0.31065772147E+02  0.50528861456E+02  0.30000004880E+02 0.  0.
         12    1    1    2    0    0 -0.24373053423E+02 -0.96972993628E+01  0.31065772147E+02  0.40659138544E+02  0.00000000000E+00 0. -1.
         11    1    3    3    0    0 -0.12837617239E+01  0.49022352187E+01 -0.75112315038E+01  0.90608251979E+01  0.51100000000E-03 0. -1.
        -11    1    3    3    0    0  0.16859643974E+02  0.10711626020E+02 -0.23531744875E+02  0.30866317306E+02  0.51100000000E-03 0.  1.
         12    1    3    3    0    0  0.87971711732E+01 -0.59165618755E+01 -0.22795767756E-01  0.10601718951E+02  0.00000000000E+00 0. -1.
</event>
<event>
 7    1  0.5005325E-012  0.5052886E+02  0.7816164E-02  0.1300439E+00
        -11   -1    0    0    0    0  0.00000000000E+00  0.00000000000E+00  0.45593999997E+02  0.45594000000E+02  0.51100000000E-03 0. -1.
         11   -1    0    0    0    0 -0.00000000000E+00 -0.00000000000E+00 -0.45593999997E+02  0.45594000000E+02  0.51100000000E-03 0.  1.
    9900012    2    1    2    0    0  0.17071705335E+02  0.27560859141E+02 -0.24538171218E+02  0.50528856792E+02  0.29999990706E+02 0.  0.
         12    1    1    2    0    0 -0.17071705335E+02 -0.27560859141E+02  0.24538171218E+02  0.40659143208E+02  0.00000000000E+00 0. -1.
         11    1    3    3    0    0  0.11610456442E+02 -0.81639117472E+00 -0.84263052112E+01  0.14369127082E+02  0.51100000000E-03 0. -1.
        -11    1    3    3    0    0 -0.24422321894E+01  0.11562876944E+02 -0.12556681338E+02  0.17243400702E+02  0.51100000000E-03 0.  1.
        -12    1    3    3    0    0  0.79034810830E+01  0.16814373372E+02 -0.35551846693E+01  0.18916329008E+02  0.00000000000E+00 0.  1.
</event>
<event>
 7    1  0.5005325E-012  0.5052885E+02  0.7816164E-02  0.1300439E+00
        -11   -1    0    0    0    0  0.00000000000E+00  0.00000000000E+00  0.45593999997E+02  0.45594000000E+02  0.51100000000E-03 0. -1.
         11   -1    0    0    0    0 -0.00000000000E+00 -0.00000000000E+00 -0.45593999997E+02  0.45594000000E+02  0.51100000000E-03 0.  1.
    9900012    2    1    2    0    0  0.15543299299E+02  0.56164772224E+01  0.37148716453E+02  0.50528854613E+02  0.29999984082E+02 0.  0.
        -12    1    1    2    0    0 -0.15543299299E+02 -0.56164772224E+01 -0.37148716453E+02  0.40659145387E+02  0.00000000000E+00 0.  1.
         11    1    3    3    0    0  0.24106350301E+01  0.16888678668E+01  0.25872237420E+02  0.26039126432E+02  0.51100000000E-03 0. -1.
        -11    1    3    3    0    0 -0.64494518144E+00  0.23132706961E+00  0.10158050738E+02  0.10181132626E+02  0.51100000000E-03 0.  1.
        -12    1    3    3    0    0  0.13777609451E+02  0.36962822860E+01  0.11184282946E+01  0.14308595555E+02  0.00000000000E+00 0.  1.
</event>
<event>
 7    1  0.5005325E-012  0.5052886E+02  0.7816164E-02  0.1300439E+00
        -11   -1    0    0    0    0  0.00000000000E+00  0.00000000000E+00  0.45593999997E+02  0.45594000000E+02  0.51100000000E-03 0. -1.
         11   -1    0    0    0    0 -0.00000000000E+00 -0.00000000000E+00 -0.45593999997E+02  0.45594000000E+02  0.51100000000E-03 0.  1.
    9900012    2    1    2    0    0 -0.14182158921E+02  0.33596510411E+02  0.17980725440E+02  0.50528860427E+02  0.30000001754E+02 0.  0.
        -12    1    1    2    0    0  0.14182158921E+02 -0.33596510411E+02 -0.17980725440E+02  0.40659139573E+02  0.00000000000E+00 0.  1.
         11    1    3    3    0    0 -0.51399645960E+01  0.22193857695E+02 -0.23638364950E-01  0.22781288692E+02  0.51100000000E-03 0.  1.
        -11    1    3    3    0    0 -0.84237509551E+01  0.14373339788E+02  0.10601629980E+02  0.19747076628E+02  0.51100000000E-03 0. -1.
         12    1    3    3    0    0 -0.61844336937E+00 -0.29706870724E+01  0.74027338249E+01  0.80004951075E+01  0.00000000000E+00 0. -1.
</event>
<event>
 7    1  0.5005325E-012  0.5052887E+02  0.7816164E-02  0.1300439E+00
        -11   -1    0    0    0    0  0.00000000000E+00  0.00000000000E+00  0.45593999997E+02  0.45594000000E+02  0.51100000000E-03 0.  1.
         11   -1    0    0    0    0 -0.00000000000E+00 -0.00000000000E+00 -0.45593999997E+02  0.45594000000E+02  0.51100000000E-03 0. -1.
    9900012    2    1    2    0    0  0.32668663005E+02 -0.23445077630E+02  0.60209565546E+01  0.50528866642E+02  0.30000020645E+02 0.  0.
        -12    1    1    2    0    0 -0.32668663005E+02  0.23445077630E+02 -0.60209565546E+01  0.40659133358E+02  0.00000000000E+00 0.  1.
         11    1    3    3    0    0  0.14146349301E+02 -0.11926544720E+02  0.75371836226E+00  0.18518362755E+02  0.51100000000E-03 0. -1.
        -11    1    3    3    0    0  0.19589356560E+02 -0.29038198529E+01 -0.29924840474E+01  0.20028230606E+02  0.51100000000E-03 0.  1.
        -12    1    3    3    0    0 -0.10670428558E+01 -0.86147130570E+01  0.82597222397E+01  0.11982273281E+02  0.00000000000E+00 0.  1.
</event>
<event>
 7    1  0.5005325E-012  0.5052886E+02  0.7816164E-02  0.1300439E+00
        -11   -1    0    0    0    0  0.00000000000E+00  0.00000000000E+00  0.45593999997E+02  0.45594000000E+02  0.51100000000E-03 0. -1.
         11   -1    0    0    0    0 -0.00000000000E+00 -0.00000000000E+00 -0.45593999997E+02  0.45594000000E+02  0.51100000000E-03 0.  1.
    9900012    2    1    2    0    0  0.98997610256E+01  0.41751372083E+00 -0.39433316123E+02  0.50528855807E+02  0.29999987710E+02 0.  0.
         12    1    1    2    0    0 -0.98997610256E+01 -0.41751372083E+00  0.39433316123E+02  0.40659144193E+02  0.00000000000E+00 0. -1.
         11    1    3    3    0    0  0.93645636669E+01  0.22670510963E+01 -0.46861147639E+01  0.10714207632E+02  0.51100000000E-03 0. -1.
        -11    1    3    3    0    0  0.55703977092E+01 -0.37363620581E+01 -0.33668851755E+02  0.34330472045E+02  0.51100000000E-03 0.  1.
         12    1    3    3    0    0 -0.50352003505E+01  0.18868246826E+01 -0.10783496045E+01  0.54841761297E+01  0.00000000000E+00 0. -1.
</event>
<event>
 7    1  0.5005325E-012  0.5052887E+02  0.7816164E-02  0.1300439E+00
        -11   -1    0    0    0    0  0.00000000000E+00  0.00000000000E+00  0.45593999997E+02  0.45594000000E+02  0.51100000000E-03 0. -1.
         11   -1    0    0    0    0 -0.00000000000E+00 -0.00000000000E+00 -0.45593999997E+02  0.45594000000E+02  0.51100000000E-03 0.  1.
    9900012    2    1    2    0    0 -0.20935636693E+02 -0.10375306556E+02  0.33274871522E+02  0.50528868865E+02  0.30000027401E+02 0.  0.
        -12    1    1    2    0    0  0.20935636693E+02  0.10375306556E+02 -0.33274871522E+02  0.40659131135E+02  0.00000000000E+00 0.  1.
         11    1    3    3    0    0 -0.11129960582E+02 -0.24520201666E+01  0.12369370341E+02  0.16819326632E+02  0.51100000000E-03 0. -1.
        -11    1    3    3    0    0 -0.65776240051E+00 -0.29932008215E+01  0.22920236721E+02  0.23124211428E+02  0.51100000000E-03 0.  1.
         12    1    3    3    0    0 -0.91479137099E+01 -0.49300855680E+01 -0.20147355399E+01  0.10585330805E+02  0.00000000000E+00 0. -1.
</event>
<event>
 7    1  0.5005325E-012  0.5052884E+02  0.7816164E-02  0.1300439E+00
        -11   -1    0    0    0    0  0.00000000000E+00  0.00000000000E+00  0.45593999997E+02  0.45594000000E+02  0.51100000000E-03 0. -1.
         11   -1    0    0    0    0 -0.00000000000E+00 -0.00000000000E+00 -0.45593999997E+02  0.45594000000E+02  0.51100000000E-03 0.  1.
    9900012    2    1    2    0    0  0.31218922936E+02  0.54441227466E+01 -0.25473661309E+02  0.50528843070E+02  0.29999948995E+02 0.  0.
         12    1    1    2    0    0 -0.31218922936E+02 -0.54441227466E+01  0.25473661309E+02  0.40659156930E+02  0.00000000000E+00 0. -1.
         11    1    3    3    0    0  0.24261650526E+02 -0.24170912470E+01 -0.10278673246E+02  0.26459802348E+02  0.51100000000E-03 0. -1.
        -11    1    3    3    0    0  0.10355233766E-01 -0.43629969402E+01 -0.53559091752E+01  0.69080831557E+01  0.51100000000E-03 0.  1.
         12    1    3    3    0    0  0.69469171761E+01  0.12224210934E+02 -0.98390788884E+01  0.17160957566E+02  0.00000000000E+00 0. -1.
</event>
<event>
 7    1  0.5005325E-012  0.5052887E+02  0.7816164E-02  0.1300439E+00
        -11   -1    0    0    0    0  0.00000000000E+00  0.00000000000E+00  0.45593999997E+02  0.45594000000E+02  0.51100000000E-03 0. -1.
         11   -1    0    0    0    0 -0.00000000000E+00 -0.00000000000E+00 -0.45593999997E+02  0.45594000000E+02  0.51100000000E-03 0.  1.
    9900012    2    1    2    0    0  0.20146709892E+02 -0.31330908740E+02  0.16298746041E+02  0.50528869606E+02  0.30000029653E+02 0.  0.
        -12    1    1    2    0    0 -0.20146709892E+02  0.31330908740E+02 -0.16298746041E+02  0.40659130394E+02  0.00000000000E+00 0.  1.
         11    1    3    3    0    0  0.17653874356E+02 -0.52490855703E+01  0.10059119437E+02  0.20985663278E+02  0.51100000000E-03 0. -1.
        -11    1    3    3    0    0  0.72065489872E+01 -0.14276429530E+02  0.18685266917E+01  0.16100999370E+02  0.51100000000E-03 0.  1.
        -12    1    3    3    0    0 -0.47137134510E+01 -0.11805393639E+02  0.43710999119E+01  0.13442206958E+02  0.00000000000E+00 0.  1.
</event>
<event>
 7    1  0.5005325E-012  0.5052886E+02  0.7816164E-02  0.1300439E+00
        -11   -1    0    0    0    0  0.00000000000E+00  0.00000000000E+00  0.45593999997E+02  0.45594000000E+02  0.51100000000E-03 0. -1.
         11   -1    0    0    0    0 -0.00000000000E+00 -0.00000000000E+00 -0.45593999997E+02  0.45594000000E+02  0.51100000000E-03 0.  1.
    9900012    2    1    2    0    0  0.23191608675E+02  0.33024465409E+02  0.49698470815E+01  0.50528863161E+02  0.30000010064E+02 0.  0.
        -12    1    1    2    0    0 -0.23191608675E+02 -0.33024465409E+02 -0.49698470815E+01  0.40659136839E+02  0.00000000000E+00 0.  1.
         11    1    3    3    0    0  0.90653850053E+01  0.51280303371E+01  0.10230530296E+02  0.14599371590E+02  0.51100000000E-03 0.  1.
        -11    1    3    3    0    0 -0.36167453822E+01  0.82729602217E+01 -0.22351990573E+01  0.93015500363E+01  0.51100000000E-03 0. -1.
         12    1    3    3    0    0  0.17742969052E+02  0.19623474850E+02 -0.30254841570E+01  0.26627941534E+02  0.00000000000E+00 0. -1.
</event>
<event>
 7    1  0.5005325E-012  0.5052886E+02  0.7816164E-02  0.1300439E+00
        -11   -1    0    0    0    0  0.00000000000E+00  0.00000000000E+00  0.45593999997E+02  0.45594000000E+02  0.51100000000E-03 0. -1.
         11   -1    0    0    0    0 -0.00000000000E+00 -0.00000000000E+00 -0.45593999997E+02  0.45594000000E+02  0.51100000000E-03 0.  1.
    9900012    2    1    2    0    0  0.44170802659E+01 -0.59481352540E+01  0.39978428252E+02  0.50528860356E+02  0.30000001539E+02 0.  0.
        -12    1    1    2    0    0 -0.44170802659E+01  0.59481352540E+01 -0.39978428252E+02  0.40659139644E+02  0.00000000000E+00 0.  1.
         11    1    3    3    0    0  0.71721513079E+00 -0.19510156763E+01 -0.20585075484E+01  0.29254595025E+01  0.51100000000E-03 0. -1.
        -11    1    3    3    0    0 -0.32556771412E+01 -0.26678496486E+01 -0.71458005576E+00  0.42693653290E+01  0.51100000000E-03 0.  1.
         12    1    3    3    0    0  0.69555422763E+01 -0.13292699292E+01  0.42751515856E+02  0.43334035525E+02  0.00000000000E+00 0. -1.
</event>
<event>
 7    1  0.5005325E-012  0.5052887E+02  0.7816164E-02  0.1300439E+00
        -11   -1    0    0    0    0  0.00000000000E+00  0.00000000000E+00  0.45593999997E+02  0.45594000000E+02  0.51100000000E-03 0.  1.
         11   -1    0    0    0    0 -0.00000000000E+00 -0.00000000000E+00 -0.45593999997E+02  0.45594000000E+02  0.51100000000E-03 0. -1.
    9900012    2    1    2    0    0 -0.25341042231E+02 -0.31328732623E+02 -0.54320195823E+01  0.50528871309E+02  0.30000034832E+02 0.  0.
         12    1    1    2    0    0  0.25341042231E+02  0.31328732623E+02  0.54320195823E+01  0.40659128691E+02  0.00000000000E+00 0. -1.
         11    1    3    3    0    0  0.32042525985E+01 -0.76962038832E+01  0.15539861319E+01  0.84801923378E+01  0.51100000000E-03 0. -1.
        -11    1    3    3    0    0 -0.75447688508E+01  0.11422411284E-01  0.40394625436E+01  0.85580912233E+01  0.51100000000E-03 0.  1.
        -12    1    3    3    0    0 -0.21000525979E+02 -0.23643951151E+02 -0.11025468258E+02  0.33490587748E+02  0.00000000000E+00 0.  1.
</event>
<event>
 7    1  0.5005325E-012  0.5052886E+02  0.7816164E-02  0.1300439E+00
        -11   -1    0    0    0    0  0.00000000000E+00  0.00000000000E+00  0.45593999997E+02  0.45594000000E+02  0.51100000000E-03 0. -1.
         11   -1    0    0    0    0 -0.00000000000E+00 -0.00000000000E+00 -0.45593999997E+02  0.45594000000E+02  0.51100000000E-03 0.  1.
    9900012    2    1    2    0    0  0.15862935123E+02 -0.28834752107E+01 -0.37325840087E+02  0.50528862304E+02  0.30000007459E+02 0.  0.
         12    1    1    2    0    0 -0.15862935123E+02  0.28834752107E+01  0.37325840087E+02  0.40659137696E+02  0.00000000000E+00 0. -1.
         11    1    3    3    0    0  0.36279249904E+01 -0.24552870529E+01  0.25659565203E+01  0.50768501429E+01  0.51100000000E-03 0. -1.
        -11    1    3    3    0    0  0.43945496770E+01 -0.50490691984E+00  0.36523317434E+00  0.44385125204E+01  0.51100000000E-03 0.  1.
        -12    1    3    3    0    0  0.78404604552E+01  0.76718762004E-01 -0.40257029782E+02  0.41013499641E+02  0.00000000000E+00 0.  1.
</event>
<event>
 7    1  0.5005325E-012  0.5052885E+02  0.7816164E-02  0.1300439E+00
        -11   -1    0    0    0    0  0.00000000000E+00  0.00000000000E+00  0.45593999997E+02  0.45594000000E+02  0.51100000000E-03 0. -1.
         11   -1    0    0    0    0 -0.00000000000E+00 -0.00000000000E+00 -0.45593999997E+02  0.45594000000E+02  0.51100000000E-03 0.  1.
    9900012    2    1    2    0    0  0.28360291767E+02 -0.22299552055E+02  0.18750747797E+02  0.50528847108E+02  0.29999961269E+02 0.  0.
        -12    1    1    2    0    0 -0.28360291767E+02  0.22299552055E+02 -0.18750747797E+02  0.40659152892E+02  0.00000000000E+00 0.  1.
         11    1    3    3    0    0  0.40292646777E+01  0.94061299929E+00  0.76746848063E+01  0.87189743545E+01  0.51100000000E-03 0. -1.
        -11    1    3    3    0    0  0.20070011856E+00 -0.14401601485E+02  0.60643309699E+01  0.15627620300E+02  0.51100000000E-03 0.  1.
         12    1    3    3    0    0  0.24130326971E+02 -0.88385635692E+01  0.50117320205E+01  0.26182252454E+02  0.00000000000E+00 0. -1.
</event>
<event>
 7    1  0.5005325E-012  0.5052886E+02  0.7816164E-02  0.1300439E+00
        -11   -1    0    0    0    0  0.00000000000E+00  0.00000000000E+00  0.45593999997E+02  0.45594000000E+02  0.51100000000E-03 0. -1.
         11   -1    0    0    0    0 -0.00000000000E+00 -0.00000000000E+00 -0.45593999997E+02  0.45594000000E+02  0.51100000000E-03 0.  1.
    9900012    2    1    2    0    0  0.81956456748E+01 -0.64176011249E+01  0.39304091074E+02  0.50528858501E+02  0.29999995901E+02 0.  0.
        -12    1    1    2    0    0 -0.81956456748E+01  0.64176011249E+01 -0.39304091074E+02  0.40659141499E+02  0.00000000000E+00 0.  1.
         11    1    3    3    0    0 -0.41605027806E+00  0.36493663227E+01  0.92048099315E+01  0.99105750856E+01  0.51100000000E-03 0. -1.
        -11    1    3    3    0    0  0.31043696315E+00 -0.38276257474E+00 -0.40939284702E+01  0.41234850402E+01  0.51100000000E-03 0.  1.
        -12    1    3    3    0    0  0.83012589897E+01 -0.96842048728E+01  0.34193209613E+02  0.36494798376E+02  0.00000000000E+00 0.  1.
</event>
<event>
 7    1  0.5005325E-012  0.5052887E+02  0.7816164E-02  0.1300439E+00
        -11   -1    0    0    0    0  0.00000000000E+00  0.00000000000E+00  0.45593999997E+02  0.45594000000E+02  0.51100000000E-03 0. -1.
         11   -1    0    0    0    0 -0.00000000000E+00 -0.00000000000E+00 -0.45593999997E+02  0.45594000000E+02  0.51100000000E-03 0.  1.
    9900012    2    1    2    0    0 -0.15021342440E+02  0.21197292860E+01 -0.37723076444E+02  0.50528874611E+02  0.30000044869E+02 0.  0.
         12    1    1    2    0    0  0.15021342440E+02 -0.21197292860E+01  0.37723076444E+02  0.40659125389E+02  0.00000000000E+00 0. -1.
         11    1    3    3    0    0 -0.11575719317E+02  0.20670773192E+01 -0.88314064409E+01  0.14705911272E+02  0.51100000000E-03 0. -1.
        -11    1    3    3    0    0 -0.26951984401E+01 -0.47841257651E+01  0.95854369517E+00  0.55741151984E+01  0.51100000000E-03 0.  1.
        -12    1    3    3    0    0 -0.75042468289E+00  0.48367777319E+01 -0.29850213699E+02  0.30248848141E+02  0.00000000000E+00 0.  1.
</event>
<event>
 7    1  0.5005325E-012  0.5052886E+02  0.7816164E-02  0.1300439E+00
        -11   -1    0    0    0    0  0.00000000000E+00  0.00000000000E+00  0.45593999997E+02  0.45594000000E+02  0.51100000000E-03 0. -1.
         11   -1    0    0    0    0 -0.00000000000E+00 -0.00000000000E+00 -0.45593999997E+02  0.45594000000E+02  0.51100000000E-03 0.  1.
    9900012    2    1    2    0    0  0.14104075366E+02 -0.17507053951E+02 -0.33878365174E+02  0.50528861951E+02  0.30000006387E+02 0.  0.
         12    1    1    2    0    0 -0.14104075366E+02  0.17507053951E+02  0.33878365174E+02  0.40659138049E+02  0.00000000000E+00 0. -1.
         11    1    3    3    0    0  0.10700012685E+02 -0.89793072316E+01 -0.48919493192E+01  0.14800317504E+02  0.51100000000E-03 0. -1.
        -11    1    3    3    0    0 -0.52464858525E+01 -0.10145685023E+02 -0.11815369791E+02  0.16433608914E+02  0.51100000000E-03 0.  1.
        -12    1    3    3    0    0  0.86505485334E+01  0.16179383038E+01 -0.17171046065E+02  0.19294935533E+02  0.00000000000E+00 0.  1.
</event>
<event>
 7    1  0.5005325E-012  0.5052886E+02  0.7816164E-02  0.1300439E+00
        -11   -1    0    0    0    0  0.00000000000E+00  0.00000000000E+00  0.45593999997E+02  0.45594000000E+02  0.51100000000E-03 0. -1.
         11   -1    0    0    0    0 -0.00000000000E+00 -0.00000000000E+00 -0.45593999997E+02  0.45594000000E+02  0.51100000000E-03 0.  1.
    9900012    2    1    2    0    0  0.33233176946E+02 -0.10557743000E+02 -0.20910652313E+02  0.50528863667E+02  0.30000011602E+02 0.  0.
         12    1    1    2    0    0 -0.33233176946E+02  0.10557743000E+02  0.20910652313E+02  0.40659136333E+02  0.00000000000E+00 0. -1.
         11    1    3    3    0    0  0.10114508380E+02  0.93773831464E+01 -0.95652117362E+01  0.16784870278E+02  0.51100000000E-03 0. -1.
        -11    1    3    3    0    0  0.97511375839E+01 -0.10025083556E+02 -0.72641113436E+00  0.14004094326E+02  0.51100000000E-03 0.  1.
        -12    1    3    3    0    0  0.13367530983E+02 -0.99100425895E+01 -0.10619029443E+02  0.19739899063E+02  0.00000000000E+00 0.  1.
</event>
<event>
 7    1  0.5005325E-012  0.5052887E+02  0.7816164E-02  0.1300439E+00
        -11   -1    0    0    0    0  0.00000000000E+00  0.00000000000E+00  0.45593999997E+02  0.45594000000E+02  0.51100000000E-03 0. -1.
         11   -1    0    0    0    0 -0.00000000000E+00 -0.00000000000E+00 -0.45593999997E+02  0.45594000000E+02  0.51100000000E-03 0.  1.
    9900012    2    1    2    0    0  0.57985086880E+01  0.32427930495E+02 -0.23832150276E+02  0.50528871062E+02  0.30000034081E+02 0.  0.
         12    1    1    2    0    0 -0.57985086880E+01 -0.32427930495E+02  0.23832150276E+02  0.40659128938E+02  0.00000000000E+00 0. -1.
         11    1    3    3    0    0  0.16240610119E+01  0.22969453191E+02 -0.30832745606E+01  0.23232303725E+02  0.51100000000E-03 0. -1.
        -11    1    3    3    0    0  0.55055941787E+00  0.12178803692E+02 -0.10496063844E+02  0.16087067214E+02  0.51100000000E-03 0.  1.
         12    1    3    3    0    0  0.36238882582E+01 -0.27203263885E+01 -0.10252811871E+02  0.11209500124E+02  0.00000000000E+00 0. -1.
</event>
<event>
 7    1  0.5005325E-012  0.5052886E+02  0.7816164E-02  0.1300439E+00
        -11   -1    0    0    0    0  0.00000000000E+00  0.00000000000E+00  0.45593999997E+02  0.45594000000E+02  0.51100000000E-03 0. -1.
         11   -1    0    0    0    0 -0.00000000000E+00 -0.00000000000E+00 -0.45593999997E+02  0.45594000000E+02  0.51100000000E-03 0.  1.
    9900012    2    1    2    0    0 -0.19249895745E+02 -0.24655035231E+02  0.25975682801E+02  0.50528863937E+02  0.30000012422E+02 0.  0.
        -12    1    1    2    0    0  0.19249895745E+02  0.24655035231E+02 -0.25975682801E+02  0.40659136063E+02  0.00000000000E+00 0.  1.
         11    1    3    3    0    0 -0.84830393194E+01 -0.43681957843E+01  0.49706355918E+01  0.10758731754E+02  0.51100000000E-03 0. -1.
        -11    1    3    3    0    0 -0.22078650641E+01  0.17184995422E+01  0.15200515776E+02  0.15455859373E+02  0.51100000000E-03 0.  1.
        -12    1    3    3    0    0 -0.85589913614E+01 -0.22005338989E+02  0.58045314328E+01  0.24314272810E+02  0.00000000000E+00 0.  1.
</event>
<event>
 7    1  0.5005325E-012  0.5052886E+02  0.7816164E-02  0.1300439E+00
        -11   -1    0    0    0    0  0.00000000000E+00  0.00000000000E+00  0.45593999997E+02  0.45594000000E+02  0.51100000000E-03 0. -1.
         11   -1    0    0    0    0 -0.00000000000E+00 -0.00000000000E+00 -0.45593999997E+02  0.45594000000E+02  0.51100000000E-03 0.  1.
    9900012    2    1    2    0    0  0.26623552467E+02 -0.28109341333E+02  0.12418405954E+02  0.50528862988E+02  0.30000009539E+02 0.  0.
        -12    1    1    2    0    0 -0.26623552467E+02  0.28109341333E+02 -0.12418405954E+02  0.40659137012E+02  0.00000000000E+00 0.  1.
         11    1    3    3    0    0  0.12647268535E+01 -0.16489539180E+01  0.11551769255E+02  0.11737203935E+02  0.51100000000E-03 0. -1.
        -11    1    3    3    0    0  0.33808547090E+01 -0.10825592215E+02 -0.24912798210E+01  0.11611636438E+02  0.51100000000E-03 0.  1.
        -12    1    3    3    0    0  0.21977970904E+02 -0.15634795200E+02  0.33579165200E+01  0.27180022615E+02  0.00000000000E+00 0.  1.
</event>
<event>
 7    1  0.5005325E-012  0.5052886E+02  0.7816164E-02  0.1300439E+00
        -11   -1    0    0    0    0  0.00000000000E+00  0.00000000000E+00  0.45593999997E+02  0.45594000000E+02  0.51100000000E-03 0. -1.
         11   -1    0    0    0    0 -0.00000000000E+00 -0.00000000000E+00 -0.45593999997E+02  0.45594000000E+02  0.51100000000E-03 0.  1.
    9900012    2    1    2    0    0 -0.12195745423E+02 -0.10395673947E+01 -0.38773043324E+02  0.50528858403E+02  0.29999995602E+02 0.  0.
         12    1    1    2    0    0  0.12195745423E+02  0.10395673947E+01  0.38773043324E+02  0.40659141597E+02  0.00000000000E+00 0. -1.
         11    1    3    3    0    0 -0.60973613100E+01  0.75258779179E+01 -0.87214075736E+01  0.13033787006E+02  0.51100000000E-03 0. -1.
        -11    1    3    3    0    0  0.15009545987E+01  0.52647492501E+01 -0.31762605368E+01  0.63292243310E+01  0.51100000000E-03 0.  1.
        -12    1    3    3    0    0 -0.75993387118E+01 -0.13830194563E+02 -0.26875375214E+02  0.31165847067E+02  0.00000000000E+00 0.  1.
</event>
<event>
 7    1  0.5005325E-012  0.5052886E+02  0.7816164E-02  0.1300439E+00
        -11   -1    0    0    0    0  0.00000000000E+00  0.00000000000E+00  0.45593999997E+02  0.45594000000E+02  0.51100000000E-03 0. -1.
         11   -1    0    0    0    0 -0.00000000000E+00 -0.00000000000E+00 -0.45593999997E+02  0.45594000000E+02  0.51100000000E-03 0.  1.
    9900012    2    1    2    0    0 -0.33050581977E+02  0.15158250620E+02  0.18194841312E+02  0.50528858577E+02  0.29999996131E+02 0.  0.
        -12    1    1    2    0    0  0.33050581977E+02 -0.15158250620E+02 -0.18194841312E+02  0.40659141423E+02  0.00000000000E+00 0.  1.
         11    1    3    3    0    0  0.18413316743E+01  0.11758263856E+00  0.57601263666E+01  0.60484199616E+01  0.51100000000E-03 0. -1.
        -11    1    3    3    0    0 -0.25195779246E+02  0.58336674564E+00  0.88205829847E+01  0.26701503573E+02  0.51100000000E-03 0.  1.
         12    1    3    3    0    0 -0.96961344050E+01  0.14457301236E+02  0.36141319609E+01  0.17778935043E+02  0.00000000000E+00 0. -1.
</event>
<event>
 7    1  0.5005325E-012  0.5052887E+02  0.7816164E-02  0.1300439E+00
        -11   -1    0    0    0    0  0.00000000000E+00  0.00000000000E+00  0.45593999997E+02  0.45594000000E+02  0.51100000000E-03 0. -1.
         11   -1    0    0    0    0 -0.00000000000E+00 -0.00000000000E+00 -0.45593999997E+02  0.45594000000E+02  0.51100000000E-03 0.  1.
    9900012    2    1    2    0    0 -0.14849756268E+02  0.26146785987E+02  0.27367775457E+02  0.50528870495E+02  0.30000032357E+02 0.  0.
        -12    1    1    2    0    0  0.14849756268E+02 -0.26146785987E+02 -0.27367775457E+02  0.40659129505E+02  0.00000000000E+00 0.  1.
         11    1    3    3    0    0 -0.57935353543E+01  0.92783969054E+01  0.14046201351E+02  0.17803074838E+02  0.51100000000E-03 0. -1.
        -11    1    3    3    0    0 -0.51257665510E+01  0.22312501812E+02  0.83419132844E+01  0.24366139156E+02  0.51100000000E-03 0.  1.
        -12    1    3    3    0    0 -0.39304543629E+01 -0.54441127309E+01  0.49796608216E+01  0.83596565015E+01  0.00000000000E+00 0.  1.
</event>
<event>
 7    1  0.5005325E-012  0.5052885E+02  0.7816164E-02  0.1300439E+00
        -11   -1    0    0    0    0  0.00000000000E+00  0.00000000000E+00  0.45593999997E+02  0.45594000000E+02  0.51100000000E-03 0. -1.
         11   -1    0    0    0    0 -0.00000000000E+00 -0.00000000000E+00 -0.45593999997E+02  0.45594000000E+02  0.51100000000E-03 0.  1.
    9900012    2    1    2    0    0  0.17644019361E+02 -0.22080417221E+02  0.29228589956E+02  0.50528847099E+02  0.29999961241E+02 0.  0.
        -12    1    1    2    0    0 -0.17644019361E+02  0.22080417221E+02 -0.29228589956E+02  0.40659152901E+02  0.00000000000E+00 0.  1.
         11    1    3    3    0    0  0.63654555449E+01 -0.25224079653E+02  0.21292546270E+02  0.33617640393E+02  0.51100000000E-03 0. -1.
        -11    1    3    3    0    0  0.82962626481E+00 -0.26601147524E+01  0.49058572086E+00  0.28293400019E+01  0.51100000000E-03 0.  1.
        -12    1    3    3    0    0  0.10448937551E+02  0.58037771852E+01  0.74454579652E+01  0.14081866704E+02  0.00000000000E+00 0.  1.
</event>
<event>
 7    1  0.5005325E-012  0.5052887E+02  0.7816164E-02  0.1300439E+00
        -11   -1    0    0    0    0  0.00000000000E+00  0.00000000000E+00  0.45593999997E+02  0.45594000000E+02  0.51100000000E-03 0. -1.
         11   -1    0    0    0    0 -0.00000000000E+00 -0.00000000000E+00 -0.45593999997E+02  0.45594000000E+02  0.51100000000E-03 0.  1.
    9900012    2    1    2    0    0 -0.11825942041E+02 -0.25237022804E+02 -0.29604136401E+02  0.50528866743E+02  0.30000020953E+02 0.  0.
         12    1    1    2    0    0  0.11825942041E+02  0.25237022804E+02  0.29604136401E+02  0.40659133257E+02  0.00000000000E+00 0. -1.
         11    1    3    3    0    0 -0.22884345446E+01  0.12658749370E+00  0.25224324427E+01  0.34081699998E+01  0.51100000000E-03 0. -1.
        -11    1    3    3    0    0 -0.14980322426E+02 -0.98610676814E+01 -0.14917342539E+02  0.23327619349E+02  0.51100000000E-03 0.  1.
         12    1    3    3    0    0  0.54428149296E+01 -0.15502542616E+02 -0.17209226305E+02  0.23793077395E+02  0.00000000000E+00 0. -1.
</event>
<event>
 7    1  0.5005325E-012  0.5052886E+02  0.7816164E-02  0.1300439E+00
        -11   -1    0    0    0    0  0.00000000000E+00  0.00000000000E+00  0.45593999997E+02  0.45594000000E+02  0.51100000000E-03 0. -1.
         11   -1    0    0    0    0 -0.00000000000E+00 -0.00000000000E+00 -0.45593999997E+02  0.45594000000E+02  0.51100000000E-03 0.  1.
    9900012    2    1    2    0    0 -0.26193361148E+02  0.63653403444E+01 -0.30439384525E+02  0.50528857656E+02  0.29999993330E+02 0.  0.
         12    1    1    2    0    0  0.26193361148E+02 -0.63653403444E+01  0.30439384525E+02  0.40659142344E+02  0.00000000000E+00 0. -1.
         11    1    3    3    0    0 -0.13523173648E+02  0.14977543871E+01 -0.22867237695E+02  0.26608834131E+02  0.51100000000E-03 0.  1.
        -11    1    3    3    0    0 -0.20424724797E+01 -0.58696034534E+01 -0.61539374033E+01  0.87461353955E+01  0.51100000000E-03 0. -1.
         12    1    3    3    0    0 -0.10627715020E+02  0.10737189411E+02 -0.14182094262E+01  0.15173888129E+02  0.00000000000E+00 0. -1.
</event>
<event>
 7    1  0.5005325E-012  0.5052888E+02  0.7816164E-02  0.1300439E+00
        -11   -1    0    0    0    0  0.00000000000E+00  0.00000000000E+00  0.45593999997E+02  0.45594000000E+02  0.51100000000E-03 0. -1.
         11   -1    0    0    0    0 -0.00000000000E+00 -0.00000000000E+00 -0.45593999997E+02  0.45594000000E+02  0.51100000000E-03 0.  1.
    9900012    2    1    2    0    0 -0.24382618047E+01  0.54076487294E+01  0.40224079818E+02  0.50528875777E+02  0.30000048411E+02 0.  0.
        -12    1    1    2    0    0  0.24382618047E+01 -0.54076487294E+01 -0.40224079818E+02  0.40659124223E+02  0.00000000000E+00 0.  1.
         11    1    3    3    0    0  0.56705860860E+01  0.41496718694E+01 -0.12878658100E+00  0.70279377791E+01  0.51100000000E-03 0.  1.
        -11    1    3    3    0    0  0.20239982998E+01  0.49940832027E+01  0.15228601119E+02  0.16153876576E+02  0.51100000000E-03 0. -1.
         12    1    3    3    0    0 -0.10132846191E+02 -0.37361063426E+01  0.25124265280E+02  0.27347061421E+02  0.00000000000E+00 0. -1.
</event>
<event>
 7    1  0.5005325E-012  0.5052886E+02  0.7816164E-02  0.1300439E+00
        -11   -1    0    0    0    0  0.00000000000E+00  0.00000000000E+00  0.45593999997E+02  0.45594000000E+02  0.51100000000E-03 0. -1.
         11   -1    0    0    0    0 -0.00000000000E+00 -0.00000000000E+00 -0.45593999997E+02  0.45594000000E+02  0.51100000000E-03 0.  1.
    9900012    2    1    2    0    0 -0.52465143973E+01 -0.25688740223E+02 -0.31076168554E+02  0.50528861549E+02  0.30000005165E+02 0.  0.
         12    1    1    2    0    0  0.52465143973E+01  0.25688740223E+02  0.31076168554E+02  0.40659138451E+02  0.00000000000E+00 0. -1.
         11    1    3    3    0    0  0.56266362130E+00 -0.26123870795E+02 -0.23799220799E+02  0.35343685809E+02  0.51100000000E-03 0.  1.
        -11    1    3    3    0    0  0.14643266628E+01  0.13420233860E+01  0.23554041283E+01  0.30811050311E+01  0.51100000000E-03 0. -1.
        -12    1    3    3    0    0 -0.72735046814E+01 -0.90689281382E+00 -0.96323518831E+01  0.12104070709E+02  0.00000000000E+00 0.  1.
</event>
<event>
 7    1  0.5005325E-012  0.5052886E+02  0.7816164E-02  0.1300439E+00
        -11   -1    0    0    0    0  0.00000000000E+00  0.00000000000E+00  0.45593999997E+02  0.45594000000E+02  0.51100000000E-03 0. -1.
         11   -1    0    0    0    0 -0.00000000000E+00 -0.00000000000E+00 -0.45593999997E+02  0.45594000000E+02  0.51100000000E-03 0.  1.
    9900012    2    1    2    0    0 -0.22861937303E+02  0.27271041916E+02  0.19666921507E+02  0.50528859503E+02  0.29999998945E+02 0.  0.
        -12    1    1    2    0    0  0.22861937303E+02 -0.27271041916E+02 -0.19666921507E+02  0.40659140497E+02  0.00000000000E+00 0.  1.
         11    1    3    3    0    0 -0.17293540055E+02  0.20956555657E+02  0.10741455796E+02  0.29216820934E+02  0.51100000000E-03 0. -1.
        -11    1    3    3    0    0 -0.31727723851E+01  0.12371467062E+02  0.50584387875E+01  0.13737084301E+02  0.51100000000E-03 0.  1.
        -12    1    3    3    0    0 -0.23956248630E+01 -0.60569808026E+01  0.38670269235E+01  0.75749542675E+01  0.00000000000E+00 0.  1.
</event>
<event>
 7    1  0.5005325E-012  0.5052886E+02  0.7816164E-02  0.1300439E+00
        -11   -1    0    0    0    0  0.00000000000E+00  0.00000000000E+00  0.45593999997E+02  0.45594000000E+02  0.51100000000E-03 0. -1.
         11   -1    0    0    0    0 -0.00000000000E+00 -0.00000000000E+00 -0.45593999997E+02  0.45594000000E+02  0.51100000000E-03 0.  1.
    9900012    2    1    2    0    0 -0.15938078966E+02 -0.14515241102E+02 -0.34473921193E+02  0.50528858005E+02  0.29999994392E+02 0.  0.
         12    1    1    2    0    0  0.15938078966E+02  0.14515241102E+02  0.34473921193E+02  0.40659141995E+02  0.00000000000E+00 0. -1.
         11    1    3    3    0    0  0.26953359664E+01 -0.89679582971E+01 -0.81137700959E+01  0.12390414740E+02  0.51100000000E-03 0. -1.
        -11    1    3    3    0    0 -0.28051391143E+01  0.33616245134E+01 -0.17291385176E+02  0.17837077294E+02  0.51100000000E-03 0.  1.
        -12    1    3    3    0    0 -0.15828275818E+02 -0.89089073183E+01 -0.90687659210E+01  0.20301365972E+02  0.00000000000E+00 0.  1.
</event>
<event>
 7    1  0.5005325E-012  0.5052886E+02  0.7816164E-02  0.1300439E+00
        -11   -1    0    0    0    0  0.00000000000E+00  0.00000000000E+00  0.45593999997E+02  0.45594000000E+02  0.51100000000E-03 0. -1.
         11   -1    0    0    0    0 -0.00000000000E+00 -0.00000000000E+00 -0.45593999997E+02  0.45594000000E+02  0.51100000000E-03 0.  1.
    9900012    2    1    2    0    0  0.29555197944E+02 -0.22237390175E+02  0.16886510259E+02  0.50528862331E+02  0.30000007540E+02 0.  0.
        -12    1    1    2    0    0 -0.29555197944E+02  0.22237390175E+02 -0.16886510259E+02  0.40659137669E+02  0.00000000000E+00 0.  1.
         11    1    3    3    0    0  0.15783661735E+02 -0.37153886245E+01  0.69422219238E+01  0.17638665933E+02  0.51100000000E-03 0. -1.
        -11    1    3    3    0    0  0.14807939491E+02 -0.27791546333E+01  0.78073987409E+01  0.16969214708E+02  0.51100000000E-03 0.  1.
         12    1    3    3    0    0 -0.10364032823E+01 -0.15742846917E+02  0.21368895941E+01  0.15920981689E+02  0.00000000000E+00 0. -1.
</event>
<event>
 7    1  0.5005325E-012  0.5052886E+02  0.7816164E-02  0.1300439E+00
        -11   -1    0    0    0    0  0.00000000000E+00  0.00000000000E+00  0.45593999997E+02  0.45594000000E+02  0.51100000000E-03 0. -1.
         11   -1    0    0    0    0 -0.00000000000E+00 -0.00000000000E+00 -0.45593999997E+02  0.45594000000E+02  0.51100000000E-03 0.  1.
    9900012    2    1    2    0    0 -0.16119477054E+02 -0.20115022101E+00 -0.37326768872E+02  0.50528859867E+02  0.30000000053E+02 0.  0.
         12    1    1    2    0    0  0.16119477054E+02  0.20115022101E+00  0.37326768872E+02  0.40659140133E+02  0.00000000000E+00 0. -1.
         11    1    3    3    0    0 -0.37574001582E+01  0.52527690245E+01 -0.12513624808E+02  0.14081919063E+02  0.51100000000E-03 0. -1.
        -11    1    3    3    0    0 -0.18167362745E+02 -0.21441368124E+01 -0.11659603754E+02  0.21693242076E+02  0.51100000000E-03 0.  1.
         12    1    3    3    0    0  0.58052858488E+01 -0.33097824332E+01 -0.13153540309E+02  0.14753698729E+02  0.00000000000E+00 0. -1.
</event>
<event>
 7    1  0.5005325E-012  0.5052886E+02  0.7816164E-02  0.1300439E+00
        -11   -1    0    0    0    0  0.00000000000E+00  0.00000000000E+00  0.45593999997E+02  0.45594000000E+02  0.51100000000E-03 0. -1.
         11   -1    0    0    0    0 -0.00000000000E+00 -0.00000000000E+00 -0.45593999997E+02  0.45594000000E+02  0.51100000000E-03 0.  1.
    9900012    2    1    2    0    0  0.37010287068E+00  0.31340496916E+02 -0.25899843984E+02  0.50528860296E+02  0.30000001356E+02 0.  0.
         12    1    1    2    0    0 -0.37010287068E+00 -0.31340496916E+02  0.25899843984E+02  0.40659139704E+02  0.00000000000E+00 0. -1.
         11    1    3    3    0    0  0.57303996530E+01  0.32226851202E+01 -0.69389866221E+01  0.95589076348E+01  0.51100000000E-03 0.  1.
        -11    1    3    3    0    0 -0.53910942005E+01  0.11841952496E+02  0.32718239842E+01  0.13416429034E+02  0.51100000000E-03 0. -1.
         12    1    3    3    0    0  0.30797418103E-01  0.16275859300E+02 -0.22232681346E+02  0.27553523627E+02  0.00000000000E+00 0. -1.
</event>
<event>
 7    1  0.5005325E-012  0.5052886E+02  0.7816164E-02  0.1300439E+00
        -11   -1    0    0    0    0  0.00000000000E+00  0.00000000000E+00  0.45593999997E+02  0.45594000000E+02  0.51100000000E-03 0. -1.
         11   -1    0    0    0    0 -0.00000000000E+00 -0.00000000000E+00 -0.45593999997E+02  0.45594000000E+02  0.51100000000E-03 0.  1.
    9900012    2    1    2    0    0 -0.33376233952E+02 -0.31090221022E+01  0.23011448748E+02  0.50528858534E+02  0.29999996000E+02 0.  0.
        -12    1    1    2    0    0  0.33376233952E+02  0.31090221022E+01 -0.23011448748E+02  0.40659141466E+02  0.00000000000E+00 0.  1.
         11    1    3    3    0    0 -0.31854617395E+02  0.30452148865E+01  0.16144467481E+02  0.35841788650E+02  0.51100000000E-03 0. -1.
        -11    1    3    3    0    0 -0.26366700794E+01  0.13255621429E+00  0.77997143756E+01  0.82343879469E+01  0.51100000000E-03 0.  1.
        -12    1    3    3    0    0  0.11150535222E+01 -0.62867932030E+01 -0.93273310902E+00  0.64526819376E+01  0.00000000000E+00 0.  1.
</event>
<event>
 7    1  0.5005325E-012  0.5052886E+02  0.7816164E-02  0.1300439E+00
        -11   -1    0    0    0    0  0.00000000000E+00  0.00000000000E+00  0.45593999997E+02  0.45594000000E+02  0.51100000000E-03 0. -1.
         11   -1    0    0    0    0 -0.00000000000E+00 -0.00000000000E+00 -0.45593999997E+02  0.45594000000E+02  0.51100000000E-03 0.  1.
    9900012    2    1    2    0    0 -0.47349742710E+01  0.23818096736E+02  0.32610492606E+02  0.50528856607E+02  0.29999990142E+02 0.  0.
        -12    1    1    2    0    0  0.47349742710E+01 -0.23818096736E+02 -0.32610492606E+02  0.40659143393E+02  0.00000000000E+00 0.  1.
         11    1    3    3    0    0 -0.41953400344E+01 -0.37531246059E+01  0.21883375364E+01  0.60395069125E+01  0.51100000000E-03 0. -1.
        -11    1    3    3    0    0 -0.26012271938E+01  0.69689791909E+01 -0.29619948563E+00  0.74445139716E+01  0.51100000000E-03 0.  1.
         12    1    3    3    0    0  0.20615929572E+01  0.20602242151E+02  0.30718354555E+02  0.37044835723E+02  0.00000000000E+00 0. -1.
</event>
<event>
 7    1  0.5005325E-012  0.5052887E+02  0.7816164E-02  0.1300439E+00
        -11   -1    0    0    0    0  0.00000000000E+00  0.00000000000E+00  0.45593999997E+02  0.45594000000E+02  0.51100000000E-03 0. -1.
         11   -1    0    0    0    0 -0.00000000000E+00 -0.00000000000E+00 -0.45593999997E+02  0.45594000000E+02  0.51100000000E-03 0.  1.
    9900012    2    1    2    0    0  0.21357456953E+02 -0.16053716105E+02 -0.30648034056E+02  0.50528871138E+02  0.30000034311E+02 0.  0.
         12    1    1    2    0    0 -0.21357456953E+02  0.16053716105E+02  0.30648034056E+02  0.40659128862E+02  0.00000000000E+00 0. -1.
         11    1    3    3    0    0  0.80877670072E+01 -0.94978577056E+00 -0.58759450477E+01  0.10041951934E+02  0.51100000000E-03 0. -1.
        -11    1    3    3    0    0  0.14908604021E+02 -0.19735999783E+02 -0.25494007155E+02  0.35520706107E+02  0.51100000000E-03 0.  1.
        -12    1    3    3    0    0 -0.16389140751E+01  0.46320694481E+01  0.72191814623E+00  0.49662130973E+01  0.00000000000E+00 0.  1.
</event>
<event>
 7    1  0.5005325E-012  0.5052886E+02  0.7816164E-02  0.1300439E+00
        -11   -1    0    0    0    0  0.00000000000E+00  0.00000000000E+00  0.45593999997E+02  0.45594000000E+02  0.51100000000E-03 0. -1.
         11   -1    0    0    0    0 -0.00000000000E+00 -0.00000000000E+00 -0.45593999997E+02  0.45594000000E+02  0.51100000000E-03 0.  1.
    9900012    2    1    2    0    0 -0.93908340138E+01 -0.69515914789E+01 -0.38944232404E+02  0.50528860497E+02  0.30000001967E+02 0.  0.
         12    1    1    2    0    0  0.93908340138E+01  0.69515914789E+01  0.38944232404E+02  0.40659139503E+02  0.00000000000E+00 0. -1.
         11    1    3    3    0    0 -0.60843793280E+01  0.48291475165E+01 -0.12033766225E+01  0.78605631541E+01  0.51100000000E-03 0. -1.
        -11    1    3    3    0    0 -0.76809787833E+01 -0.11946806064E+01 -0.20922749403E+02  0.22320083774E+02  0.51100000000E-03 0.  1.
         12    1    3    3    0    0  0.43745240975E+01 -0.10586058389E+02 -0.16818106379E+02  0.20348213569E+02  0.00000000000E+00 0. -1.
</event>
<event>
 7    1  0.5005325E-012  0.5052884E+02  0.7816164E-02  0.1300439E+00
        -11   -1    0    0    0    0  0.00000000000E+00  0.00000000000E+00  0.45593999997E+02  0.45594000000E+02  0.51100000000E-03 0. -1.
         11   -1    0    0    0    0 -0.00000000000E+00 -0.00000000000E+00 -0.45593999997E+02  0.45594000000E+02  0.51100000000E-03 0.  1.
    9900012    2    1    2    0    0 -0.15276290046E+02 -0.22232376298E+02  0.30422416519E+02  0.50528843341E+02  0.29999949819E+02 0.  0.
        -12    1    1    2    0    0  0.15276290046E+02  0.22232376298E+02 -0.30422416519E+02  0.40659156659E+02  0.00000000000E+00 0.  1.
         11    1    3    3    0    0 -0.10274294677E+01  0.48303386651E+01  0.10509046645E+01  0.50489784913E+01  0.51100000000E-03 0.  1.
        -11    1    3    3    0    0 -0.13073931261E+02 -0.10918354069E+02  0.21644489888E+02  0.27543094905E+02  0.51100000000E-03 0. -1.
        -12    1    3    3    0    0 -0.11749293170E+01 -0.16144360894E+02  0.77270219664E+01  0.17936769944E+02  0.00000000000E+00 0.  1.
</event>
<event>
 7    1  0.5005325E-012  0.5052886E+02  0.7816164E-02  0.1300439E+00
        -11   -1    0    0    0    0  0.00000000000E+00  0.00000000000E+00  0.45593999997E+02  0.45594000000E+02  0.51100000000E-03 0. -1.
         11   -1    0    0    0    0 -0.00000000000E+00 -0.00000000000E+00 -0.45593999997E+02  0.45594000000E+02  0.51100000000E-03 0.  1.
    9900012    2    1    2    0    0  0.79540528904E+01 -0.33039898415E+02  0.22321828584E+02  0.50528857412E+02  0.29999992590E+02 0.  0.
        -12    1    1    2    0    0 -0.79540528904E+01  0.33039898415E+02 -0.22321828584E+02  0.40659142588E+02  0.00000000000E+00 0.  1.
         11    1    3    3    0    0  0.32919346456E+01  0.14035000407E+00  0.11080603532E+02  0.11560117072E+02  0.51100000000E-03 0. -1.
        -11    1    3    3    0    0  0.74767890567E+01 -0.53025024844E+01  0.14068300675E+01  0.92735148835E+01  0.51100000000E-03 0.  1.
         12    1    3    3    0    0 -0.28146708119E+01 -0.27877745935E+02  0.98343949843E+01  0.29695225456E+02  0.00000000000E+00 0. -1.
</event>
<event>
 7    1  0.5005325E-012  0.5052886E+02  0.7816164E-02  0.1300439E+00
        -11   -1    0    0    0    0  0.00000000000E+00  0.00000000000E+00  0.45593999997E+02  0.45594000000E+02  0.51100000000E-03 0. -1.
         11   -1    0    0    0    0 -0.00000000000E+00 -0.00000000000E+00 -0.45593999997E+02  0.45594000000E+02  0.51100000000E-03 0.  1.
    9900012    2    1    2    0    0  0.47079818753E+01 -0.17772743596E+02 -0.36264725363E+02  0.50528858176E+02  0.29999994911E+02 0.  0.
         12    1    1    2    0    0 -0.47079818753E+01  0.17772743596E+02  0.36264725363E+02  0.40659141824E+02  0.00000000000E+00 0. -1.
         11    1    3    3    0    0  0.54393243964E+01 -0.67514526652E+01 -0.14434875921E+02  0.16838468045E+02  0.51100000000E-03 0. -1.
        -11    1    3    3    0    0 -0.42915958074E+01 -0.82040986897E+01 -0.25954489875E+02  0.27556497869E+02  0.51100000000E-03 0.  1.
         12    1    3    3    0    0  0.35602532863E+01 -0.28171922409E+01  0.41246404329E+01  0.61338922623E+01  0.00000000000E+00 0. -1.
</event>
<event>
 7    1  0.5005325E-012  0.5052884E+02  0.7816164E-02  0.1300439E+00
        -11   -1    0    0    0    0  0.00000000000E+00  0.00000000000E+00  0.45593999997E+02  0.45594000000E+02  0.51100000000E-03 0. -1.
         11   -1    0    0    0    0 -0.00000000000E+00 -0.00000000000E+00 -0.45593999997E+02  0.45594000000E+02  0.51100000000E-03 0.  1.
    9900012    2    1    2    0    0  0.21825760974E+02 -0.33709987393E+01 -0.34138534159E+02  0.50528843723E+02  0.29999950980E+02 0.  0.
         12    1    1    2    0    0 -0.21825760974E+02  0.33709987393E+01  0.34138534159E+02  0.40659156277E+02  0.00000000000E+00 0. -1.
         11    1    3    3    0    0  0.54015376498E+01 -0.10036086321E+02 -0.14227990256E+02  0.18230067049E+02  0.51100000000E-03 0. -1.
        -11    1    3    3    0    0  0.16266709889E+02 -0.20842035614E+01 -0.10631106819E+02  0.19544057602E+02  0.51100000000E-03 0.  1.
         12    1    3    3    0    0  0.15751343554E+00  0.87492911433E+01 -0.92794370846E+01  0.12754719072E+02  0.00000000000E+00 0. -1.
</event>
<event>
 7    1  0.5005325E-012  0.5052886E+02  0.7816164E-02  0.1300439E+00
        -11   -1    0    0    0    0  0.00000000000E+00  0.00000000000E+00  0.45593999997E+02  0.45594000000E+02  0.51100000000E-03 0. -1.
         11   -1    0    0    0    0 -0.00000000000E+00 -0.00000000000E+00 -0.45593999997E+02  0.45594000000E+02  0.51100000000E-03 0.  1.
    9900012    2    1    2    0    0  0.25079398563E+02 -0.86082275430E+01  0.30823494154E+02  0.50528860737E+02  0.30000002698E+02 0.  0.
        -12    1    1    2    0    0 -0.25079398563E+02  0.86082275430E+01 -0.30823494154E+02  0.40659139263E+02  0.00000000000E+00 0.  1.
         11    1    3    3    0    0  0.61040833083E+01  0.40876050345E+01  0.94865369064E+01  0.11998447012E+02  0.51100000000E-03 0. -1.
        -11    1    3    3    0    0 -0.45607735026E+01  0.12929055962E-01  0.65073553329E+01  0.79464769422E+01  0.51100000000E-03 0.  1.
         12    1    3    3    0    0  0.23536088757E+02 -0.12708761634E+02  0.14829601915E+02  0.30583936784E+02  0.00000000000E+00 0. -1.
</event>
<event>
 7    1  0.5005325E-012  0.5052886E+02  0.7816164E-02  0.1300439E+00
        -11   -1    0    0    0    0  0.00000000000E+00  0.00000000000E+00  0.45593999997E+02  0.45594000000E+02  0.51100000000E-03 0. -1.
         11   -1    0    0    0    0 -0.00000000000E+00 -0.00000000000E+00 -0.45593999997E+02  0.45594000000E+02  0.51100000000E-03 0.  1.
    9900012    2    1    2    0    0 -0.70667133082E+01  0.29922827701E+02  0.26605474167E+02  0.50528864369E+02  0.30000013737E+02 0.  0.
        -12    1    1    2    0    0  0.70667133082E+01 -0.29922827701E+02 -0.26605474167E+02  0.40659135631E+02  0.00000000000E+00 0.  1.
         11    1    3    3    0    0  0.60464805656E+01  0.16739787521E+02  0.41589746603E+01  0.18277786627E+02  0.51100000000E-03 0. -1.
        -11    1    3    3    0    0 -0.16851735728E+01 -0.18310443625E+01  0.83092568119E+01  0.86738850842E+01  0.51100000000E-03 0.  1.
         12    1    3    3    0    0 -0.11428020301E+02  0.15014084542E+02  0.14137242694E+02  0.23577192658E+02  0.00000000000E+00 0. -1.
</event>
<event>
 7    1  0.5005325E-012  0.5052886E+02  0.7816164E-02  0.1300439E+00
        -11   -1    0    0    0    0  0.00000000000E+00  0.00000000000E+00  0.45593999997E+02  0.45594000000E+02  0.51100000000E-03 0. -1.
         11   -1    0    0    0    0 -0.00000000000E+00 -0.00000000000E+00 -0.45593999997E+02  0.45594000000E+02  0.51100000000E-03 0.  1.
    9900012    2    1    2    0    0  0.20341488789E+02 -0.34677709946E+02 -0.60700703339E+01  0.50528862194E+02  0.30000007124E+02 0.  0.
        -12    1    1    2    0    0 -0.20341488789E+02  0.34677709946E+02  0.60700703339E+01  0.40659137806E+02  0.00000000000E+00 0.  1.
         11    1    3    3    0    0 -0.23922896877E+01 -0.11786254126E+00  0.11643249477E+01  0.26631925153E+01  0.51100000000E-03 0.  1.
        -11    1    3    3    0    0  0.60871635002E+01 -0.27575141388E+02  0.45743471384E+00  0.28242719926E+02  0.51100000000E-03 0. -1.
         12    1    3    3    0    0  0.16646614976E+02 -0.69847060176E+01 -0.76918299955E+01  0.19622949753E+02  0.00000000000E+00 0. -1.
</event>
<event>
 7    1  0.5005325E-012  0.5052887E+02  0.7816164E-02  0.1300439E+00
        -11   -1    0    0    0    0  0.00000000000E+00  0.00000000000E+00  0.45593999997E+02  0.45594000000E+02  0.51100000000E-03 0. -1.
         11   -1    0    0    0    0 -0.00000000000E+00 -0.00000000000E+00 -0.45593999997E+02  0.45594000000E+02  0.51100000000E-03 0.  1.
    9900012    2    1    2    0    0 -0.13878631868E+01  0.33115979336E+02 -0.23549320749E+02  0.50528871143E+02  0.30000034327E+02 0.  0.
         12    1    1    2    0    0  0.13878631868E+01 -0.33115979336E+02  0.23549320749E+02  0.40659128857E+02  0.00000000000E+00 0. -1.
         11    1    3    3    0    0  0.19176200502E+01  0.15709635312E+02 -0.18280809229E+01  0.15931471634E+02  0.51100000000E-03 0. -1.
        -11    1    3    3    0    0  0.70521073746E+01  0.13541732579E+02 -0.16125419858E+02  0.22206753602E+02  0.51100000000E-03 0.  1.
        -12    1    3    3    0    0 -0.10357590612E+02  0.38646114451E+01 -0.55958199680E+01  0.12390645908E+02  0.00000000000E+00 0.  1.
</event>
<event>
 7    1  0.5005325E-012  0.5052886E+02  0.7816164E-02  0.1300439E+00
        -11   -1    0    0    0    0  0.00000000000E+00  0.00000000000E+00  0.45593999997E+02  0.45594000000E+02  0.51100000000E-03 0.  1.
         11   -1    0    0    0    0 -0.00000000000E+00 -0.00000000000E+00 -0.45593999997E+02  0.45594000000E+02  0.51100000000E-03 0. -1.
    9900012    2    1    2    0    0 -0.26828387128E+02 -0.28978839445E+02  0.96762588590E+01  0.50528862319E+02  0.30000007505E+02 0.  0.
        -12    1    1    2    0    0  0.26828387128E+02  0.28978839445E+02 -0.96762588590E+01  0.40659137681E+02  0.00000000000E+00 0.  1.
         11    1    3    3    0    0 -0.21425641137E+02 -0.15534123137E+02  0.30138617077E+01  0.26635510929E+02  0.51100000000E-03 0. -1.
        -11    1    3    3    0    0  0.38049682277E+01 -0.97035194545E+01 -0.21130307589E+01  0.10634894088E+02  0.51100000000E-03 0.  1.
         12    1    3    3    0    0 -0.92077142186E+01 -0.37411968529E+01  0.87754279102E+01  0.13258457302E+02  0.00000000000E+00 0. -1.
</event>
<event>
 7    1  0.5005325E-012  0.5052886E+02  0.7816164E-02  0.1300439E+00
        -11   -1    0    0    0    0  0.00000000000E+00  0.00000000000E+00  0.45593999997E+02  0.45594000000E+02  0.51100000000E-03 0. -1.
         11   -1    0    0    0    0 -0.00000000000E+00 -0.00000000000E+00 -0.45593999997E+02  0.45594000000E+02  0.51100000000E-03 0.  1.
    9900012    2    1    2    0    0 -0.94883384305E+01 -0.29763085266E+02  0.26024909280E+02  0.50528859407E+02  0.29999998654E+02 0.  0.
        -12    1    1    2    0    0  0.94883384305E+01  0.29763085266E+02 -0.26024909280E+02  0.40659140593E+02  0.00000000000E+00 0.  1.
         11    1    3    3    0    0 -0.81596439543E+01 -0.21087473307E+01  0.11921290206E+02  0.14599444003E+02  0.51100000000E-03 0.  1.
        -11    1    3    3    0    0 -0.23267169886E+01 -0.14694633793E+02  0.17022357963E+02  0.22607665627E+02  0.51100000000E-03 0. -1.
        -12    1    3    3    0    0  0.99802251236E+00 -0.12959704143E+02 -0.29187388892E+01  0.13321749776E+02  0.00000000000E+00 0.  1.
</event>
<event>
 7    1  0.5005325E-012  0.5052885E+02  0.7816164E-02  0.1300439E+00
        -11   -1    0    0    0    0  0.00000000000E+00  0.00000000000E+00  0.45593999997E+02  0.45594000000E+02  0.51100000000E-03 0. -1.
         11   -1    0    0    0    0 -0.00000000000E+00 -0.00000000000E+00 -0.45593999997E+02  0.45594000000E+02  0.51100000000E-03 0.  1.
    9900012    2    1    2    0    0  0.34585572970E+02 -0.13027481771E+02  0.16949616950E+02  0.50528847848E+02  0.29999963520E+02 0.  0.
        -12    1    1    2    0    0 -0.34585572970E+02  0.13027481771E+02 -0.16949616950E+02  0.40659152152E+02  0.00000000000E+00 0.  1.
         11    1    3    3    0    0  0.49736017315E+01  0.14371959726E+01  0.25959949587E+01  0.57914969165E+01  0.51100000000E-03 0. -1.
        -11    1    3    3    0    0  0.18997629491E+02 -0.11746024129E+02 -0.46376028687E+01  0.22811978645E+02  0.51100000000E-03 0.  1.
        -12    1    3    3    0    0  0.10614341748E+02 -0.27186536150E+01  0.18991224860E+02  0.21925372286E+02  0.00000000000E+00 0.  1.
</event>
<event>
 7    1  0.5005325E-012  0.5052886E+02  0.7816164E-02  0.1300439E+00
        -11   -1    0    0    0    0  0.00000000000E+00  0.00000000000E+00  0.45593999997E+02  0.45594000000E+02  0.51100000000E-03 0. -1.
         11   -1    0    0    0    0 -0.00000000000E+00 -0.00000000000E+00 -0.45593999997E+02  0.45594000000E+02  0.51100000000E-03 0.  1.
    9900012    2    1    2    0    0 -0.96388744803E+01  0.97234449811E+01 -0.38284621816E+02  0.50528861407E+02  0.30000004733E+02 0.  0.
         12    1    1    2    0    0  0.96388744803E+01 -0.97234449811E+01  0.38284621816E+02  0.40659138593E+02  0.00000000000E+00 0. -1.
         11    1    3    3    0    0 -0.40148955200E+01  0.35428970491E+01 -0.28913004062E+02  0.29404647756E+02  0.51100000000E-03 0. -1.
        -11    1    3    3    0    0 -0.40469664096E+01  0.10232643845E+02 -0.11807637643E+02  0.16140174849E+02  0.51100000000E-03 0.  1.
         12    1    3    3    0    0 -0.15770125508E+01 -0.40520959131E+01  0.24360198896E+01  0.49840388017E+01  0.00000000000E+00 0. -1.
</event>
<event>
 7    1  0.5005325E-012  0.5052886E+02  0.7816164E-02  0.1300439E+00
        -11   -1    0    0    0    0  0.00000000000E+00  0.00000000000E+00  0.45593999997E+02  0.45594000000E+02  0.51100000000E-03 0. -1.
         11   -1    0    0    0    0 -0.00000000000E+00 -0.00000000000E+00 -0.45593999997E+02  0.45594000000E+02  0.51100000000E-03 0.  1.
    9900012    2    1    2    0    0  0.29109344237E+02 -0.23576299588E+02  0.15810436291E+02  0.50528859331E+02  0.29999998424E+02 0.  0.
        -12    1    1    2    0    0 -0.29109344237E+02  0.23576299588E+02 -0.15810436291E+02  0.40659140669E+02  0.00000000000E+00 0.  1.
         11    1    3    3    0    0  0.20956131390E+02 -0.99306401717E+01  0.14953714984E+02  0.27593308050E+02  0.51100000000E-03 0. -1.
        -11    1    3    3    0    0  0.13172134446E+02 -0.11047191109E+02  0.14517307211E+01  0.17252625296E+02  0.51100000000E-03 0.  1.
        -12    1    3    3    0    0 -0.50189215983E+01 -0.25984683070E+01 -0.59500941420E+00  0.56829259854E+01  0.00000000000E+00 0.  1.
</event>
<event>
 7    1  0.5005325E-012  0.5052886E+02  0.7816164E-02  0.1300439E+00
        -11   -1    0    0    0    0  0.00000000000E+00  0.00000000000E+00  0.45593999997E+02  0.45594000000E+02  0.51100000000E-03 0. -1.
         11   -1    0    0    0    0 -0.00000000000E+00 -0.00000000000E+00 -0.45593999997E+02  0.45594000000E+02  0.51100000000E-03 0.  1.
    9900012    2    1    2    0    0 -0.19389817322E+02 -0.35025929504E+01  0.35565893275E+02  0.50528856654E+02  0.29999990287E+02 0.  0.
        -12    1    1    2    0    0  0.19389817322E+02  0.35025929504E+01 -0.35565893275E+02  0.40659143346E+02  0.00000000000E+00 0.  1.
         11    1    3    3    0    0 -0.11713862239E+02 -0.90347906509E+01  0.25075988202E+02  0.29114381244E+02  0.51100000000E-03 0. -1.
        -11    1    3    3    0    0 -0.95704157792E+01 -0.24296294396E+01  0.29981295617E+01  0.10319144273E+02  0.51100000000E-03 0.  1.
         12    1    3    3    0    0  0.18944606957E+01  0.79618271401E+01  0.74917755109E+01  0.11095331137E+02  0.00000000000E+00 0. -1.
</event>
<event>
 7    1  0.5005325E-012  0.5052886E+02  0.7816164E-02  0.1300439E+00
        -11   -1    0    0    0    0  0.00000000000E+00  0.00000000000E+00  0.45593999997E+02  0.45594000000E+02  0.51100000000E-03 0. -1.
         11   -1    0    0    0    0 -0.00000000000E+00 -0.00000000000E+00 -0.45593999997E+02  0.45594000000E+02  0.51100000000E-03 0.  1.
    9900012    2    1    2    0    0  0.35748413255E+02 -0.12660451904E+02 -0.14660480874E+02  0.50528858444E+02  0.29999995726E+02 0.  0.
         12    1    1    2    0    0 -0.35748413255E+02  0.12660451904E+02  0.14660480874E+02  0.40659141556E+02  0.00000000000E+00 0. -1.
         11    1    3    3    0    0  0.47774511139E+01 -0.14145102744E+00 -0.28977835807E+01  0.55893825671E+01  0.51100000000E-03 0. -1.
        -11    1    3    3    0    0  0.35491016266E+02 -0.11984094014E+02 -0.65651410403E+01  0.38030669493E+02  0.51100000000E-03 0.  1.
         12    1    3    3    0    0 -0.45200541255E+01 -0.53490686251E+00 -0.51975562526E+01  0.69088063838E+01  0.00000000000E+00 0. -1.
</event>
<event>
 7    1  0.5005325E-012  0.5052882E+02  0.7816164E-02  0.1300439E+00
        -11   -1    0    0    0    0  0.00000000000E+00  0.00000000000E+00  0.45593999997E+02  0.45594000000E+02  0.51100000000E-03 0. -1.
         11   -1    0    0    0    0 -0.00000000000E+00 -0.00000000000E+00 -0.45593999997E+02  0.45594000000E+02  0.51100000000E-03 0.  1.
    9900012    2    1    2    0    0 -0.12219059572E+02  0.28004340390E+02  0.26825734701E+02  0.50528824655E+02  0.29999893021E+02 0.  0.
        -12    1    1    2    0    0  0.12219059572E+02 -0.28004340390E+02 -0.26825734701E+02  0.40659175345E+02  0.00000000000E+00 0.  1.
         11    1    3    3    0    0 -0.99847030464E-01  0.51225801624E+01  0.65444162983E+01  0.83114488446E+01  0.51100000000E-03 0. -1.
        -11    1    3    3    0    0 -0.63216710404E+01  0.19913780476E+02 -0.23932184460E-01  0.20893126875E+02  0.51100000000E-03 0.  1.
         12    1    3    3    0    0 -0.57975415013E+01  0.29679797513E+01  0.20305250587E+02  0.21324248935E+02  0.00000000000E+00 0. -1.
</event>
<event>
 7    1  0.5005325E-012  0.5052891E+02  0.7816164E-02  0.1300439E+00
        -11   -1    0    0    0    0  0.00000000000E+00  0.00000000000E+00  0.45593999997E+02  0.45594000000E+02  0.51100000000E-03 0. -1.
         11   -1    0    0    0    0 -0.00000000000E+00 -0.00000000000E+00 -0.45593999997E+02  0.45594000000E+02  0.51100000000E-03 0.  1.
    9900012    2    1    2    0    0 -0.38742110550E+02 -0.41940741756E+01 -0.11602607503E+02  0.50528906442E+02  0.30000141622E+02 0.  0.
         12    1    1    2    0    0  0.38742110550E+02  0.41940741756E+01  0.11602607503E+02  0.40659093558E+02  0.00000000000E+00 0. -1.
         11    1    3    3    0    0 -0.25852032225E+02 -0.14272174252E+02 -0.37038322637E+01  0.29761399526E+02  0.51100000000E-03 0. -1.
        -11    1    3    3    0    0 -0.94574527558E+01  0.10457340691E+01 -0.44895416681E+01  0.10521072047E+02  0.51100000000E-03 0.  1.
         12    1    3    3    0    0 -0.34326255693E+01  0.90323660072E+01 -0.34092335712E+01  0.10246434869E+02  0.00000000000E+00 0. -1.
</event>
<event>
 7    1  0.5005325E-012  0.5052886E+02  0.7816164E-02  0.1300439E+00
        -11   -1    0    0    0    0  0.00000000000E+00  0.00000000000E+00  0.45593999997E+02  0.45594000000E+02  0.51100000000E-03 0. -1.
         11   -1    0    0    0    0 -0.00000000000E+00 -0.00000000000E+00 -0.45593999997E+02  0.45594000000E+02  0.51100000000E-03 0.  1.
    9900012    2    1    2    0    0 -0.26395816654E+02  0.30605065038E+02  0.44448437472E+01  0.50528858607E+02  0.29999996223E+02 0.  0.
         12    1    1    2    0    0  0.26395816654E+02 -0.30605065038E+02 -0.44448437472E+01  0.40659141393E+02  0.00000000000E+00 0. -1.
         11    1    3    3    0    0 -0.78815535349E+01 -0.32531456192E+01 -0.10514526688E+01  0.85911230651E+01  0.51100000000E-03 0. -1.
        -11    1    3    3    0    0 -0.92268959520E+01  0.85635308094E+01  0.79368470227E+01  0.14881640022E+02  0.51100000000E-03 0.  1.
        -12    1    3    3    0    0 -0.92873671673E+01  0.25294679848E+02 -0.24405506067E+01  0.27056095520E+02  0.00000000000E+00 0.  1.
</event>
<event>
 7    1  0.5005325E-012  0.5052886E+02  0.7816164E-02  0.1300439E+00
        -11   -1    0    0    0    0  0.00000000000E+00  0.00000000000E+00  0.45593999997E+02  0.45594000000E+02  0.51100000000E-03 0.  1.
         11   -1    0    0    0    0 -0.00000000000E+00 -0.00000000000E+00 -0.45593999997E+02  0.45594000000E+02  0.51100000000E-03 0. -1.
    9900012    2    1    2    0    0  0.33685735733E+02  0.10370543549E+02 -0.20270381127E+02  0.50528864294E+02  0.30000013507E+02 0.  0.
         12    1    1    2    0    0 -0.33685735733E+02 -0.10370543549E+02  0.20270381127E+02  0.40659135706E+02  0.00000000000E+00 0. -1.
         11    1    3    3    0    0  0.10125290012E+02 -0.78073795167E+01 -0.63656923870E+01  0.14282811788E+02  0.51100000000E-03 0. -1.
        -11    1    3    3    0    0  0.18667776061E+02  0.65142950799E+01 -0.12791799400E+02  0.23548928545E+02  0.51100000000E-03 0.  1.
         12    1    3    3    0    0  0.48926696596E+01  0.11663627986E+02 -0.11128893399E+01  0.12697123961E+02  0.00000000000E+00 0. -1.
</event>
<event>
 7    1  0.5005325E-012  0.5052888E+02  0.7816164E-02  0.1300439E+00
        -11   -1    0    0    0    0  0.00000000000E+00  0.00000000000E+00  0.45593999997E+02  0.45594000000E+02  0.51100000000E-03 0. -1.
         11   -1    0    0    0    0 -0.00000000000E+00 -0.00000000000E+00 -0.45593999997E+02  0.45594000000E+02  0.51100000000E-03 0.  1.
    9900012    2    1    2    0    0  0.20071154947E+02 -0.19076895283E+00  0.35359247626E+02  0.50528879912E+02  0.30000060980E+02 0.  0.
        -12    1    1    2    0    0 -0.20071154947E+02  0.19076895283E+00 -0.35359247626E+02  0.40659120088E+02  0.00000000000E+00 0.  1.
         11    1    3    3    0    0  0.20133173253E+01 -0.11542919826E+01 -0.92770435321E+00  0.24992943527E+01  0.51100000000E-03 0. -1.
        -11    1    3    3    0    0  0.16958681865E+01  0.31295700498E+01 -0.34772939842E+01  0.49761180971E+01  0.51100000000E-03 0.  1.
         12    1    3    3    0    0  0.16361969435E+02 -0.21660470201E+01  0.39764245963E+02  0.43053467462E+02  0.00000000000E+00 0. -1.
</event>
<event>
 7    1  0.5005325E-012  0.5052884E+02  0.7816164E-02  0.1300439E+00
        -11   -1    0    0    0    0  0.00000000000E+00  0.00000000000E+00  0.45593999997E+02  0.45594000000E+02  0.51100000000E-03 0. -1.
         11   -1    0    0    0    0 -0.00000000000E+00 -0.00000000000E+00 -0.45593999997E+02  0.45594000000E+02  0.51100000000E-03 0.  1.
    9900012    2    1    2    0    0  0.38897730014E+02 -0.11767097560E+02 -0.12919500709E+01  0.50528842111E+02  0.29999946081E+02 0.  0.
         12    1    1    2    0    0 -0.38897730014E+02  0.11767097560E+02  0.12919500709E+01  0.40659157889E+02  0.00000000000E+00 0. -1.
         11    1    3    3    0    0 -0.51933744483E+00  0.22341639359E+00 -0.31717544938E+01  0.32217469014E+01  0.51100000000E-03 0. -1.
        -11    1    3    3    0    0  0.22329866001E+02 -0.25525474632E+01 -0.98440489654E+01  0.24536579111E+02  0.51100000000E-03 0.  1.
         12    1    3    3    0    0  0.17087201458E+02 -0.94379664904E+01  0.11723853388E+02  0.22770516099E+02  0.00000000000E+00 0. -1.
</event>
<event>
 7    1  0.5005325E-012  0.5052886E+02  0.7816164E-02  0.1300439E+00
        -11   -1    0    0    0    0  0.00000000000E+00  0.00000000000E+00  0.45593999997E+02  0.45594000000E+02  0.51100000000E-03 0. -1.
         11   -1    0    0    0    0 -0.00000000000E+00 -0.00000000000E+00 -0.45593999997E+02  0.45594000000E+02  0.51100000000E-03 0.  1.
    9900012    2    1    2    0    0 -0.22418928409E+02  0.12408773549E+02  0.31568647354E+02  0.50528861940E+02  0.30000006354E+02 0.  0.
        -12    1    1    2    0    0  0.22418928409E+02 -0.12408773549E+02 -0.31568647354E+02  0.40659138060E+02  0.00000000000E+00 0.  1.
         11    1    3    3    0    0 -0.14755152853E+02  0.12137953881E+02  0.15673411555E+02  0.24712350964E+02  0.51100000000E-03 0. -1.
        -11    1    3    3    0    0  0.57329351041E+01 -0.28876036278E+01  0.66065472542E+01  0.92114747192E+01  0.51100000000E-03 0.  1.
         12    1    3    3    0    0 -0.13396710660E+02  0.31584232958E+01  0.92886885451E+01  0.16605036258E+02  0.00000000000E+00 0. -1.
</event>
<event>
 7    1  0.5005325E-012  0.5052886E+02  0.7816164E-02  0.1300439E+00
        -11   -1    0    0    0    0  0.00000000000E+00  0.00000000000E+00  0.45593999997E+02  0.45594000000E+02  0.51100000000E-03 0. -1.
         11   -1    0    0    0    0 -0.00000000000E+00 -0.00000000000E+00 -0.45593999997E+02  0.45594000000E+02  0.51100000000E-03 0.  1.
    9900012    2    1    2    0    0  0.88291395555E+01  0.18744194635E+02 -0.34983806856E+02  0.50528864742E+02  0.30000014870E+02 0.  0.
         12    1    1    2    0    0 -0.88291395555E+01 -0.18744194635E+02  0.34983806856E+02  0.40659135258E+02  0.00000000000E+00 0. -1.
         11    1    3    3    0    0  0.46807774098E+01  0.14248615956E+02 -0.63211282731E+01  0.16275423089E+02  0.51100000000E-03 0. -1.
        -11    1    3    3    0    0 -0.12846156354E+01  0.10543540687E+02 -0.16566403607E+02  0.19678979045E+02  0.51100000000E-03 0.  1.
         12    1    3    3    0    0  0.54329777811E+01 -0.60479620079E+01 -0.12096274976E+02  0.14574462608E+02  0.00000000000E+00 0. -1.
</event>
<event>
 7    1  0.5005325E-012  0.5052885E+02  0.7816164E-02  0.1300439E+00
        -11   -1    0    0    0    0  0.00000000000E+00  0.00000000000E+00  0.45593999997E+02  0.45594000000E+02  0.51100000000E-03 0. -1.
         11   -1    0    0    0    0 -0.00000000000E+00 -0.00000000000E+00 -0.45593999997E+02  0.45594000000E+02  0.51100000000E-03 0.  1.
    9900012    2    1    2    0    0  0.37264062864E+02 -0.17790187255E+01 -0.16167592739E+02  0.50528851660E+02  0.29999975105E+02 0.  0.
         12    1    1    2    0    0 -0.37264062864E+02  0.17790187255E+01  0.16167592739E+02  0.40659148340E+02  0.00000000000E+00 0. -1.
         11    1    3    3    0    0  0.42148378509E+01 -0.27355989712E+01 -0.80543275107E+01  0.94931844894E+01  0.51100000000E-03 0. -1.
        -11    1    3    3    0    0  0.25728812428E+02  0.78315679861E+01 -0.12995125975E+02  0.29869357968E+02  0.51100000000E-03 0.  1.
        -12    1    3    3    0    0  0.73204125859E+01 -0.68749877404E+01  0.48818607465E+01  0.11166309202E+02  0.00000000000E+00 0.  1.
</event>
<event>
 7    1  0.5005325E-012  0.5052885E+02  0.7816164E-02  0.1300439E+00
        -11   -1    0    0    0    0  0.00000000000E+00  0.00000000000E+00  0.45593999997E+02  0.45594000000E+02  0.51100000000E-03 0. -1.
         11   -1    0    0    0    0 -0.00000000000E+00 -0.00000000000E+00 -0.45593999997E+02  0.45594000000E+02  0.51100000000E-03 0.  1.
    9900012    2    1    2    0    0 -0.21723815198E+02 -0.17230278078E+02 -0.29738184276E+02  0.50528853016E+02  0.29999979229E+02 0.  0.
         12    1    1    2    0    0  0.21723815198E+02  0.17230278078E+02  0.29738184276E+02  0.40659146984E+02  0.00000000000E+00 0. -1.
         11    1    3    3    0    0 -0.77835911080E+01 -0.10310579629E+01  0.18845728777E+01  0.80745889215E+01  0.51100000000E-03 0. -1.
        -11    1    3    3    0    0 -0.74509881286E+01 -0.49653070864E+00 -0.21305742922E+02  0.22576502133E+02  0.51100000000E-03 0.  1.
         12    1    3    3    0    0 -0.64892359612E+01 -0.15702689407E+02 -0.10317014232E+02  0.19877761962E+02  0.00000000000E+00 0. -1.
</event>
<event>
 7    1  0.5005325E-012  0.5052886E+02  0.7816164E-02  0.1300439E+00
        -11   -1    0    0    0    0  0.00000000000E+00  0.00000000000E+00  0.45593999997E+02  0.45594000000E+02  0.51100000000E-03 0. -1.
         11   -1    0    0    0    0 -0.00000000000E+00 -0.00000000000E+00 -0.45593999997E+02  0.45594000000E+02  0.51100000000E-03 0.  1.
    9900012    2    1    2    0    0  0.33683036969E+01  0.26132111031E+02 -0.30966643028E+02  0.50528859857E+02  0.30000000022E+02 0.  0.
         12    1    1    2    0    0 -0.33683036969E+01 -0.26132111031E+02  0.30966643028E+02  0.40659140143E+02  0.00000000000E+00 0. -1.
         11    1    3    3    0    0 -0.25105584100E+01 -0.26312962862E+01 -0.98799269743E+01  0.10528037849E+02  0.51100000000E-03 0. -1.
        -11    1    3    3    0    0  0.11439655880E+02  0.19554605716E+02 -0.17613808557E+02  0.28696595329E+02  0.51100000000E-03 0.  1.
         12    1    3    3    0    0 -0.55607937735E+01  0.92088016013E+01 -0.34729074968E+01  0.11304226679E+02  0.00000000000E+00 0. -1.
</event>
<event>
 7    1  0.5005325E-012  0.5052885E+02  0.7816164E-02  0.1300439E+00
        -11   -1    0    0    0    0  0.00000000000E+00  0.00000000000E+00  0.45593999997E+02  0.45594000000E+02  0.51100000000E-03 0. -1.
         11   -1    0    0    0    0 -0.00000000000E+00 -0.00000000000E+00 -0.45593999997E+02  0.45594000000E+02  0.51100000000E-03 0.  1.
    9900012    2    1    2    0    0 -0.87810007943E+00  0.38092976308E+02  0.14188736988E+02  0.50528853906E+02  0.29999981933E+02 0.  0.
        -12    1    1    2    0    0  0.87810007943E+00 -0.38092976308E+02 -0.14188736988E+02  0.40659146094E+02  0.00000000000E+00 0.  1.
         11    1    3    3    0    0 -0.73948296068E+01  0.10558963907E+02  0.53012441083E+01  0.13938379141E+02  0.51100000000E-03 0. -1.
        -11    1    3    3    0    0  0.53857280665E+01  0.24017246757E+02 -0.23841609961E+01  0.24728898732E+02  0.51100000000E-03 0.  1.
        -12    1    3    3    0    0  0.11310014609E+01  0.35167656442E+01  0.11271653876E+02  0.11861576034E+02  0.00000000000E+00 0.  1.
</event>
<event>
 7    1  0.5005325E-012  0.5052882E+02  0.7816164E-02  0.1300439E+00
        -11   -1    0    0    0    0  0.00000000000E+00  0.00000000000E+00  0.45593999997E+02  0.45594000000E+02  0.51100000000E-03 0. -1.
         11   -1    0    0    0    0 -0.00000000000E+00 -0.00000000000E+00 -0.45593999997E+02  0.45594000000E+02  0.51100000000E-03 0.  1.
    9900012    2    1    2    0    0 -0.15268884503E+01 -0.15613904051E+02  0.37510582436E+02  0.50528816748E+02  0.29999868988E+02 0.  0.
        -12    1    1    2    0    0  0.15268884503E+01  0.15613904051E+02 -0.37510582436E+02  0.40659183252E+02  0.00000000000E+00 0.  1.
         11    1    3    3    0    0  0.12263415596E+01 -0.55379308055E+01  0.16379784627E+02  0.17334068648E+02  0.51100000000E-03 0. -1.
        -11    1    3    3    0    0 -0.89430210208E+01  0.17606450900E+01  0.16869036784E+02  0.19173990153E+02  0.51100000000E-03 0.  1.
         12    1    3    3    0    0  0.61897910109E+01 -0.11836618335E+02  0.42617610252E+01  0.14020757947E+02  0.00000000000E+00 0. -1.
</event>
<event>
 7    1  0.5005325E-012  0.5052884E+02  0.7816164E-02  0.1300439E+00
        -11   -1    0    0    0    0  0.00000000000E+00  0.00000000000E+00  0.45593999997E+02  0.45594000000E+02  0.51100000000E-03 0. -1.
         11   -1    0    0    0    0 -0.00000000000E+00 -0.00000000000E+00 -0.45593999997E+02  0.45594000000E+02  0.51100000000E-03 0.  1.
    9900012    2    1    2    0    0 -0.73081564177E+01  0.62335167682E+00 -0.39992119454E+02  0.50528839458E+02  0.29999938017E+02 0.  0.
         12    1    1    2    0    0  0.73081564177E+01 -0.62335167682E+00  0.39992119454E+02  0.40659160542E+02  0.00000000000E+00 0. -1.
         11    1    3    3    0    0 -0.98147874629E+01  0.44276589153E+01 -0.13734410525E+02  0.17451883828E+02  0.51100000000E-03 0. -1.
        -11    1    3    3    0    0  0.13714329756E+01  0.76588239920E+01 -0.15367158383E+02  0.17224632663E+02  0.51100000000E-03 0.  1.
        -12    1    3    3    0    0  0.11351980696E+01 -0.11463131230E+02 -0.10890550546E+02  0.15852322967E+02  0.00000000000E+00 0.  1.
</event>
<event>
 7    1  0.5005325E-012  0.5052886E+02  0.7816164E-02  0.1300439E+00
        -11   -1    0    0    0    0  0.00000000000E+00  0.00000000000E+00  0.45593999997E+02  0.45594000000E+02  0.51100000000E-03 0. -1.
         11   -1    0    0    0    0 -0.00000000000E+00 -0.00000000000E+00 -0.45593999997E+02  0.45594000000E+02  0.51100000000E-03 0.  1.
    9900012    2    1    2    0    0  0.33409297082E+02 -0.78497670944E+01 -0.21802886145E+02  0.50528858110E+02  0.29999994711E+02 0.  0.
         12    1    1    2    0    0 -0.33409297082E+02  0.78497670944E+01  0.21802886145E+02  0.40659141890E+02  0.00000000000E+00 0. -1.
         11    1    3    3    0    0  0.23680708269E+02 -0.10305824741E+02 -0.13043891602E+02  0.28933182959E+02  0.51100000000E-03 0. -1.
        -11    1    3    3    0    0  0.10461782825E+02  0.43997968062E+01 -0.12766401684E+02  0.17081806814E+02  0.51100000000E-03 0.  1.
         12    1    3    3    0    0 -0.73319401239E+00 -0.19437391597E+01  0.40074071403E+01  0.45138683376E+01  0.00000000000E+00 0. -1.
</event>
<event>
 7    1  0.5005325E-012  0.5052886E+02  0.7816164E-02  0.1300439E+00
        -11   -1    0    0    0    0  0.00000000000E+00  0.00000000000E+00  0.45593999997E+02  0.45594000000E+02  0.51100000000E-03 0. -1.
         11   -1    0    0    0    0 -0.00000000000E+00 -0.00000000000E+00 -0.45593999997E+02  0.45594000000E+02  0.51100000000E-03 0.  1.
    9900012    2    1    2    0    0  0.83959401037E+01 -0.41599643073E+01 -0.39564735723E+02  0.50528862944E+02  0.30000009406E+02 0.  0.
         12    1    1    2    0    0 -0.83959401037E+01  0.41599643073E+01  0.39564735723E+02  0.40659137056E+02  0.00000000000E+00 0. -1.
         11    1    3    3    0    0 -0.82878517798E+01 -0.97147637450E+01 -0.19636706025E+02  0.23423606587E+02  0.51100000000E-03 0. -1.
        -11    1    3    3    0    0  0.26674392556E+01 -0.20960396708E+00 -0.57936918386E+01  0.63816950246E+01  0.51100000000E-03 0.  1.
        -12    1    3    3    0    0  0.14016352628E+02  0.57644034048E+01 -0.14134337859E+02  0.20723561333E+02  0.00000000000E+00 0.  1.
</event>
<event>
 7    1  0.5005325E-012  0.5052886E+02  0.7816164E-02  0.1300439E+00
        -11   -1    0    0    0    0  0.00000000000E+00  0.00000000000E+00  0.45593999997E+02  0.45594000000E+02  0.51100000000E-03 0.  1.
         11   -1    0    0    0    0 -0.00000000000E+00 -0.00000000000E+00 -0.45593999997E+02  0.45594000000E+02  0.51100000000E-03 0. -1.
    9900012    2    1    2    0    0 -0.34682895574E+02  0.21031910427E+02  0.28144641092E+01  0.50528859455E+02  0.29999998800E+02 0.  0.
        -12    1    1    2    0    0  0.34682895574E+02 -0.21031910427E+02 -0.28144641092E+01  0.40659140545E+02  0.00000000000E+00 0.  1.
         11    1    3    3    0    0 -0.13079508743E+02 -0.34915217368E-01  0.74486679505E+01  0.15051824558E+02  0.51100000000E-03 0. -1.
        -11    1    3    3    0    0 -0.19182307153E+02  0.19350809514E+02  0.28790367854E+01  0.27398970594E+02  0.51100000000E-03 0.  1.
         12    1    3    3    0    0 -0.24210796789E+01  0.17160161298E+01 -0.75132406267E+01  0.80780643031E+01  0.00000000000E+00 0. -1.
</event>
<event>
 7    1  0.5005325E-012  0.5052885E+02  0.7816164E-02  0.1300439E+00
        -11   -1    0    0    0    0  0.00000000000E+00  0.00000000000E+00  0.45593999997E+02  0.45594000000E+02  0.51100000000E-03 0.  1.
         11   -1    0    0    0    0 -0.00000000000E+00 -0.00000000000E+00 -0.45593999997E+02  0.45594000000E+02  0.51100000000E-03 0. -1.
    9900012    2    1    2    0    0 -0.26990662345E+02  0.30323788527E+02 -0.22667444318E+01  0.50528854230E+02  0.29999982918E+02 0.  0.
         12    1    1    2    0    0  0.26990662345E+02 -0.30323788527E+02  0.22667444318E+01  0.40659145770E+02  0.00000000000E+00 0. -1.
         11    1    3    3    0    0 -0.14533884515E+02  0.90198348532E+01 -0.45296692823E+01  0.17694889769E+02  0.51100000000E-03 0. -1.
        -11    1    3    3    0    0 -0.27315680949E+01  0.21598923201E+02 -0.26545584318E+01  0.21932205280E+02  0.51100000000E-03 0.  1.
        -12    1    3    3    0    0 -0.97252097354E+01 -0.29496952769E+00  0.49174832824E+01  0.10901759182E+02  0.00000000000E+00 0.  1.
</event>
<event>
 7    1  0.5005325E-012  0.5052887E+02  0.7816164E-02  0.1300439E+00
        -11   -1    0    0    0    0  0.00000000000E+00  0.00000000000E+00  0.45593999997E+02  0.45594000000E+02  0.51100000000E-03 0. -1.
         11   -1    0    0    0    0 -0.00000000000E+00 -0.00000000000E+00 -0.45593999997E+02  0.45594000000E+02  0.51100000000E-03 0.  1.
    9900012    2    1    2    0    0  0.26365474613E+02 -0.16149717100E+02 -0.26404790282E+02  0.50528873548E+02  0.30000041637E+02 0.  0.
         12    1    1    2    0    0 -0.26365474613E+02  0.16149717100E+02  0.26404790282E+02  0.40659126452E+02  0.00000000000E+00 0. -1.
         11    1    3    3    0    0  0.13102399350E+02  0.36972247771E+00 -0.19413615819E+01  0.13250601816E+02  0.51100000000E-03 0. -1.
        -11    1    3    3    0    0 -0.23734508108E+01 -0.15841062854E+01  0.17111170246E+01  0.33272485942E+01  0.51100000000E-03 0.  1.
        -12    1    3    3    0    0  0.15636526075E+02 -0.14935333292E+02 -0.26174545725E+02  0.33951023138E+02  0.00000000000E+00 0.  1.
</event>
<event>
 7    1  0.5005325E-012  0.5052887E+02  0.7816164E-02  0.1300439E+00
        -11   -1    0    0    0    0  0.00000000000E+00  0.00000000000E+00  0.45593999997E+02  0.45594000000E+02  0.51100000000E-03 0. -1.
         11   -1    0    0    0    0 -0.00000000000E+00 -0.00000000000E+00 -0.45593999997E+02  0.45594000000E+02  0.51100000000E-03 0.  1.
    9900012    2    1    2    0    0  0.89979190412E+01  0.23921883982E+02 -0.31621920169E+02  0.50528869224E+02  0.30000028492E+02 0.  0.
         12    1    1    2    0    0 -0.89979190412E+01 -0.23921883982E+02  0.31621920169E+02  0.40659130776E+02  0.00000000000E+00 0. -1.
         11    1    3    3    0    0 -0.13937312401E+01  0.35098052094E+01 -0.41766347879E+00  0.37994292230E+01  0.51100000000E-03 0. -1.
        -11    1    3    3    0    0  0.14519940511E+02  0.23985222242E+02 -0.20565736125E+02  0.34771670381E+02  0.51100000000E-03 0.  1.
        -12    1    3    3    0    0 -0.41282902293E+01 -0.35731434693E+01 -0.10638520565E+02  0.11957769620E+02  0.00000000000E+00 0.  1.
</event>
<event>
 7    1  0.5829391E-012  0.5052885E+02  0.7816164E-02  0.1300439E+00
        -11   -1    0    0    0    0  0.00000000000E+00  0.00000000000E+00  0.45593999997E+02  0.45594000000E+02  0.51100000000E-03 0. -1.
         11   -1    0    0    0    0 -0.00000000000E+00 -0.00000000000E+00 -0.45593999997E+02  0.45594000000E+02  0.51100000000E-03 0.  1.
    9900012    2    1    2    0    0  0.26972047802E+02  0.15410339196E+02  0.26233498548E+02  0.50528851425E+02  0.29999974392E+02 0.  0.
        -12    1    1    2    0    0 -0.26972047802E+02 -0.15410339196E+02 -0.26233498548E+02  0.40659148575E+02  0.00000000000E+00 0.  1.
         11    1    3    3    0    0  0.21406516000E+02  0.45211898489E+01  0.12238574296E+02  0.25069160057E+02  0.51100000000E-03 0. -1.
        -11    1    3    3    0    0 -0.44266172316E+01 -0.68084509269E+00 -0.35455736049E+00  0.44926830890E+01  0.51100000000E-03 0.  1.
         12    1    3    3    0    0  0.99921490335E+01  0.11569994440E+02  0.14349481612E+02  0.20967008279E+02  0.00000000000E+00 0. -1.
</event>
<event>
 7    1  0.5005325E-012  0.5052885E+02  0.7816164E-02  0.1300439E+00
        -11   -1    0    0    0    0  0.00000000000E+00  0.00000000000E+00  0.45593999997E+02  0.45594000000E+02  0.51100000000E-03 0. -1.
         11   -1    0    0    0    0 -0.00000000000E+00 -0.00000000000E+00 -0.45593999997E+02  0.45594000000E+02  0.51100000000E-03 0.  1.
    9900012    2    1    2    0    0  0.71670263434E+01  0.31078177510E+02 -0.25217994951E+02  0.50528847853E+02  0.29999963534E+02 0.  0.
         12    1    1    2    0    0 -0.71670263434E+01 -0.31078177510E+02  0.25217994951E+02  0.40659152147E+02  0.00000000000E+00 0. -1.
         11    1    3    3    0    0  0.72346274821E+01  0.98986683481E+01 -0.39255817184E+00  0.12266930017E+02  0.51100000000E-03 0. -1.
        -11    1    3    3    0    0  0.83752045785E+01  0.29041449288E+01 -0.92225805363E+01  0.12791954562E+02  0.51100000000E-03 0.  1.
        -12    1    3    3    0    0 -0.84428057172E+01  0.18275364233E+02 -0.15602856243E+02  0.25469963274E+02  0.00000000000E+00 0.  1.
</event>
<event>
 7    1  0.5005325E-012  0.5052885E+02  0.7816164E-02  0.1300439E+00
        -11   -1    0    0    0    0  0.00000000000E+00  0.00000000000E+00  0.45593999997E+02  0.45594000000E+02  0.51100000000E-03 0. -1.
         11   -1    0    0    0    0 -0.00000000000E+00 -0.00000000000E+00 -0.45593999997E+02  0.45594000000E+02  0.51100000000E-03 0.  1.
    9900012    2    1    2    0    0 -0.18601277838E+01  0.18503429463E+02  0.36157011099E+02  0.50528850613E+02  0.29999971922E+02 0.  0.
        -12    1    1    2    0    0  0.18601277838E+01 -0.18503429463E+02 -0.36157011099E+02  0.40659149387E+02  0.00000000000E+00 0.  1.
         11    1    3    3    0    0  0.27412508325E+01 -0.22725927118E+01  0.32229804711E+01  0.48027843110E+01  0.51100000000E-03 0. -1.
        -11    1    3    3    0    0 -0.96980479517E+01  0.12383319912E+01  0.42801392676E+01  0.10672637566E+02  0.51100000000E-03 0.  1.
         12    1    3    3    0    0  0.50966693355E+01  0.19537690184E+02  0.28653891361E+02  0.35053428736E+02  0.00000000000E+00 0. -1.
</event>
<event>
 7    1  0.5005325E-012  0.5052887E+02  0.7816164E-02  0.1300439E+00
        -11   -1    0    0    0    0  0.00000000000E+00  0.00000000000E+00  0.45593999997E+02  0.45594000000E+02  0.51100000000E-03 0. -1.
         11   -1    0    0    0    0 -0.00000000000E+00 -0.00000000000E+00 -0.45593999997E+02  0.45594000000E+02  0.51100000000E-03 0.  1.
    9900012    2    1    2    0    0  0.13413265132E+02  0.22764811806E+02 -0.30903277670E+02  0.50528869306E+02  0.30000028744E+02 0.  0.
         12    1    1    2    0    0 -0.13413265132E+02 -0.22764811806E+02  0.30903277670E+02  0.40659130694E+02  0.00000000000E+00 0. -1.
         11    1    3    3    0    0 -0.15311408466E+01  0.64001007272E+01 -0.11253575500E+02  0.13036435226E+02  0.51100000000E-03 0. -1.
        -11    1    3    3    0    0  0.46881069145E+01 -0.20836164709E+01 -0.15035058480E+02  0.15886245239E+02  0.51100000000E-03 0.  1.
        -12    1    3    3    0    0  0.10256299064E+02  0.18448327549E+02 -0.46146436896E+01  0.21606188841E+02  0.00000000000E+00 0.  1.
</event>
<event>
 7    1  0.5005325E-012  0.5052886E+02  0.7816164E-02  0.1300439E+00
        -11   -1    0    0    0    0  0.00000000000E+00  0.00000000000E+00  0.45593999997E+02  0.45594000000E+02  0.51100000000E-03 0.  1.
         11   -1    0    0    0    0 -0.00000000000E+00 -0.00000000000E+00 -0.45593999997E+02  0.45594000000E+02  0.51100000000E-03 0. -1.
    9900012    2    1    2    0    0 -0.32894635314E+02 -0.23263993906E+02  0.54676325259E+01  0.50528862646E+02  0.30000008500E+02 0.  0.
         12    1    1    2    0    0  0.32894635314E+02  0.23263993906E+02 -0.54676325259E+01  0.40659137354E+02  0.00000000000E+00 0. -1.
         11    1    3    3    0    0 -0.32849731615E+01 -0.12634108296E+02 -0.32928881516E+01  0.13463092280E+02  0.51100000000E-03 0.  1.
        -11    1    3    3    0    0 -0.35540852187E+01  0.26606897864E+01 -0.31923323335E+01  0.54682518112E+01  0.51100000000E-03 0. -1.
        -12    1    3    3    0    0 -0.26055576934E+02 -0.13290575396E+02  0.11952853011E+02  0.31597518555E+02  0.00000000000E+00 0.  1.
</event>
<event>
 7    1  0.5005325E-012  0.5052886E+02  0.7816164E-02  0.1300439E+00
        -11   -1    0    0    0    0  0.00000000000E+00  0.00000000000E+00  0.45593999997E+02  0.45594000000E+02  0.51100000000E-03 0. -1.
         11   -1    0    0    0    0 -0.00000000000E+00 -0.00000000000E+00 -0.45593999997E+02  0.45594000000E+02  0.51100000000E-03 0.  1.
    9900012    2    1    2    0    0  0.56619119498E+01  0.38429525877E+02  0.12011655213E+02  0.50528861211E+02  0.30000004137E+02 0.  0.
         12    1    1    2    0    0 -0.56619119498E+01 -0.38429525877E+02 -0.12011655213E+02  0.40659138789E+02  0.00000000000E+00 0. -1.
         11    1    3    3    0    0  0.38861147226E+01  0.24787766141E+02  0.14805389798E+02  0.29133053483E+02  0.51100000000E-03 0. -1.
        -11    1    3    3    0    0 -0.41248029128E+01  0.26312133427E+01  0.47365433359E+01  0.68097081992E+01  0.51100000000E-03 0.  1.
        -12    1    3    3    0    0  0.59006001400E+01  0.11010546394E+02 -0.75302779208E+01  0.14586099529E+02  0.00000000000E+00 0.  1.
</event>
<event>
 7    1  0.5005325E-012  0.5052886E+02  0.7816164E-02  0.1300439E+00
        -11   -1    0    0    0    0  0.00000000000E+00  0.00000000000E+00  0.45593999997E+02  0.45594000000E+02  0.51100000000E-03 0. -1.
         11   -1    0    0    0    0 -0.00000000000E+00 -0.00000000000E+00 -0.45593999997E+02  0.45594000000E+02  0.51100000000E-03 0.  1.
    9900012    2    1    2    0    0 -0.29757166973E+02 -0.36508872147E+01 -0.27465389738E+02  0.50528860840E+02  0.30000003011E+02 0.  0.
         12    1    1    2    0    0  0.29757166973E+02  0.36508872147E+01  0.27465389738E+02  0.40659139160E+02  0.00000000000E+00 0. -1.
         11    1    3    3    0    0 -0.12986441002E+01 -0.41538737937E+01  0.24653858909E+01  0.50019268132E+01  0.51100000000E-03 0. -1.
        -11    1    3    3    0    0 -0.14917035169E+02 -0.91891956845E+01 -0.17339520824E+02  0.24649913554E+02  0.51100000000E-03 0.  1.
        -12    1    3    3    0    0 -0.13541487704E+02  0.96921822635E+01 -0.12591254805E+02  0.20877020473E+02  0.00000000000E+00 0.  1.
</event>
<event>
 7    1  0.5005325E-012  0.5052887E+02  0.7816164E-02  0.1300439E+00
        -11   -1    0    0    0    0  0.00000000000E+00  0.00000000000E+00  0.45593999997E+02  0.45594000000E+02  0.51100000000E-03 0. -1.
         11   -1    0    0    0    0 -0.00000000000E+00 -0.00000000000E+00 -0.45593999997E+02  0.45594000000E+02  0.51100000000E-03 0.  1.
    9900012    2    1    2    0    0 -0.26184250872E+02 -0.14457230192E+02 -0.27541570658E+02  0.50528872945E+02  0.30000039804E+02 0.  0.
         12    1    1    2    0    0  0.26184250872E+02  0.14457230192E+02  0.27541570658E+02  0.40659127055E+02  0.00000000000E+00 0. -1.
         11    1    3    3    0    0 -0.13659890209E+01 -0.17820395363E+01 -0.13092345162E+02  0.13283489489E+02  0.51100000000E-03 0. -1.
        -11    1    3    3    0    0  0.13140108100E+01 -0.16033655626E+01  0.32083313172E+01  0.38197899992E+01  0.51100000000E-03 0.  1.
        -12    1    3    3    0    0 -0.26132272661E+02 -0.11071825093E+02 -0.17657556813E+02  0.33425593457E+02  0.00000000000E+00 0.  1.
</event>
<event>
 7    1  0.5005325E-012  0.5052887E+02  0.7816164E-02  0.1300439E+00
        -11   -1    0    0    0    0  0.00000000000E+00  0.00000000000E+00  0.45593999997E+02  0.45594000000E+02  0.51100000000E-03 0. -1.
         11   -1    0    0    0    0 -0.00000000000E+00 -0.00000000000E+00 -0.45593999997E+02  0.45594000000E+02  0.51100000000E-03 0.  1.
    9900012    2    1    2    0    0  0.19800600294E+02 -0.19952726450E+02 -0.29376689764E+02  0.50528868599E+02  0.30000026595E+02 0.  0.
         12    1    1    2    0    0 -0.19800600294E+02  0.19952726450E+02  0.29376689764E+02  0.40659131401E+02  0.00000000000E+00 0. -1.
         11    1    3    3    0    0  0.14880583173E+02 -0.11832980952E+02 -0.13326093709E+02  0.23217148136E+02  0.51100000000E-03 0. -1.
        -11    1    3    3    0    0  0.79886458843E+01  0.85896630854E+00 -0.15908136567E+02  0.17822039600E+02  0.51100000000E-03 0.  1.
         12    1    3    3    0    0 -0.30686287633E+01 -0.89787118068E+01 -0.14245948777E+00  0.94896808640E+01  0.00000000000E+00 0. -1.
</event>
<event>
 7    1  0.5005325E-012  0.5052886E+02  0.7816164E-02  0.1300439E+00
        -11   -1    0    0    0    0  0.00000000000E+00  0.00000000000E+00  0.45593999997E+02  0.45594000000E+02  0.51100000000E-03 0. -1.
         11   -1    0    0    0    0 -0.00000000000E+00 -0.00000000000E+00 -0.45593999997E+02  0.45594000000E+02  0.51100000000E-03 0.  1.
    9900012    2    1    2    0    0  0.21702253193E+02  0.32049821709E+02  0.12449383510E+02  0.50528855702E+02  0.29999987392E+02 0.  0.
        -12    1    1    2    0    0 -0.21702253193E+02 -0.32049821709E+02 -0.12449383510E+02  0.40659144298E+02  0.00000000000E+00 0.  1.
         11    1    3    3    0    0  0.10976210940E+02  0.17743111625E+02  0.11697852329E+02  0.23919342928E+02  0.51100000000E-03 0. -1.
        -11    1    3    3    0    0  0.82334912321E+01  0.19307450887E+02  0.10310407612E+01  0.21015020413E+02  0.51100000000E-03 0.  1.
        -12    1    3    3    0    0  0.24925510213E+01 -0.50007408031E+01 -0.27950958077E+00  0.55944923612E+01  0.00000000000E+00 0.  1.
</event>
<event>
 7    1  0.5005325E-012  0.5052885E+02  0.7816164E-02  0.1300439E+00
        -11   -1    0    0    0    0  0.00000000000E+00  0.00000000000E+00  0.45593999997E+02  0.45594000000E+02  0.51100000000E-03 0. -1.
         11   -1    0    0    0    0 -0.00000000000E+00 -0.00000000000E+00 -0.45593999997E+02  0.45594000000E+02  0.51100000000E-03 0.  1.
    9900012    2    1    2    0    0 -0.85569437966E+01 -0.17253063816E+02 -0.35808891939E+02  0.50528852935E+02  0.29999978982E+02 0.  0.
         12    1    1    2    0    0  0.85569437966E+01  0.17253063816E+02  0.35808891939E+02  0.40659147065E+02  0.00000000000E+00 0. -1.
         11    1    3    3    0    0 -0.32932251681E+01 -0.27398503048E+01 -0.72918758301E+00  0.43455524957E+01  0.51100000000E-03 0. -1.
        -11    1    3    3    0    0 -0.13004065332E+02 -0.14286873329E+02 -0.32876255241E+02  0.38132251752E+02  0.51100000000E-03 0.  1.
        -12    1    3    3    0    0  0.77403467040E+01 -0.22634018147E+00 -0.22034491143E+01  0.80510486879E+01  0.00000000000E+00 0.  1.
</event>
<event>
 7    1  0.5005325E-012  0.5052886E+02  0.7816164E-02  0.1300439E+00
        -11   -1    0    0    0    0  0.00000000000E+00  0.00000000000E+00  0.45593999997E+02  0.45594000000E+02  0.51100000000E-03 0. -1.
         11   -1    0    0    0    0 -0.00000000000E+00 -0.00000000000E+00 -0.45593999997E+02  0.45594000000E+02  0.51100000000E-03 0.  1.
    9900012    2    1    2    0    0 -0.35055096496E+01 -0.17819907459E+02  0.36377572528E+02  0.50528862247E+02  0.30000007286E+02 0.  0.
        -12    1    1    2    0    0  0.35055096496E+01  0.17819907459E+02 -0.36377572528E+02  0.40659137753E+02  0.00000000000E+00 0.  1.
         11    1    3    3    0    0 -0.15292959936E+01 -0.68555860490E+01  0.24209494316E+02  0.25207884116E+02  0.51100000000E-03 0. -1.
        -11    1    3    3    0    0 -0.10551519474E+02 -0.62354795013E+01  0.52624395239E+01  0.13338254677E+02  0.51100000000E-03 0.  1.
        -12    1    3    3    0    0  0.85753058180E+01 -0.47288419091E+01  0.69056386883E+01  0.11982723454E+02  0.00000000000E+00 0.  1.
</event>
<event>
 7    1  0.5005325E-012  0.5052885E+02  0.7816164E-02  0.1300439E+00
        -11   -1    0    0    0    0  0.00000000000E+00  0.00000000000E+00  0.45593999997E+02  0.45594000000E+02  0.51100000000E-03 0.  1.
         11   -1    0    0    0    0 -0.00000000000E+00 -0.00000000000E+00 -0.45593999997E+02  0.45594000000E+02  0.51100000000E-03 0. -1.
    9900012    2    1    2    0    0  0.89667582115E+01 -0.29235378782E+02  0.26796571883E+02  0.50528851090E+02  0.29999973375E+02 0.  0.
        -12    1    1    2    0    0 -0.89667582115E+01  0.29235378782E+02 -0.26796571883E+02  0.40659148910E+02  0.00000000000E+00 0.  1.
         11    1    3    3    0    0  0.13447146455E+01 -0.46490873922E+01 -0.21846583924E+01  0.53098967608E+01  0.51100000000E-03 0. -1.
        -11    1    3    3    0    0 -0.50316944384E+01 -0.13164976197E+02  0.23337478076E+02  0.27263023134E+02  0.51100000000E-03 0.  1.
         12    1    3    3    0    0  0.12653738004E+02 -0.11421315193E+02  0.56437521996E+01  0.17955931196E+02  0.00000000000E+00 0. -1.
</event>
<event>
 7    1  0.5005325E-012  0.5052886E+02  0.7816164E-02  0.1300439E+00
        -11   -1    0    0    0    0  0.00000000000E+00  0.00000000000E+00  0.45593999997E+02  0.45594000000E+02  0.51100000000E-03 0. -1.
         11   -1    0    0    0    0 -0.00000000000E+00 -0.00000000000E+00 -0.45593999997E+02  0.45594000000E+02  0.51100000000E-03 0.  1.
    9900012    2    1    2    0    0 -0.51147879705E+01  0.29787751468E+02 -0.27197322016E+02  0.50528861810E+02  0.30000005958E+02 0.  0.
         12    1    1    2    0    0  0.51147879705E+01 -0.29787751468E+02  0.27197322016E+02  0.40659138190E+02  0.00000000000E+00 0. -1.
         11    1    3    3    0    0  0.22373252870E+01  0.47014906073E+01  0.71514021061E-01  0.52071828167E+01  0.51100000000E-03 0. -1.
        -11    1    3    3    0    0  0.92683572799E+01  0.75884720077E+01 -0.10559375163E+02  0.15968336111E+02  0.51100000000E-03 0.  1.
        -12    1    3    3    0    0 -0.16620470537E+02  0.17497788853E+02 -0.16709460875E+02  0.29353342882E+02  0.00000000000E+00 0.  1.
</event>
<event>
 7    1  0.5005325E-012  0.5052886E+02  0.7816164E-02  0.1300439E+00
        -11   -1    0    0    0    0  0.00000000000E+00  0.00000000000E+00  0.45593999997E+02  0.45594000000E+02  0.51100000000E-03 0. -1.
         11   -1    0    0    0    0 -0.00000000000E+00 -0.00000000000E+00 -0.45593999997E+02  0.45594000000E+02  0.51100000000E-03 0.  1.
    9900012    2    1    2    0    0 -0.61691884269E+01 -0.60278802101E+01  0.39733760376E+02  0.50528856634E+02  0.29999990224E+02 0.  0.
        -12    1    1    2    0    0  0.61691884269E+01  0.60278802101E+01 -0.39733760376E+02  0.40659143366E+02  0.00000000000E+00 0.  1.
         11    1    3    3    0    0  0.39174776996E+01 -0.31589862449E+01  0.26203777885E+02  0.26682649818E+02  0.51100000000E-03 0. -1.
        -11    1    3    3    0    0 -0.67813314926E+01 -0.88426749000E+01  0.12813731272E+02  0.16981491853E+02  0.51100000000E-03 0.  1.
         12    1    3    3    0    0 -0.33053346339E+01  0.59737809348E+01  0.71625121903E+00  0.68647149619E+01  0.00000000000E+00 0. -1.
</event>
<event>
 7    1  0.5005325E-012  0.5052886E+02  0.7816164E-02  0.1300439E+00
        -11   -1    0    0    0    0  0.00000000000E+00  0.00000000000E+00  0.45593999997E+02  0.45594000000E+02  0.51100000000E-03 0. -1.
         11   -1    0    0    0    0 -0.00000000000E+00 -0.00000000000E+00 -0.45593999997E+02  0.45594000000E+02  0.51100000000E-03 0.  1.
    9900012    2    1    2    0    0 -0.27611258434E+02  0.27062243888E+02 -0.12586456992E+02  0.50528861591E+02  0.30000005291E+02 0.  0.
        -12    1    1    2    0    0  0.27611258434E+02 -0.27062243888E+02  0.12586456992E+02  0.40659138409E+02  0.00000000000E+00 0.  1.
         11    1    3    3    0    0 -0.19557147411E+02  0.30100880571E+02 -0.56857523441E+01  0.36343813861E+02  0.51100000000E-03 0. -1.
        -11    1    3    3    0    0 -0.11339037154E+01  0.83298880787E+00 -0.60482512491E+01  0.62097464862E+01  0.51100000000E-03 0.  1.
        -12    1    3    3    0    0 -0.69202073083E+01 -0.38716254907E+01 -0.85245339891E+00  0.79753012437E+01  0.00000000000E+00 0.  1.
</event>
<event>
 7    1  0.5005325E-012  0.5052886E+02  0.7816164E-02  0.1300439E+00
        -11   -1    0    0    0    0  0.00000000000E+00  0.00000000000E+00  0.45593999997E+02  0.45594000000E+02  0.51100000000E-03 0. -1.
         11   -1    0    0    0    0 -0.00000000000E+00 -0.00000000000E+00 -0.45593999997E+02  0.45594000000E+02  0.51100000000E-03 0.  1.
    9900012    2    1    2    0    0 -0.27736572959E+02  0.17165818905E+02 -0.24273082057E+02  0.50528864117E+02  0.30000012970E+02 0.  0.
         12    1    1    2    0    0  0.27736572959E+02 -0.17165818905E+02  0.24273082057E+02  0.40659135883E+02  0.00000000000E+00 0. -1.
         11    1    3    3    0    0 -0.66352650371E+01 -0.54527431122E+01 -0.44867919600E+01  0.96897085567E+01  0.51100000000E-03 0. -1.
        -11    1    3    3    0    0 -0.12601100080E+02  0.72469174164E+01 -0.18068533274E+02  0.23190028681E+02  0.51100000000E-03 0.  1.
         12    1    3    3    0    0 -0.85002078413E+01  0.15371644601E+02 -0.17177568229E+01  0.17649126879E+02  0.00000000000E+00 0. -1.
</event>
<event>
 7    1  0.5005325E-012  0.5052886E+02  0.7816164E-02  0.1300439E+00
        -11   -1    0    0    0    0  0.00000000000E+00  0.00000000000E+00  0.45593999997E+02  0.45594000000E+02  0.51100000000E-03 0.  1.
         11   -1    0    0    0    0 -0.00000000000E+00 -0.00000000000E+00 -0.45593999997E+02  0.45594000000E+02  0.51100000000E-03 0. -1.
    9900012    2    1    2    0    0  0.35930669339E+02  0.10500294925E+02  0.15871235999E+02  0.50528864190E+02  0.30000013192E+02 0.  0.
         12    1    1    2    0    0 -0.35930669339E+02 -0.10500294925E+02 -0.15871235999E+02  0.40659135810E+02  0.00000000000E+00 0. -1.
         11    1    3    3    0    0  0.54491399816E+01  0.48670517436E+01  0.50261282827E+00  0.73235195862E+01  0.51100000000E-03 0. -1.
        -11    1    3    3    0    0  0.18959826323E+02  0.10736851219E+02  0.20197690106E+02  0.29710295761E+02  0.51100000000E-03 0.  1.
         12    1    3    3    0    0  0.11521703035E+02 -0.51036080372E+01 -0.48290669353E+01  0.13495048843E+02  0.00000000000E+00 0. -1.
</event>
<event>
 7    1  0.5005325E-012  0.5052883E+02  0.7816164E-02  0.1300439E+00
        -11   -1    0    0    0    0  0.00000000000E+00  0.00000000000E+00  0.45593999997E+02  0.45594000000E+02  0.51100000000E-03 0. -1.
         11   -1    0    0    0    0 -0.00000000000E+00 -0.00000000000E+00 -0.45593999997E+02  0.45594000000E+02  0.51100000000E-03 0.  1.
    9900012    2    1    2    0    0 -0.10582944139E+02 -0.25283810700E+02  0.30031622503E+02  0.50528829566E+02  0.29999907950E+02 0.  0.
        -12    1    1    2    0    0  0.10582944139E+02  0.25283810700E+02 -0.30031622503E+02  0.40659170434E+02  0.00000000000E+00 0.  1.
         11    1    3    3    0    0 -0.26995070275E+01 -0.23083966247E+02  0.22225613885E+02  0.32157965556E+02  0.51100000000E-03 0.  1.
        -11    1    3    3    0    0 -0.76352311495E+01 -0.77015733171E+01  0.67181168241E+01  0.12757118804E+02  0.51100000000E-03 0. -1.
        -12    1    3    3    0    0 -0.24820596234E+00  0.55017288633E+01  0.10878917944E+01  0.56137452063E+01  0.00000000000E+00 0.  1.
</event>
<event>
 7    1  0.5005325E-012  0.5052882E+02  0.7816164E-02  0.1300439E+00
        -11   -1    0    0    0    0  0.00000000000E+00  0.00000000000E+00  0.45593999997E+02  0.45594000000E+02  0.51100000000E-03 0. -1.
         11   -1    0    0    0    0 -0.00000000000E+00 -0.00000000000E+00 -0.45593999997E+02  0.45594000000E+02  0.51100000000E-03 0.  1.
    9900012    2    1    2    0    0 -0.39311611289E+02 -0.10195358375E+02 -0.19547292154E+01  0.50528818001E+02  0.29999872794E+02 0.  0.
         12    1    1    2    0    0  0.39311611289E+02  0.10195358375E+02  0.19547292154E+01  0.40659181999E+02  0.00000000000E+00 0. -1.
         11    1    3    3    0    0 -0.10246638035E+02  0.34673379663E+01  0.32944429650E+01  0.11307934307E+02  0.51100000000E-03 0. -1.
        -11    1    3    3    0    0 -0.31105024665E+02 -0.16246137584E+02 -0.29711459797E+01  0.35217712227E+02  0.51100000000E-03 0.  1.
         12    1    3    3    0    0  0.20400514106E+01  0.25834412432E+01 -0.22780262007E+01  0.40031714660E+01  0.00000000000E+00 0. -1.
</event>
<event>
 7    1  0.5005325E-012  0.5052886E+02  0.7816164E-02  0.1300439E+00
        -11   -1    0    0    0    0  0.00000000000E+00  0.00000000000E+00  0.45593999997E+02  0.45594000000E+02  0.51100000000E-03 0. -1.
         11   -1    0    0    0    0 -0.00000000000E+00 -0.00000000000E+00 -0.45593999997E+02  0.45594000000E+02  0.51100000000E-03 0.  1.
    9900012    2    1    2    0    0 -0.39836456939E+01 -0.41456814103E+01 -0.40250586581E+02  0.50528858008E+02  0.29999994402E+02 0.  0.
         12    1    1    2    0    0  0.39836456939E+01  0.41456814103E+01  0.40250586581E+02  0.40659141992E+02  0.00000000000E+00 0. -1.
         11    1    3    3    0    0  0.10658532815E+02 -0.88455659799E+00 -0.11809820742E+02  0.15932941611E+02  0.51100000000E-03 0. -1.
        -11    1    3    3    0    0  0.10601899588E+01 -0.15225388871E+01  0.22108566844E+00  0.18684235455E+01  0.51100000000E-03 0.  1.
        -12    1    3    3    0    0 -0.15702368468E+02 -0.17385859253E+01 -0.28661851508E+02  0.32727492852E+02  0.00000000000E+00 0.  1.
</event>
<event>
 7    1  0.5005325E-012  0.5052886E+02  0.7816164E-02  0.1300439E+00
        -11   -1    0    0    0    0  0.00000000000E+00  0.00000000000E+00  0.45593999997E+02  0.45594000000E+02  0.51100000000E-03 0. -1.
         11   -1    0    0    0    0 -0.00000000000E+00 -0.00000000000E+00 -0.45593999997E+02  0.45594000000E+02  0.51100000000E-03 0.  1.
    9900012    2    1    2    0    0  0.50026061397E+01 -0.10148087156E+02 -0.39053248358E+02  0.50528856522E+02  0.29999989884E+02 0.  0.
         12    1    1    2    0    0 -0.50026061397E+01  0.10148087156E+02  0.39053248358E+02  0.40659143478E+02  0.00000000000E+00 0. -1.
         11    1    3    3    0    0  0.68728889196E+01 -0.49642897988E+00 -0.66511907016E-01  0.68911151440E+01  0.51100000000E-03 0. -1.
        -11    1    3    3    0    0  0.40178104961E+01 -0.11373720261E+02 -0.32699406869E+02  0.34853343077E+02  0.51100000000E-03 0.  1.
         12    1    3    3    0    0 -0.58880932760E+01  0.17220620849E+01 -0.62873295812E+01  0.87843983011E+01  0.00000000000E+00 0. -1.
</event>
<event>
 7    1  0.5005325E-012  0.5052887E+02  0.7816164E-02  0.1300439E+00
        -11   -1    0    0    0    0  0.00000000000E+00  0.00000000000E+00  0.45593999997E+02  0.45594000000E+02  0.51100000000E-03 0.  1.
         11   -1    0    0    0    0 -0.00000000000E+00 -0.00000000000E+00 -0.45593999997E+02  0.45594000000E+02  0.51100000000E-03 0. -1.
    9900012    2    1    2    0    0 -0.33254329482E+02 -0.18045683928E+02 -0.14888518306E+02  0.50528866769E+02  0.30000021030E+02 0.  0.
         12    1    1    2    0    0  0.33254329482E+02  0.18045683928E+02  0.14888518306E+02  0.40659133231E+02  0.00000000000E+00 0. -1.
         11    1    3    3    0    0 -0.14174784828E+02 -0.16523715923E+02 -0.59871562055E+01  0.22578834171E+02  0.51100000000E-03 0. -1.
        -11    1    3    3    0    0 -0.21937735344E+02 -0.24592176027E+01 -0.10608000575E+02  0.24491665107E+02  0.51100000000E-03 0.  1.
         12    1    3    3    0    0  0.28581906888E+01  0.93724959759E+00  0.17066384747E+01  0.34583674913E+01  0.00000000000E+00 0. -1.
</event>
<event>
 7    1  0.5005325E-012  0.5052886E+02  0.7816164E-02  0.1300439E+00
        -11   -1    0    0    0    0  0.00000000000E+00  0.00000000000E+00  0.45593999997E+02  0.45594000000E+02  0.51100000000E-03 0. -1.
         11   -1    0    0    0    0 -0.00000000000E+00 -0.00000000000E+00 -0.45593999997E+02  0.45594000000E+02  0.51100000000E-03 0.  1.
    9900012    2    1    2    0    0 -0.15616270010E+02  0.35425543233E+01 -0.37373095156E+02  0.50528858079E+02  0.29999994618E+02 0.  0.
         12    1    1    2    0    0  0.15616270010E+02 -0.35425543233E+01  0.37373095156E+02  0.40659141921E+02  0.00000000000E+00 0. -1.
         11    1    3    3    0    0 -0.76577271343E+01  0.10866820226E+02 -0.10046748496E+02  0.16663304663E+02  0.51100000000E-03 0. -1.
        -11    1    3    3    0    0 -0.80773867245E+01  0.37220758943E+01 -0.10862309946E+02  0.14038796347E+02  0.51100000000E-03 0.  1.
         12    1    3    3    0    0  0.11884384843E+00 -0.11046341797E+02 -0.16464036714E+02  0.19826757069E+02  0.00000000000E+00 0. -1.
</event>
<event>
 7    1  0.5005325E-012  0.5052888E+02  0.7816164E-02  0.1300439E+00
        -11   -1    0    0    0    0  0.00000000000E+00  0.00000000000E+00  0.45593999997E+02  0.45594000000E+02  0.51100000000E-03 0. -1.
         11   -1    0    0    0    0 -0.00000000000E+00 -0.00000000000E+00 -0.45593999997E+02  0.45594000000E+02  0.51100000000E-03 0.  1.
    9900012    2    1    2    0    0  0.33660185001E+01 -0.27497501468E+02  0.29761068310E+02  0.50528882271E+02  0.30000068152E+02 0.  0.
        -12    1    1    2    0    0 -0.33660185001E+01  0.27497501468E+02 -0.29761068310E+02  0.40659117729E+02  0.00000000000E+00 0.  1.
         11    1    3    3    0    0 -0.63221760848E+00 -0.16718414971E+02  0.11651340033E+02  0.20387712552E+02  0.51100000000E-03 0. -1.
        -11    1    3    3    0    0  0.97408884692E+01 -0.14283503849E+02  0.11923154847E+02  0.21001547851E+02  0.51100000000E-03 0.  1.
         12    1    3    3    0    0 -0.57426523606E+01  0.35044173520E+01  0.61865734292E+01  0.91396218689E+01  0.00000000000E+00 0. -1.
</event>
<event>
 7    1  0.5005325E-012  0.5052885E+02  0.7816164E-02  0.1300439E+00
        -11   -1    0    0    0    0  0.00000000000E+00  0.00000000000E+00  0.45593999997E+02  0.45594000000E+02  0.51100000000E-03 0. -1.
         11   -1    0    0    0    0 -0.00000000000E+00 -0.00000000000E+00 -0.45593999997E+02  0.45594000000E+02  0.51100000000E-03 0.  1.
    9900012    2    1    2    0    0  0.88519694970E+01  0.11607082892E+02  0.37948444383E+02  0.50528853817E+02  0.29999981662E+02 0.  0.
        -12    1    1    2    0    0 -0.88519694970E+01 -0.11607082892E+02 -0.37948444383E+02  0.40659146183E+02  0.00000000000E+00 0.  1.
         11    1    3    3    0    0 -0.53479809433E+01 -0.12392710653E+01  0.31174937881E+01  0.63131181458E+01  0.51100000000E-03 0. -1.
        -11    1    3    3    0    0  0.81082026209E+01 -0.22396744133E+01  0.39108973262E+01  0.92765408087E+01  0.51100000000E-03 0.  1.
         12    1    3    3    0    0  0.60917478193E+01  0.15086028371E+02  0.30920053269E+02  0.34939194862E+02  0.00000000000E+00 0. -1.
</event>
<event>
 7    1  0.5005325E-012  0.5052886E+02  0.7816164E-02  0.1300439E+00
        -11   -1    0    0    0    0  0.00000000000E+00  0.00000000000E+00  0.45593999997E+02  0.45594000000E+02  0.51100000000E-03 0. -1.
         11   -1    0    0    0    0 -0.00000000000E+00 -0.00000000000E+00 -0.45593999997E+02  0.45594000000E+02  0.51100000000E-03 0.  1.
    9900012    2    1    2    0    0 -0.12633172208E+02  0.23680238251E+02  0.30542015754E+02  0.50528862651E+02  0.30000008513E+02 0.  0.
        -12    1    1    2    0    0  0.12633172208E+02 -0.23680238251E+02 -0.30542015754E+02  0.40659137349E+02  0.00000000000E+00 0.  1.
         11    1    3    3    0    0 -0.15171196472E+01  0.70686156108E+01  0.64887952888E+01  0.97144965509E+01  0.51100000000E-03 0. -1.
        -11    1    3    3    0    0  0.40667171469E+01  0.77221698349E+01 -0.23937807321E+01  0.90498774448E+01  0.51100000000E-03 0.  1.
         12    1    3    3    0    0 -0.15182769708E+02  0.88894528049E+01  0.26447001198E+02  0.31764488655E+02  0.00000000000E+00 0. -1.
</event>
<event>
 7    1  0.5005325E-012  0.5052886E+02  0.7816164E-02  0.1300439E+00
        -11   -1    0    0    0    0  0.00000000000E+00  0.00000000000E+00  0.45593999997E+02  0.45594000000E+02  0.51100000000E-03 0. -1.
         11   -1    0    0    0    0 -0.00000000000E+00 -0.00000000000E+00 -0.45593999997E+02  0.45594000000E+02  0.51100000000E-03 0.  1.
    9900012    2    1    2    0    0 -0.52413080109E+01  0.59034822604E+01  0.39885375236E+02  0.50528861173E+02  0.30000004020E+02 0.  0.
        -12    1    1    2    0    0  0.52413080109E+01 -0.59034822604E+01 -0.39885375236E+02  0.40659138827E+02  0.00000000000E+00 0.  1.
         11    1    3    3    0    0 -0.80504111810E+01  0.42674319628E+01  0.41702516683E+01  0.10020533667E+02  0.51100000000E-03 0.  1.
        -11    1    3    3    0    0 -0.70417809308E+01 -0.35516513201E+01  0.12861053347E+02  0.15086669587E+02  0.51100000000E-03 0. -1.
         12    1    3    3    0    0  0.98508841009E+01  0.51877016177E+01  0.22854070221E+02  0.25421657918E+02  0.00000000000E+00 0. -1.
</event>
<event>
 7    1  0.5005325E-012  0.5052887E+02  0.7816164E-02  0.1300439E+00
        -11   -1    0    0    0    0  0.00000000000E+00  0.00000000000E+00  0.45593999997E+02  0.45594000000E+02  0.51100000000E-03 0.  1.
         11   -1    0    0    0    0 -0.00000000000E+00 -0.00000000000E+00 -0.45593999997E+02  0.45594000000E+02  0.51100000000E-03 0. -1.
    9900012    2    1    2    0    0  0.15719146287E+02 -0.19721652590E+02 -0.31892470297E+02  0.50528870613E+02  0.30000032716E+02 0.  0.
         12    1    1    2    0    0 -0.15719146287E+02  0.19721652590E+02  0.31892470297E+02  0.40659129387E+02  0.00000000000E+00 0. -1.
         11    1    3    3    0    0 -0.31103122353E+01 -0.16095888814E+02 -0.13970943730E+02  0.21539242045E+02  0.51100000000E-03 0. -1.
        -11    1    3    3    0    0  0.23085524030E+01 -0.27153213081E+01  0.11462673245E+01  0.37438366743E+01  0.51100000000E-03 0.  1.
         12    1    3    3    0    0  0.16520906119E+02 -0.91044246801E+00 -0.19067793891E+02  0.25245791894E+02  0.00000000000E+00 0. -1.
</event>
<event>
 7    1  0.5005325E-012  0.5052889E+02  0.7816164E-02  0.1300439E+00
        -11   -1    0    0    0    0  0.00000000000E+00  0.00000000000E+00  0.45593999997E+02  0.45594000000E+02  0.51100000000E-03 0. -1.
         11   -1    0    0    0    0 -0.00000000000E+00 -0.00000000000E+00 -0.45593999997E+02  0.45594000000E+02  0.51100000000E-03 0.  1.
    9900012    2    1    2    0    0  0.26994579799E+01  0.13059126026E+02  0.38410096860E+02  0.50528888023E+02  0.30000085636E+02 0.  0.
        -12    1    1    2    0    0 -0.26994579799E+01 -0.13059126026E+02 -0.38410096860E+02  0.40659111977E+02  0.00000000000E+00 0.  1.
         11    1    3    3    0    0  0.35845491539E+01 -0.16940074852E+01  0.87520979258E+00  0.40601288697E+01  0.51100000000E-03 0. -1.
        -11    1    3    3    0    0  0.24281905773E+01  0.56256661099E+01 -0.14468406170E+01  0.62958380453E+01  0.51100000000E-03 0.  1.
         12    1    3    3    0    0 -0.33132817513E+01  0.91274674018E+01  0.38981727684E+02  0.40172921108E+02  0.00000000000E+00 0. -1.
</event>
<event>
 7    1  0.5084136E-012  0.5052886E+02  0.7816164E-02  0.1300439E+00
        -11   -1    0    0    0    0  0.00000000000E+00  0.00000000000E+00  0.45593999997E+02  0.45594000000E+02  0.51100000000E-03 0. -1.
         11   -1    0    0    0    0 -0.00000000000E+00 -0.00000000000E+00 -0.45593999997E+02  0.45594000000E+02  0.51100000000E-03 0.  1.
    9900012    2    1    2    0    0 -0.25024548307E+01  0.10905224880E+02  0.39089382530E+02  0.50528855439E+02  0.29999986593E+02 0.  0.
        -12    1    1    2    0    0  0.25024548307E+01 -0.10905224880E+02 -0.39089382530E+02  0.40659144561E+02  0.00000000000E+00 0.  1.
         11    1    3    3    0    0  0.33696212928E+01  0.10965266084E+02  0.20375473282E+02  0.23382714122E+02  0.51100000000E-03 0. -1.
        -11    1    3    3    0    0 -0.19594458400E+01  0.47039082093E+01 -0.20453518183E+01  0.54908692174E+01  0.51100000000E-03 0.  1.
        -12    1    3    3    0    0 -0.39126302835E+01 -0.47639494129E+01  0.20759261066E+02  0.21655272100E+02  0.00000000000E+00 0.  1.
</event>
<event>
 7    1  0.5005325E-012  0.5052886E+02  0.7816164E-02  0.1300439E+00
        -11   -1    0    0    0    0  0.00000000000E+00  0.00000000000E+00  0.45593999997E+02  0.45594000000E+02  0.51100000000E-03 0. -1.
         11   -1    0    0    0    0 -0.00000000000E+00 -0.00000000000E+00 -0.45593999997E+02  0.45594000000E+02  0.51100000000E-03 0.  1.
    9900012    2    1    2    0    0 -0.17288898670E+01 -0.76428233413E+01 -0.39896911111E+02  0.50528864188E+02  0.30000013186E+02 0.  0.
         12    1    1    2    0    0  0.17288898670E+01  0.76428233413E+01  0.39896911111E+02  0.40659135812E+02  0.00000000000E+00 0. -1.
         11    1    3    3    0    0  0.48979501928E+01 -0.15163261805E+02 -0.16884207316E+02  0.23216177154E+02  0.51100000000E-03 0.  1.
        -11    1    3    3    0    0  0.22230128385E+01 -0.37905050124E+00 -0.13882204437E+01  0.26481354996E+01  0.51100000000E-03 0. -1.
        -12    1    3    3    0    0 -0.88498528984E+01  0.78994889653E+01 -0.21624483350E+02  0.24664551535E+02  0.00000000000E+00 0.  1.
</event>
<event>
 7    1  0.5005325E-012  0.5052888E+02  0.7816164E-02  0.1300439E+00
        -11   -1    0    0    0    0  0.00000000000E+00  0.00000000000E+00  0.45593999997E+02  0.45594000000E+02  0.51100000000E-03 0.  1.
         11   -1    0    0    0    0 -0.00000000000E+00 -0.00000000000E+00 -0.45593999997E+02  0.45594000000E+02  0.51100000000E-03 0. -1.
    9900012    2    1    2    0    0  0.36379527801E+02 -0.18070254940E+02 -0.17775557799E+01  0.50528882189E+02  0.30000067901E+02 0.  0.
        -12    1    1    2    0    0 -0.36379527801E+02  0.18070254940E+02  0.17775557799E+01  0.40659117811E+02  0.00000000000E+00 0.  1.
         11    1    3    3    0    0  0.61859136520E+01 -0.84011798552E+01  0.34673525176E+01  0.10993993106E+02  0.51100000000E-03 0. -1.
        -11    1    3    3    0    0 -0.38024033435E+01 -0.21338404587E+01 -0.40392790737E+00  0.43788930456E+01  0.51100000000E-03 0.  1.
         12    1    3    3    0    0  0.33996017493E+02 -0.75352346262E+01 -0.48409803901E+01  0.35155996037E+02  0.00000000000E+00 0. -1.
</event>
<event>
 7    1  0.5005325E-012  0.5052885E+02  0.7816164E-02  0.1300439E+00
        -11   -1    0    0    0    0  0.00000000000E+00  0.00000000000E+00  0.45593999997E+02  0.45594000000E+02  0.51100000000E-03 0. -1.
         11   -1    0    0    0    0 -0.00000000000E+00 -0.00000000000E+00 -0.45593999997E+02  0.45594000000E+02  0.51100000000E-03 0.  1.
    9900012    2    1    2    0    0  0.25192745830E+01 -0.30657532064E+02 -0.26588254368E+02  0.50528852358E+02  0.29999977226E+02 0.  0.
         12    1    1    2    0    0 -0.25192745830E+01  0.30657532064E+02  0.26588254368E+02  0.40659147642E+02  0.00000000000E+00 0. -1.
         11    1    3    3    0    0 -0.63615489993E+01 -0.35366012067E+01 -0.11414045885E+02  0.13537255907E+02  0.51100000000E-03 0.  1.
        -11    1    3    3    0    0 -0.33831393834E+01 -0.12016127437E+02 -0.27633994321E+00  0.12486365152E+02  0.51100000000E-03 0. -1.
        -12    1    3    3    0    0  0.12263962966E+02 -0.15104803420E+02 -0.14897868540E+02  0.24505231299E+02  0.00000000000E+00 0.  1.
</event>
<event>
 7    1  0.5005325E-012  0.5052887E+02  0.7816164E-02  0.1300439E+00
        -11   -1    0    0    0    0  0.00000000000E+00  0.00000000000E+00  0.45593999997E+02  0.45594000000E+02  0.51100000000E-03 0. -1.
         11   -1    0    0    0    0 -0.00000000000E+00 -0.00000000000E+00 -0.45593999997E+02  0.45594000000E+02  0.51100000000E-03 0.  1.
    9900012    2    1    2    0    0 -0.17938461568E+02 -0.36334289798E+02 -0.33460165534E+01  0.50528870087E+02  0.30000031115E+02 0.  0.
         12    1    1    2    0    0  0.17938461568E+02  0.36334289798E+02  0.33460165534E+01  0.40659129913E+02  0.00000000000E+00 0. -1.
         11    1    3    3    0    0 -0.13845792388E+02 -0.35857914817E+02 -0.66720125881E+00  0.38444000568E+02  0.51100000000E-03 0. -1.
        -11    1    3    3    0    0 -0.18361940265E+01 -0.42311453491E+01  0.25445455210E+01  0.52677235726E+01  0.51100000000E-03 0.  1.
        -12    1    3    3    0    0 -0.22564751532E+01  0.37547703686E+01 -0.52233608156E+01  0.68171459459E+01  0.00000000000E+00 0.  1.
</event>
<event>
 7    1  0.5392309E-012  0.5052886E+02  0.7816164E-02  0.1300439E+00
        -11   -1    0    0    0    0  0.00000000000E+00  0.00000000000E+00  0.45593999997E+02  0.45594000000E+02  0.51100000000E-03 0. -1.
         11   -1    0    0    0    0 -0.00000000000E+00 -0.00000000000E+00 -0.45593999997E+02  0.45594000000E+02  0.51100000000E-03 0.  1.
    9900012    2    1    2    0    0  0.26376199126E+02  0.13476506384E+02  0.27854002880E+02  0.50528861038E+02  0.30000003612E+02 0.  0.
        -12    1    1    2    0    0 -0.26376199126E+02 -0.13476506384E+02 -0.27854002880E+02  0.40659138962E+02  0.00000000000E+00 0.  1.
         11    1    3    3    0    0  0.14265882570E+02  0.14642335717E+02  0.21112511021E+02  0.29387948595E+02  0.51100000000E-03 0. -1.
        -11    1    3    3    0    0  0.15570132573E+02  0.15024199629E+01  0.48233446622E+01  0.16369207314E+02  0.51100000000E-03 0.  1.
        -12    1    3    3    0    0 -0.34598160172E+01 -0.26682492956E+01  0.19181471963E+01  0.47717051295E+01  0.00000000000E+00 0.  1.
</event>
<event>
 7    1  0.5005325E-012  0.5052888E+02  0.7816164E-02  0.1300439E+00
        -11   -1    0    0    0    0  0.00000000000E+00  0.00000000000E+00  0.45593999997E+02  0.45594000000E+02  0.51100000000E-03 0. -1.
         11   -1    0    0    0    0 -0.00000000000E+00 -0.00000000000E+00 -0.45593999997E+02  0.45594000000E+02  0.51100000000E-03 0.  1.
    9900012    2    1    2    0    0 -0.19301684392E+02  0.96879714975E+01  0.34449276175E+02  0.50528875057E+02  0.30000046224E+02 0.  0.
        -12    1    1    2    0    0  0.19301684392E+02 -0.96879714975E+01 -0.34449276175E+02  0.40659124943E+02  0.00000000000E+00 0.  1.
         11    1    3    3    0    0 -0.12855730716E+02  0.80697894251E+01  0.14749627749E+02  0.21164659993E+02  0.51100000000E-03 0. -1.
        -11    1    3    3    0    0  0.13433639026E+01  0.99051757555E+01  0.64197055066E+01  0.11879804391E+02  0.51100000000E-03 0.  1.
         12    1    3    3    0    0 -0.77893175782E+01 -0.82869936831E+01  0.13279942920E+02  0.17484410673E+02  0.00000000000E+00 0. -1.
</event>
<event>
 7    1  0.5005325E-012  0.5052886E+02  0.7816164E-02  0.1300439E+00
        -11   -1    0    0    0    0  0.00000000000E+00  0.00000000000E+00  0.45593999997E+02  0.45594000000E+02  0.51100000000E-03 0. -1.
         11   -1    0    0    0    0 -0.00000000000E+00 -0.00000000000E+00 -0.45593999997E+02  0.45594000000E+02  0.51100000000E-03 0.  1.
    9900012    2    1    2    0    0  0.91507153170E+01 -0.37945404874E+02  0.11383150056E+02  0.50528862686E+02  0.30000008622E+02 0.  0.
        -12    1    1    2    0    0 -0.91507153170E+01  0.37945404874E+02 -0.11383150056E+02  0.40659137314E+02  0.00000000000E+00 0.  1.
         11    1    3    3    0    0  0.42822756239E+01 -0.10969154308E+02  0.13411649222E+02  0.17847480659E+02  0.51100000000E-03 0. -1.
        -11    1    3    3    0    0  0.72866017092E+01 -0.22124587428E+01 -0.16758386958E+01  0.77973055444E+01  0.51100000000E-03 0.  1.
        -12    1    3    3    0    0 -0.24181620162E+01 -0.24763791824E+02 -0.35266047002E+00  0.24884076483E+02  0.00000000000E+00 0.  1.
</event>
<event>
 7    1  0.5005325E-012  0.5052886E+02  0.7816164E-02  0.1300439E+00
        -11   -1    0    0    0    0  0.00000000000E+00  0.00000000000E+00  0.45593999997E+02  0.45594000000E+02  0.51100000000E-03 0. -1.
         11   -1    0    0    0    0 -0.00000000000E+00 -0.00000000000E+00 -0.45593999997E+02  0.45594000000E+02  0.51100000000E-03 0.  1.
    9900012    2    1    2    0    0 -0.27533429225E+02  0.13566167135E+02 -0.26665239140E+02  0.50528860880E+02  0.30000003130E+02 0.  0.
         12    1    1    2    0    0  0.27533429225E+02 -0.13566167135E+02  0.26665239140E+02  0.40659139120E+02  0.00000000000E+00 0. -1.
         11    1    3    3    0    0 -0.35926352395E+01 -0.12598469468E+01 -0.34758607788E+01  0.51551770782E+01  0.51100000000E-03 0. -1.
        -11    1    3    3    0    0 -0.18090665022E+02  0.16798527949E+02 -0.37412652345E+01  0.24969176358E+02  0.51100000000E-03 0.  1.
        -12    1    3    3    0    0 -0.58501289640E+01 -0.19725138672E+01 -0.19448113126E+02  0.20404507444E+02  0.00000000000E+00 0.  1.
</event>
<event>
 7    1  0.5005325E-012  0.5052887E+02  0.7816164E-02  0.1300439E+00
        -11   -1    0    0    0    0  0.00000000000E+00  0.00000000000E+00  0.45593999997E+02  0.45594000000E+02  0.51100000000E-03 0. -1.
         11   -1    0    0    0    0 -0.00000000000E+00 -0.00000000000E+00 -0.45593999997E+02  0.45594000000E+02  0.51100000000E-03 0.  1.
    9900012    2    1    2    0    0  0.96758937734E+01  0.21507158110E+01 -0.39432425536E+02  0.50528872089E+02  0.30000037203E+02 0.  0.
         12    1    1    2    0    0 -0.96758937734E+01 -0.21507158110E+01  0.39432425536E+02  0.40659127911E+02  0.00000000000E+00 0. -1.
         11    1    3    3    0    0 -0.14106534002E+01 -0.17507876135E+01 -0.17750209716E+02  0.17892041401E+02  0.51100000000E-03 0.  1.
        -11    1    3    3    0    0  0.10938841586E+02  0.10768764581E+02 -0.20589286781E+02  0.25681574645E+02  0.51100000000E-03 0. -1.
         12    1    3    3    0    0  0.14770558813E+00 -0.68672611569E+01 -0.10929290389E+01  0.69552560428E+01  0.00000000000E+00 0. -1.
</event>
<event>
 7    1  0.5005325E-012  0.5052886E+02  0.7816164E-02  0.1300439E+00
        -11   -1    0    0    0    0  0.00000000000E+00  0.00000000000E+00  0.45593999997E+02  0.45594000000E+02  0.51100000000E-03 0. -1.
         11   -1    0    0    0    0 -0.00000000000E+00 -0.00000000000E+00 -0.45593999997E+02  0.45594000000E+02  0.51100000000E-03 0.  1.
    9900012    2    1    2    0    0  0.76817900381E+00  0.21782978618E+02  0.34323131117E+02  0.50528860977E+02  0.30000003425E+02 0.  0.
        -12    1    1    2    0    0 -0.76817900381E+00 -0.21782978618E+02 -0.34323131117E+02  0.40659139023E+02  0.00000000000E+00 0.  1.
         11    1    3    3    0    0 -0.47729986809E+01  0.13038402708E+02  0.10466166934E+02  0.17387412463E+02  0.51100000000E-03 0. -1.
        -11    1    3    3    0    0 -0.57133153527E+01  0.10061141036E+02  0.13617842011E+02  0.17869363519E+02  0.51100000000E-03 0.  1.
         12    1    3    3    0    0  0.11254493037E+02 -0.13165651257E+01  0.10239122171E+02  0.15272084995E+02  0.00000000000E+00 0. -1.
</event>
<event>
 7    1  0.5005325E-012  0.5052877E+02  0.7816164E-02  0.1300439E+00
        -11   -1    0    0    0    0  0.00000000000E+00  0.00000000000E+00  0.45593999997E+02  0.45594000000E+02  0.51100000000E-03 0. -1.
         11   -1    0    0    0    0 -0.00000000000E+00 -0.00000000000E+00 -0.45593999997E+02  0.45594000000E+02  0.51100000000E-03 0.  1.
    9900012    2    1    2    0    0 -0.11347092626E+02 -0.12662914399E+01  0.39023231219E+02  0.50528774972E+02  0.29999742004E+02 0.  0.
        -12    1    1    2    0    0  0.11347092626E+02  0.12662914399E+01 -0.39023231219E+02  0.40659225028E+02  0.00000000000E+00 0.  1.
         11    1    3    3    0    0 -0.37216162724E+01  0.34007127959E+01  0.52371676541E+01  0.72693328785E+01  0.51100000000E-03 0. -1.
        -11    1    3    3    0    0 -0.15737641558E+02 -0.21291933169E+01  0.12094732918E+02  0.19962199042E+02  0.51100000000E-03 0.  1.
        -12    1    3    3    0    0  0.81121652042E+01 -0.25378109189E+01  0.21691330647E+02  0.23297243052E+02  0.00000000000E+00 0.  1.
</event>
<event>
 7    1  0.5005325E-012  0.5052886E+02  0.7816164E-02  0.1300439E+00
        -11   -1    0    0    0    0  0.00000000000E+00  0.00000000000E+00  0.45593999997E+02  0.45594000000E+02  0.51100000000E-03 0. -1.
         11   -1    0    0    0    0 -0.00000000000E+00 -0.00000000000E+00 -0.45593999997E+02  0.45594000000E+02  0.51100000000E-03 0.  1.
    9900012    2    1    2    0    0  0.27943214560E+02  0.26724130007E+01  0.29414294486E+02  0.50528858945E+02  0.29999997251E+02 0.  0.
        -12    1    1    2    0    0 -0.27943214560E+02 -0.26724130007E+01 -0.29414294486E+02  0.40659141055E+02  0.00000000000E+00 0.  1.
         11    1    3    3    0    0  0.15461319368E+02 -0.87797134900E+01  0.19690848831E+02  0.26530459731E+02  0.51100000000E-03 0. -1.
        -11    1    3    3    0    0  0.78164248785E+01  0.69032840507E+01  0.13031722485E+02  0.16690644678E+02  0.51100000000E-03 0.  1.
         12    1    3    3    0    0  0.46654703132E+01  0.45488424400E+01 -0.33082768304E+01  0.73077545370E+01  0.00000000000E+00 0. -1.
</event>
<event>
 7    1  0.5005325E-012  0.5052885E+02  0.7816164E-02  0.1300439E+00
        -11   -1    0    0    0    0  0.00000000000E+00  0.00000000000E+00  0.45593999997E+02  0.45594000000E+02  0.51100000000E-03 0. -1.
         11   -1    0    0    0    0 -0.00000000000E+00 -0.00000000000E+00 -0.45593999997E+02  0.45594000000E+02  0.51100000000E-03 0.  1.
    9900012    2    1    2    0    0  0.37845385996E+02 -0.14424636791E+02  0.35808873147E+01  0.50528854145E+02  0.29999982658E+02 0.  0.
         12    1    1    2    0    0 -0.37845385996E+02  0.14424636791E+02 -0.35808873147E+01  0.40659145855E+02  0.00000000000E+00 0. -1.
         11    1    3    3    0    0 -0.90633899340E+00 -0.43933569804E+00  0.24813189352E+01  0.26779488692E+01  0.51100000000E-03 0. -1.
        -11    1    3    3    0    0  0.15922886867E+02 -0.18581325594E+02  0.19538437582E+01  0.24548350101E+02  0.51100000000E-03 0.  1.
         12    1    3    3    0    0  0.22828838122E+02  0.45960245005E+01 -0.85427537870E+00  0.23302555174E+02  0.00000000000E+00 0. -1.
</event>
<event>
 7    1  0.5005325E-012  0.5052889E+02  0.7816164E-02  0.1300439E+00
        -11   -1    0    0    0    0  0.00000000000E+00  0.00000000000E+00  0.45593999997E+02  0.45594000000E+02  0.51100000000E-03 0.  1.
         11   -1    0    0    0    0 -0.00000000000E+00 -0.00000000000E+00 -0.45593999997E+02  0.45594000000E+02  0.51100000000E-03 0. -1.
    9900012    2    1    2    0    0 -0.21616927772E+02 -0.26990917122E+02  0.21386030014E+02  0.50528887207E+02  0.30000083153E+02 0.  0.
        -12    1    1    2    0    0  0.21616927772E+02  0.26990917122E+02 -0.21386030014E+02  0.40659112793E+02  0.00000000000E+00 0.  1.
         11    1    3    3    0    0 -0.49980279730E+01  0.85598457776E+00 -0.16191072660E+01  0.53230162329E+01  0.51100000000E-03 0. -1.
        -11    1    3    3    0    0  0.26336244313E+01 -0.64746800907E+01 -0.18052898449E+01  0.72191780423E+01  0.51100000000E-03 0.  1.
        -12    1    3    3    0    0 -0.19252524230E+02 -0.21372221609E+02  0.24810427125E+02  0.37986692931E+02  0.00000000000E+00 0.  1.
</event>
<event>
 7    1  0.5308195E-012  0.5052886E+02  0.7816164E-02  0.1300439E+00
        -11   -1    0    0    0    0  0.00000000000E+00  0.00000000000E+00  0.45593999997E+02  0.45594000000E+02  0.51100000000E-03 0. -1.
         11   -1    0    0    0    0 -0.00000000000E+00 -0.00000000000E+00 -0.45593999997E+02  0.45594000000E+02  0.51100000000E-03 0.  1.
    9900012    2    1    2    0    0  0.28769710993E+02  0.21747143121E+02  0.18775808557E+02  0.50528862140E+02  0.30000006961E+02 0.  0.
        -12    1    1    2    0    0 -0.28769710993E+02 -0.21747143121E+02 -0.18775808557E+02  0.40659137860E+02  0.00000000000E+00 0.  1.
         11    1    3    3    0    0  0.16586964141E+02  0.10935302723E+02  0.17692822107E+02  0.26603461794E+02  0.51100000000E-03 0. -1.
        -11    1    3    3    0    0  0.63348145659E+01 -0.25481629434E+01  0.54118213118E+01  0.87126815701E+01  0.51100000000E-03 0.  1.
        -12    1    3    3    0    0  0.58479322869E+01  0.13360003341E+02 -0.43288348618E+01  0.15212718776E+02  0.00000000000E+00 0.  1.
</event>
<event>
 7    1  0.5005325E-012  0.5052886E+02  0.7816164E-02  0.1300439E+00
        -11   -1    0    0    0    0  0.00000000000E+00  0.00000000000E+00  0.45593999997E+02  0.45594000000E+02  0.51100000000E-03 0. -1.
         11   -1    0    0    0    0 -0.00000000000E+00 -0.00000000000E+00 -0.45593999997E+02  0.45594000000E+02  0.51100000000E-03 0.  1.
    9900012    2    1    2    0    0 -0.23953782963E+02 -0.22900798154E+02 -0.23557062620E+02  0.50528862360E+02  0.30000007631E+02 0.  0.
         12    1    1    2    0    0  0.23953782963E+02  0.22900798154E+02  0.23557062620E+02  0.40659137640E+02  0.00000000000E+00 0. -1.
         11    1    3    3    0    0  0.39873703411E+01  0.38655456813E+00 -0.39855803986E+01  0.56509643466E+01  0.51100000000E-03 0. -1.
        -11    1    3    3    0    0 -0.74480151061E+01 -0.13523956447E+02 -0.15383003025E+02  0.21794657816E+02  0.51100000000E-03 0.  1.
         12    1    3    3    0    0 -0.20493138198E+02 -0.97633962747E+01 -0.41884791958E+01  0.23083240197E+02  0.00000000000E+00 0. -1.
</event>
<event>
 7    1  0.5005325E-012  0.5052885E+02  0.7816164E-02  0.1300439E+00
        -11   -1    0    0    0    0  0.00000000000E+00  0.00000000000E+00  0.45593999997E+02  0.45594000000E+02  0.51100000000E-03 0. -1.
         11   -1    0    0    0    0 -0.00000000000E+00 -0.00000000000E+00 -0.45593999997E+02  0.45594000000E+02  0.51100000000E-03 0.  1.
    9900012    2    1    2    0    0  0.12328676009E+02  0.36697043791E+01 -0.38570761135E+02  0.50528848546E+02  0.29999965641E+02 0.  0.
         12    1    1    2    0    0 -0.12328676009E+02 -0.36697043791E+01  0.38570761135E+02  0.40659151454E+02  0.00000000000E+00 0. -1.
         11    1    3    3    0    0  0.17930982803E+01 -0.57807880756E+01 -0.15106313096E+02  0.16273702954E+02  0.51100000000E-03 0. -1.
        -11    1    3    3    0    0  0.74709518406E+01  0.96425692377E+01 -0.26966790549E+02  0.29597331902E+02  0.51100000000E-03 0.  1.
        -12    1    3    3    0    0  0.30646258881E+01 -0.19207678292E+00  0.35023425096E+01  0.46578136909E+01  0.00000000000E+00 0.  1.
</event>
<event>
 7    1  0.5005325E-012  0.5052885E+02  0.7816164E-02  0.1300439E+00
        -11   -1    0    0    0    0  0.00000000000E+00  0.00000000000E+00  0.45593999997E+02  0.45594000000E+02  0.51100000000E-03 0. -1.
         11   -1    0    0    0    0 -0.00000000000E+00 -0.00000000000E+00 -0.45593999997E+02  0.45594000000E+02  0.51100000000E-03 0.  1.
    9900012    2    1    2    0    0 -0.29992782400E+02  0.13342990309E+02 -0.23990914661E+02  0.50528851303E+02  0.29999974022E+02 0.  0.
         12    1    1    2    0    0  0.29992782400E+02 -0.13342990309E+02  0.23990914661E+02  0.40659148697E+02  0.00000000000E+00 0. -1.
         11    1    3    3    0    0 -0.73324964505E+01 -0.66195109947E+01 -0.49031459416E+01  0.11028339421E+02  0.51100000000E-03 0. -1.
        -11    1    3    3    0    0 -0.80095556982E+01  0.16031107412E+01 -0.12801092058E+02  0.15185219942E+02  0.51100000000E-03 0.  1.
         12    1    3    3    0    0 -0.14650730251E+02  0.18359390562E+02 -0.62866766609E+01  0.24315291940E+02  0.00000000000E+00 0. -1.
</event>
<event>
 7    1  0.5422559E-012  0.5052886E+02  0.7816164E-02  0.1300439E+00
        -11   -1    0    0    0    0  0.00000000000E+00  0.00000000000E+00  0.45593999997E+02  0.45594000000E+02  0.51100000000E-03 0. -1.
         11   -1    0    0    0    0 -0.00000000000E+00 -0.00000000000E+00 -0.45593999997E+02  0.45594000000E+02  0.51100000000E-03 0.  1.
    9900012    2    1    2    0    0  0.28318474451E+02 -0.30494459219E+01  0.29016039687E+02  0.50528859887E+02  0.30000000112E+02 0.  0.
        -12    1    1    2    0    0 -0.28318474451E+02  0.30494459219E+01 -0.29016039687E+02  0.40659140113E+02  0.00000000000E+00 0.  1.
         11    1    3    3    0    0  0.17709454006E+02  0.16293438220E+00  0.21074481697E+02  0.27527896539E+02  0.51100000000E-03 0. -1.
        -11    1    3    3    0    0  0.15706377524E+02 -0.28766068280E+00  0.58583719547E+01  0.16765845216E+02  0.51100000000E-03 0.  1.
        -12    1    3    3    0    0 -0.50973570791E+01 -0.29247196213E+01  0.20831860346E+01  0.62351181312E+01  0.00000000000E+00 0.  1.
</event>
<event>
 7    1  0.5005325E-012  0.5052886E+02  0.7816164E-02  0.1300439E+00
        -11   -1    0    0    0    0  0.00000000000E+00  0.00000000000E+00  0.45593999997E+02  0.45594000000E+02  0.51100000000E-03 0. -1.
         11   -1    0    0    0    0 -0.00000000000E+00 -0.00000000000E+00 -0.45593999997E+02  0.45594000000E+02  0.51100000000E-03 0.  1.
    9900012    2    1    2    0    0 -0.29079640059E+02  0.11612820734E+02  0.25936119658E+02  0.50528863582E+02  0.30000011343E+02 0.  0.
        -12    1    1    2    0    0  0.29079640059E+02 -0.11612820734E+02 -0.25936119658E+02  0.40659136418E+02  0.00000000000E+00 0.  1.
         11    1    3    3    0    0 -0.10984938539E+02 -0.32437422489E+01  0.60562162805E+01  0.12956407464E+02  0.51100000000E-03 0. -1.
        -11    1    3    3    0    0  0.19509155249E+01 -0.17253923165E+01  0.90080157101E+01  0.93769609856E+01  0.51100000000E-03 0.  1.
         12    1    3    3    0    0 -0.20045617045E+02  0.16581955299E+02  0.10871887667E+02  0.28195495132E+02  0.00000000000E+00 0. -1.
</event>
<event>
 7    1  0.5005325E-012  0.5052884E+02  0.7816164E-02  0.1300439E+00
        -11   -1    0    0    0    0  0.00000000000E+00  0.00000000000E+00  0.45593999997E+02  0.45594000000E+02  0.51100000000E-03 0.  1.
         11   -1    0    0    0    0 -0.00000000000E+00 -0.00000000000E+00 -0.45593999997E+02  0.45594000000E+02  0.51100000000E-03 0. -1.
    9900012    2    1    2    0    0  0.38545214329E+02  0.12114666489E+02  0.45462455251E+01  0.50528843095E+02  0.29999949073E+02 0.  0.
        -12    1    1    2    0    0 -0.38545214329E+02 -0.12114666489E+02 -0.45462455251E+01  0.40659156905E+02  0.00000000000E+00 0.  1.
         11    1    3    3    0    0  0.19536054782E+02  0.34072846901E+01 -0.30830652662E+01  0.20069188252E+02  0.51100000000E-03 0. -1.
        -11    1    3    3    0    0  0.17990445914E+02  0.14347147215E+02  0.32333992350E+01  0.23236859690E+02  0.51100000000E-03 0.  1.
        -12    1    3    3    0    0  0.10187136327E+01 -0.56397654157E+01  0.43959115563E+01  0.72227951528E+01  0.00000000000E+00 0.  1.
</event>
<event>
 7    1  0.5005325E-012  0.5052886E+02  0.7816164E-02  0.1300439E+00
        -11   -1    0    0    0    0  0.00000000000E+00  0.00000000000E+00  0.45593999997E+02  0.45594000000E+02  0.51100000000E-03 0. -1.
         11   -1    0    0    0    0 -0.00000000000E+00 -0.00000000000E+00 -0.45593999997E+02  0.45594000000E+02  0.51100000000E-03 0.  1.
    9900012    2    1    2    0    0 -0.13370866231E+02  0.18784071101E+01 -0.38351761229E+02  0.50528855070E+02  0.29999985471E+02 0.  0.
         12    1    1    2    0    0  0.13370866231E+02 -0.18784071101E+01  0.38351761229E+02  0.40659144930E+02  0.00000000000E+00 0. -1.
         11    1    3    3    0    0  0.36563184824E+01  0.10179453629E+01 -0.11185773915E+02  0.11812130034E+02  0.51100000000E-03 0. -1.
        -11    1    3    3    0    0 -0.15121465351E+02  0.24206333069E+01 -0.30759152446E+02  0.34360495331E+02  0.51100000000E-03 0.  1.
         12    1    3    3    0    0 -0.19057193626E+01 -0.15601715598E+01  0.35931651312E+01  0.43562297052E+01  0.00000000000E+00 0. -1.
</event>
<event>
 7    1  0.5005325E-012  0.5052886E+02  0.7816164E-02  0.1300439E+00
        -11   -1    0    0    0    0  0.00000000000E+00  0.00000000000E+00  0.45593999997E+02  0.45594000000E+02  0.51100000000E-03 0. -1.
         11   -1    0    0    0    0 -0.00000000000E+00 -0.00000000000E+00 -0.45593999997E+02  0.45594000000E+02  0.51100000000E-03 0.  1.
    9900012    2    1    2    0    0 -0.12021713766E+02 -0.28157208642E+02 -0.26754727565E+02  0.50528862682E+02  0.30000008607E+02 0.  0.
         12    1    1    2    0    0  0.12021713766E+02  0.28157208642E+02  0.26754727565E+02  0.40659137318E+02  0.00000000000E+00 0. -1.
         11    1    3    3    0    0 -0.67152368164E+01 -0.11632645178E+02  0.44086162475E+01  0.14136786651E+02  0.51100000000E-03 0. -1.
        -11    1    3    3    0    0 -0.18880219794E+01 -0.71199985131E+01 -0.66845050316E+01  0.99469399113E+01  0.51100000000E-03 0.  1.
         12    1    3    3    0    0 -0.34184549707E+01 -0.94045649507E+01 -0.24478838781E+02  0.26445136119E+02  0.00000000000E+00 0. -1.
</event>
<event>
 7    1  0.5005325E-012  0.5052886E+02  0.7816164E-02  0.1300439E+00
        -11   -1    0    0    0    0  0.00000000000E+00  0.00000000000E+00  0.45593999997E+02  0.45594000000E+02  0.51100000000E-03 0. -1.
         11   -1    0    0    0    0 -0.00000000000E+00 -0.00000000000E+00 -0.45593999997E+02  0.45594000000E+02  0.51100000000E-03 0.  1.
    9900012    2    1    2    0    0 -0.16193797032E+01  0.21162052602E+00  0.40626330160E+02  0.50528857410E+02  0.29999992585E+02 0.  0.
        -12    1    1    2    0    0  0.16193797032E+01 -0.21162052602E+00 -0.40626330160E+02  0.40659142590E+02  0.00000000000E+00 0.  1.
         11    1    3    3    0    0  0.32994270516E+01  0.26512953032E+01  0.16121151831E+02  0.16667546978E+02  0.51100000000E-03 0. -1.
        -11    1    3    3    0    0 -0.34311134134E+01  0.22228161659E+01  0.27710857895E+02  0.28010803210E+02  0.51100000000E-03 0.  1.
        -12    1    3    3    0    0 -0.14876933414E+01 -0.46624909431E+01 -0.32056795660E+01  0.58505072218E+01  0.00000000000E+00 0.  1.
</event>
<event>
 7    1  0.5005325E-012  0.5052886E+02  0.7816164E-02  0.1300439E+00
        -11   -1    0    0    0    0  0.00000000000E+00  0.00000000000E+00  0.45593999997E+02  0.45594000000E+02  0.51100000000E-03 0. -1.
         11   -1    0    0    0    0 -0.00000000000E+00 -0.00000000000E+00 -0.45593999997E+02  0.45594000000E+02  0.51100000000E-03 0.  1.
    9900012    2    1    2    0    0 -0.10537017676E+02  0.23856178199E+02  0.31193259312E+02  0.50528863188E+02  0.30000010148E+02 0.  0.
        -12    1    1    2    0    0  0.10537017676E+02 -0.23856178199E+02 -0.31193259312E+02  0.40659136812E+02  0.00000000000E+00 0.  1.
         11    1    3    3    0    0 -0.24359037000E+01  0.20630984197E+02  0.25006105174E+02  0.32509635987E+02  0.51100000000E-03 0. -1.
        -11    1    3    3    0    0 -0.52172254693E+01 -0.16317895710E+01  0.98653256660E+01  0.11278600514E+02  0.51100000000E-03 0.  1.
         12    1    3    3    0    0 -0.28838885067E+01  0.48569835730E+01 -0.36781715281E+01  0.67406266873E+01  0.00000000000E+00 0. -1.
</event>
<event>
 7    1  0.5005325E-012  0.5052887E+02  0.7816164E-02  0.1300439E+00
        -11   -1    0    0    0    0  0.00000000000E+00  0.00000000000E+00  0.45593999997E+02  0.45594000000E+02  0.51100000000E-03 0. -1.
         11   -1    0    0    0    0 -0.00000000000E+00 -0.00000000000E+00 -0.45593999997E+02  0.45594000000E+02  0.51100000000E-03 0.  1.
    9900012    2    1    2    0    0 -0.80122326222E+01 -0.39858952807E+02 -0.48250456605E+00  0.50528870631E+02  0.30000032768E+02 0.  0.
         12    1    1    2    0    0  0.80122326222E+01  0.39858952807E+02  0.48250456605E+00  0.40659129369E+02  0.00000000000E+00 0. -1.
         11    1    3    3    0    0  0.47034888572E+01 -0.26039782232E+02  0.11406779901E+01  0.26485736022E+02  0.51100000000E-03 0. -1.
        -11    1    3    3    0    0 -0.43722621568E+01 -0.12543070343E+02  0.40338233924E+01  0.13882255632E+02  0.51100000000E-03 0.  1.
        -12    1    3    3    0    0 -0.83434593225E+01 -0.12761002314E+01 -0.56570059486E+01  0.10160878976E+02  0.00000000000E+00 0.  1.
</event>
<event>
 7    1  0.5005325E-012  0.5052886E+02  0.7816164E-02  0.1300439E+00
        -11   -1    0    0    0    0  0.00000000000E+00  0.00000000000E+00  0.45593999997E+02  0.45594000000E+02  0.51100000000E-03 0. -1.
         11   -1    0    0    0    0 -0.00000000000E+00 -0.00000000000E+00 -0.45593999997E+02  0.45594000000E+02  0.51100000000E-03 0.  1.
    9900012    2    1    2    0    0 -0.51954701603E+01  0.14814210666E+02 -0.37506154476E+02  0.50528863617E+02  0.30000011450E+02 0.  0.
         12    1    1    2    0    0  0.51954701603E+01 -0.14814210666E+02  0.37506154476E+02  0.40659136383E+02  0.00000000000E+00 0. -1.
         11    1    3    3    0    0 -0.26531475292E+01  0.74654907594E+01 -0.73782513346E+01  0.10826418480E+02  0.51100000000E-03 0. -1.
        -11    1    3    3    0    0  0.43308185776E+01  0.10536285198E+02 -0.30038047710E+02  0.32125591135E+02  0.51100000000E-03 0.  1.
        -12    1    3    3    0    0 -0.68731412087E+01 -0.31875652913E+01 -0.89855431742E-01  0.75768540015E+01  0.00000000000E+00 0.  1.
</event>
<event>
 7    1  0.5005325E-012  0.5052887E+02  0.7816164E-02  0.1300439E+00
        -11   -1    0    0    0    0  0.00000000000E+00  0.00000000000E+00  0.45593999997E+02  0.45594000000E+02  0.51100000000E-03 0. -1.
         11   -1    0    0    0    0 -0.00000000000E+00 -0.00000000000E+00 -0.45593999997E+02  0.45594000000E+02  0.51100000000E-03 0.  1.
    9900012    2    1    2    0    0 -0.18214288371E+02  0.17128699173E+02  0.32062634242E+02  0.50528866331E+02  0.30000019699E+02 0.  0.
        -12    1    1    2    0    0  0.18214288371E+02 -0.17128699173E+02 -0.32062634242E+02  0.40659133669E+02  0.00000000000E+00 0.  1.
         11    1    3    3    0    0 -0.16713472585E+02  0.18882760662E+02  0.23471217149E+02  0.34449918009E+02  0.51100000000E-03 0. -1.
        -11    1    3    3    0    0  0.15075954258E+01  0.40236921672E+01  0.85452336065E+01  0.95647247883E+01  0.51100000000E-03 0.  1.
        -12    1    3    3    0    0 -0.30084112115E+01 -0.57777536568E+01  0.46183486495E-01  0.65142235340E+01  0.00000000000E+00 0.  1.
</event>
<event>
 7    1  0.5005325E-012  0.5052886E+02  0.7816164E-02  0.1300439E+00
        -11   -1    0    0    0    0  0.00000000000E+00  0.00000000000E+00  0.45593999997E+02  0.45594000000E+02  0.51100000000E-03 0. -1.
         11   -1    0    0    0    0 -0.00000000000E+00 -0.00000000000E+00 -0.45593999997E+02  0.45594000000E+02  0.51100000000E-03 0.  1.
    9900012    2    1    2    0    0 -0.91934196857E+01 -0.36052945651E+02 -0.16396087898E+02  0.50528861372E+02  0.30000004625E+02 0.  0.
         12    1    1    2    0    0  0.91934196857E+01  0.36052945651E+02  0.16396087898E+02  0.40659138628E+02  0.00000000000E+00 0. -1.
         11    1    3    3    0    0 -0.43869480174E+01 -0.14752501775E+01 -0.10144345716E+02  0.11150310591E+02  0.51100000000E-03 0. -1.
        -11    1    3    3    0    0  0.13059017767E+01 -0.39873359818E+00 -0.44011139195E+01  0.46080551132E+01  0.51100000000E-03 0.  1.
        -12    1    3    3    0    0 -0.61123734450E+01 -0.34178961875E+02 -0.18506282624E+01  0.34770495668E+02  0.00000000000E+00 0.  1.
</event>
<event>
 7    1  0.5005325E-012  0.5052886E+02  0.7816164E-02  0.1300439E+00
        -11   -1    0    0    0    0  0.00000000000E+00  0.00000000000E+00  0.45593999997E+02  0.45594000000E+02  0.51100000000E-03 0.  1.
         11   -1    0    0    0    0 -0.00000000000E+00 -0.00000000000E+00 -0.45593999997E+02  0.45594000000E+02  0.51100000000E-03 0. -1.
    9900012    2    1    2    0    0 -0.40249746960E+02 -0.56725531743E+01 -0.97252917656E+00  0.50528858311E+02  0.29999995322E+02 0.  0.
        -12    1    1    2    0    0  0.40249746960E+02  0.56725531743E+01  0.97252917656E+00  0.40659141689E+02  0.00000000000E+00 0.  1.
         11    1    3    3    0    0 -0.79612438304E+01  0.54833882572E+01  0.41844556602E+01  0.10533689740E+02  0.51100000000E-03 0.  1.
        -11    1    3    3    0    0 -0.11732809812E+02  0.56778869445E+01 -0.68546952776E+00  0.13052474668E+02  0.51100000000E-03 0. -1.
        -12    1    3    3    0    0 -0.20555693318E+02 -0.16833828376E+02 -0.44715153090E+01  0.26942693903E+02  0.00000000000E+00 0.  1.
</event>
<event>
 7    1  0.5005325E-012  0.5052887E+02  0.7816164E-02  0.1300439E+00
        -11   -1    0    0    0    0  0.00000000000E+00  0.00000000000E+00  0.45593999997E+02  0.45594000000E+02  0.51100000000E-03 0. -1.
         11   -1    0    0    0    0 -0.00000000000E+00 -0.00000000000E+00 -0.45593999997E+02  0.45594000000E+02  0.51100000000E-03 0.  1.
    9900012    2    1    2    0    0  0.21410429713E+02  0.16941363591E+02 -0.30128862167E+02  0.50528872657E+02  0.30000038927E+02 0.  0.
         12    1    1    2    0    0 -0.21410429713E+02 -0.16941363591E+02  0.30128862167E+02  0.40659127343E+02  0.00000000000E+00 0. -1.
         11    1    3    3    0    0 -0.15078342980E+01 -0.25377896611E+01 -0.32491680044E+01  0.43898785423E+01  0.51100000000E-03 0. -1.
        -11    1    3    3    0    0  0.18058891170E+02  0.16463109595E+02 -0.30717034743E+02  0.39251671958E+02  0.51100000000E-03 0.  1.
         12    1    3    3    0    0  0.48593728412E+01  0.30160436575E+01  0.38373405807E+01  0.68873221564E+01  0.00000000000E+00 0. -1.
</event>
<event>
 7    1  0.5005325E-012  0.5052886E+02  0.7816164E-02  0.1300439E+00
        -11   -1    0    0    0    0  0.00000000000E+00  0.00000000000E+00  0.45593999997E+02  0.45594000000E+02  0.51100000000E-03 0. -1.
         11   -1    0    0    0    0 -0.00000000000E+00 -0.00000000000E+00 -0.45593999997E+02  0.45594000000E+02  0.51100000000E-03 0.  1.
    9900012    2    1    2    0    0  0.16968853036E+02 -0.20963996177E+02 -0.30425885314E+02  0.50528860730E+02  0.30000002675E+02 0.  0.
         12    1    1    2    0    0 -0.16968853036E+02  0.20963996177E+02  0.30425885314E+02  0.40659139270E+02  0.00000000000E+00 0. -1.
         11    1    3    3    0    0 -0.29771982471E+01 -0.26676345527E+01 -0.40364047897E+00  0.40178239641E+01  0.51100000000E-03 0. -1.
        -11    1    3    3    0    0  0.75723832186E+01  0.24090443513E+01 -0.17750125861E+02  0.19447659259E+02  0.51100000000E-03 0.  1.
        -12    1    3    3    0    0  0.12373668064E+02 -0.20705405976E+02 -0.12272118974E+02  0.27063377507E+02  0.00000000000E+00 0.  1.
</event>
<event>
 7    1  0.5005325E-012  0.5052886E+02  0.7816164E-02  0.1300439E+00
        -11   -1    0    0    0    0  0.00000000000E+00  0.00000000000E+00  0.45593999997E+02  0.45594000000E+02  0.51100000000E-03 0. -1.
         11   -1    0    0    0    0 -0.00000000000E+00 -0.00000000000E+00 -0.45593999997E+02  0.45594000000E+02  0.51100000000E-03 0.  1.
    9900012    2    1    2    0    0  0.10820889067E+01  0.20437812234E+02 -0.35132470648E+02  0.50528861062E+02  0.30000003685E+02 0.  0.
         12    1    1    2    0    0 -0.10820889067E+01 -0.20437812234E+02  0.35132470648E+02  0.40659138938E+02  0.00000000000E+00 0. -1.
         11    1    3    3    0    0  0.60238125442E+01  0.12187109208E+01 -0.11487369116E+02  0.13028093619E+02  0.51100000000E-03 0. -1.
        -11    1    3    3    0    0 -0.64396745481E+01 -0.28081001193E+01 -0.54564340169E+01  0.88953643549E+01  0.51100000000E-03 0.  1.
         12    1    3    3    0    0  0.14979509105E+01  0.22027201432E+02 -0.18188667516E+02  0.28605403089E+02  0.00000000000E+00 0. -1.
</event>
<event>
 7    1  0.5005325E-012  0.5052885E+02  0.7816164E-02  0.1300439E+00
        -11   -1    0    0    0    0  0.00000000000E+00  0.00000000000E+00  0.45593999997E+02  0.45594000000E+02  0.51100000000E-03 0. -1.
         11   -1    0    0    0    0 -0.00000000000E+00 -0.00000000000E+00 -0.45593999997E+02  0.45594000000E+02  0.51100000000E-03 0.  1.
    9900012    2    1    2    0    0 -0.16902404028E+02  0.17959443060E+01  0.36935747613E+02  0.50528854293E+02  0.29999983110E+02 0.  0.
        -12    1    1    2    0    0  0.16902404028E+02 -0.17959443060E+01 -0.36935747613E+02  0.40659145707E+02  0.00000000000E+00 0.  1.
         11    1    3    3    0    0 -0.67265826980E+01  0.74526380552E+01  0.17272063799E+01  0.10186852846E+02  0.51100000000E-03 0. -1.
        -11    1    3    3    0    0  0.36899172367E+00  0.46982618066E+01  0.11173928619E+02  0.12127097754E+02  0.51100000000E-03 0.  1.
         12    1    3    3    0    0 -0.10544813053E+02 -0.10354955556E+02  0.24034612614E+02  0.28214903693E+02  0.00000000000E+00 0. -1.
</event>
<event>
 7    1  0.5005325E-012  0.5052884E+02  0.7816164E-02  0.1300439E+00
        -11   -1    0    0    0    0  0.00000000000E+00  0.00000000000E+00  0.45593999997E+02  0.45594000000E+02  0.51100000000E-03 0. -1.
         11   -1    0    0    0    0 -0.00000000000E+00 -0.00000000000E+00 -0.45593999997E+02  0.45594000000E+02  0.51100000000E-03 0.  1.
    9900012    2    1    2    0    0  0.10207560541E+02 -0.36099222876E+02 -0.15678619526E+02  0.50528839966E+02  0.29999939560E+02 0.  0.
         12    1    1    2    0    0 -0.10207560541E+02  0.36099222876E+02  0.15678619526E+02  0.40659160034E+02  0.00000000000E+00 0. -1.
         11    1    3    3    0    0  0.79907087931E+01 -0.19544433072E+00 -0.42351418777E+01  0.90457753945E+01  0.51100000000E-03 0. -1.
        -11    1    3    3    0    0  0.79053585114E+01 -0.23628138721E+02 -0.20244077805E+01  0.24997637083E+02  0.51100000000E-03 0.  1.
         12    1    3    3    0    0 -0.56885067637E+01 -0.12275639824E+02 -0.94190698678E+01  0.16485427488E+02  0.00000000000E+00 0. -1.
</event>
<event>
 7    1  0.9201890E-012  0.5052886E+02  0.7816164E-02  0.1300439E+00
        -11   -1    0    0    0    0  0.00000000000E+00  0.00000000000E+00  0.45593999997E+02  0.45594000000E+02  0.51100000000E-03 0. -1.
         11   -1    0    0    0    0 -0.00000000000E+00 -0.00000000000E+00 -0.45593999997E+02  0.45594000000E+02  0.51100000000E-03 0.  1.
    9900012    2    1    2    0    0 -0.12907324993E+02 -0.31158343036E+01  0.38429908111E+02  0.50528864504E+02  0.30000014146E+02 0.  0.
        -12    1    1    2    0    0  0.12907324993E+02  0.31158343036E+01 -0.38429908111E+02  0.40659135496E+02  0.00000000000E+00 0.  1.
         11    1    3    3    0    0 -0.15513879626E+02 -0.17352242733E+01  0.30355317483E+02  0.34134099725E+02  0.51100000000E-03 0. -1.
        -11    1    3    3    0    0  0.40676583695E+01 -0.99730717598E+00  0.11721580183E+02  0.12447325353E+02  0.51100000000E-03 0.  1.
        -12    1    3    3    0    0 -0.14611037369E+01 -0.38330285437E+00 -0.36469895542E+01  0.39474394253E+01  0.00000000000E+00 0.  1.
</event>
<event>
 7    1  0.5005325E-012  0.5052884E+02  0.7816164E-02  0.1300439E+00
        -11   -1    0    0    0    0  0.00000000000E+00  0.00000000000E+00  0.45593999997E+02  0.45594000000E+02  0.51100000000E-03 0.  1.
         11   -1    0    0    0    0 -0.00000000000E+00 -0.00000000000E+00 -0.45593999997E+02  0.45594000000E+02  0.51100000000E-03 0. -1.
    9900012    2    1    2    0    0  0.12894533668E+02 -0.38499239727E+02  0.21695321241E+01  0.50528839559E+02  0.29999938325E+02 0.  0.
        -12    1    1    2    0    0 -0.12894533668E+02  0.38499239727E+02 -0.21695321241E+01  0.40659160441E+02  0.00000000000E+00 0.  1.
         11    1    3    3    0    0  0.19064206099E+02 -0.16440518728E+02 -0.29746052467E+01  0.25349218664E+02  0.51100000000E-03 0. -1.
        -11    1    3    3    0    0 -0.14322356163E+01 -0.60003639327E+01 -0.26471952367E+01  0.67129210533E+01  0.51100000000E-03 0.  1.
        -12    1    3    3    0    0 -0.47374368152E+01 -0.16058357067E+02  0.77913326075E+01  0.18466699842E+02  0.00000000000E+00 0.  1.
</event>
<event>
 7    1  0.5005325E-012  0.5052886E+02  0.7816164E-02  0.1300439E+00
        -11   -1    0    0    0    0  0.00000000000E+00  0.00000000000E+00  0.45593999997E+02  0.45594000000E+02  0.51100000000E-03 0. -1.
         11   -1    0    0    0    0 -0.00000000000E+00 -0.00000000000E+00 -0.45593999997E+02  0.45594000000E+02  0.51100000000E-03 0.  1.
    9900012    2    1    2    0    0  0.12185204790E+01 -0.14263139157E+02  0.38055799542E+02  0.50528858229E+02  0.29999995072E+02 0.  0.
        -12    1    1    2    0    0 -0.12185204790E+01  0.14263139157E+02 -0.38055799542E+02  0.40659141771E+02  0.00000000000E+00 0.  1.
         11    1    3    3    0    0  0.24539292040E+01 -0.30921275714E+01  0.66137234671E+01  0.77022308338E+01  0.51100000000E-03 0. -1.
        -11    1    3    3    0    0 -0.10952503179E+02 -0.15018357578E+02  0.21177000118E+02  0.28177539361E+02  0.51100000000E-03 0.  1.
        -12    1    3    3    0    0  0.97170944539E+01  0.38473459916E+01  0.10265075957E+02  0.14649088033E+02  0.00000000000E+00 0.  1.
</event>
<event>
 7    1  0.5005325E-012  0.5052886E+02  0.7816164E-02  0.1300439E+00
        -11   -1    0    0    0    0  0.00000000000E+00  0.00000000000E+00  0.45593999997E+02  0.45594000000E+02  0.51100000000E-03 0. -1.
         11   -1    0    0    0    0 -0.00000000000E+00 -0.00000000000E+00 -0.45593999997E+02  0.45594000000E+02  0.51100000000E-03 0.  1.
    9900012    2    1    2    0    0  0.24857719085E+02 -0.28433916027E+02 -0.15058948441E+02  0.50528859492E+02  0.29999998912E+02 0.  0.
         12    1    1    2    0    0 -0.24857719085E+02  0.28433916027E+02  0.15058948441E+02  0.40659140508E+02  0.00000000000E+00 0. -1.
         11    1    3    3    0    0  0.30700043342E+01 -0.52594805897E+00 -0.73740441879E+01  0.80048782576E+01  0.51100000000E-03 0.  1.
        -11    1    3    3    0    0  0.20482555154E+02 -0.19472137607E+02 -0.14348271965E+02  0.31694985680E+02  0.51100000000E-03 0. -1.
         12    1    3    3    0    0  0.13051595964E+01 -0.84358303606E+01  0.66633677120E+01  0.10828995554E+02  0.00000000000E+00 0. -1.
</event>
<event>
 7    1  0.5005325E-012  0.5052886E+02  0.7816164E-02  0.1300439E+00
        -11   -1    0    0    0    0  0.00000000000E+00  0.00000000000E+00  0.45593999997E+02  0.45594000000E+02  0.51100000000E-03 0. -1.
         11   -1    0    0    0    0 -0.00000000000E+00 -0.00000000000E+00 -0.45593999997E+02  0.45594000000E+02  0.51100000000E-03 0.  1.
    9900012    2    1    2    0    0 -0.40253296064E+01 -0.56935223969E+01  0.40056785975E+02  0.50528861072E+02  0.30000003714E+02 0.  0.
        -12    1    1    2    0    0  0.40253296064E+01  0.56935223969E+01 -0.40056785975E+02  0.40659138928E+02  0.00000000000E+00 0.  1.
         11    1    3    3    0    0 -0.13014216464E+02 -0.95925701152E+01  0.23279127790E+02  0.28342636125E+02  0.51100000000E-03 0. -1.
        -11    1    3    3    0    0  0.31245824452E+01 -0.29799411169E+01  0.17699180260E+01  0.46664413204E+01  0.51100000000E-03 0.  1.
         12    1    3    3    0    0  0.58643044122E+01  0.68789888352E+01  0.15007740160E+02  0.17519783627E+02  0.00000000000E+00 0. -1.
</event>
<event>
 7    1  0.5005325E-012  0.5052879E+02  0.7816164E-02  0.1300439E+00
        -11   -1    0    0    0    0  0.00000000000E+00  0.00000000000E+00  0.45593999997E+02  0.45594000000E+02  0.51100000000E-03 0. -1.
         11   -1    0    0    0    0 -0.00000000000E+00 -0.00000000000E+00 -0.45593999997E+02  0.45594000000E+02  0.51100000000E-03 0.  1.
    9900012    2    1    2    0    0 -0.39796246953E+02  0.46733695559E+01 -0.68985060651E+01  0.50528793902E+02  0.29999799545E+02 0.  0.
         12    1    1    2    0    0  0.39796246953E+02 -0.46733695559E+01  0.68985060651E+01  0.40659206098E+02  0.00000000000E+00 0. -1.
         11    1    3    3    0    0 -0.30632194019E+02 -0.82393961193E+01 -0.17621773341E+01  0.31769863520E+02  0.51100000000E-03 0. -1.
        -11    1    3    3    0    0 -0.23055414731E+01  0.13664113121E+01 -0.45935958393E+01  0.53182444805E+01  0.51100000000E-03 0.  1.
        -12    1    3    3    0    0 -0.68585114607E+01  0.11546354363E+02 -0.54273289170E+00  0.13440685902E+02  0.00000000000E+00 0.  1.
</event>
<event>
 7    1  0.5005325E-012  0.5052887E+02  0.7816164E-02  0.1300439E+00
        -11   -1    0    0    0    0  0.00000000000E+00  0.00000000000E+00  0.45593999997E+02  0.45594000000E+02  0.51100000000E-03 0. -1.
         11   -1    0    0    0    0 -0.00000000000E+00 -0.00000000000E+00 -0.45593999997E+02  0.45594000000E+02  0.51100000000E-03 0.  1.
    9900012    2    1    2    0    0  0.24710413920E+01 -0.91324385799E+01 -0.39543111905E+02  0.50528865982E+02  0.30000018638E+02 0.  0.
         12    1    1    2    0    0 -0.24710413920E+01  0.91324385799E+01  0.39543111905E+02  0.40659134018E+02  0.00000000000E+00 0. -1.
         11    1    3    3    0    0 -0.28673107054E+01 -0.14279171305E+01 -0.43785173264E+01  0.54251112663E+01  0.51100000000E-03 0. -1.
        -11    1    3    3    0    0 -0.35469558888E+00 -0.50458578390E+01 -0.37910660692E+02  0.38246629717E+02  0.51100000000E-03 0.  1.
         12    1    3    3    0    0  0.56930476863E+01 -0.26586636104E+01  0.27460661136E+01  0.68571249990E+01  0.00000000000E+00 0. -1.
</event>
<event>
 7    1  0.5005325E-012  0.5052886E+02  0.7816164E-02  0.1300439E+00
        -11   -1    0    0    0    0  0.00000000000E+00  0.00000000000E+00  0.45593999997E+02  0.45594000000E+02  0.51100000000E-03 0. -1.
         11   -1    0    0    0    0 -0.00000000000E+00 -0.00000000000E+00 -0.45593999997E+02  0.45594000000E+02  0.51100000000E-03 0.  1.
    9900012    2    1    2    0    0  0.12758218065E+02 -0.52630271175E+01 -0.38245186823E+02  0.50528857144E+02  0.29999991776E+02 0.  0.
         12    1    1    2    0    0 -0.12758218065E+02  0.52630271175E+01  0.38245186823E+02  0.40659142856E+02  0.00000000000E+00 0. -1.
         11    1    3    3    0    0  0.35875477319E+01 -0.30420082565E+01  0.17909392157E+00  0.47070572395E+01  0.51100000000E-03 0. -1.
        -11    1    3    3    0    0  0.85965804534E+01 -0.12097971189E+02 -0.26021863922E+02  0.29956627056E+02  0.51100000000E-03 0.  1.
        -12    1    3    3    0    0  0.57408988011E+00  0.98769523277E+01 -0.12402416823E+02  0.15865172849E+02  0.00000000000E+00 0.  1.
</event>
<event>
 7    1  0.5005325E-012  0.5052887E+02  0.7816164E-02  0.1300439E+00
        -11   -1    0    0    0    0  0.00000000000E+00  0.00000000000E+00  0.45593999997E+02  0.45594000000E+02  0.51100000000E-03 0. -1.
         11   -1    0    0    0    0 -0.00000000000E+00 -0.00000000000E+00 -0.45593999997E+02  0.45594000000E+02  0.51100000000E-03 0.  1.
    9900012    2    1    2    0    0  0.28356812895E+02  0.25812457483E+02 -0.13519356023E+02  0.50528870814E+02  0.30000033325E+02 0.  0.
         12    1    1    2    0    0 -0.28356812895E+02 -0.25812457483E+02  0.13519356023E+02  0.40659129186E+02  0.00000000000E+00 0. -1.
         11    1    3    3    0    0  0.31854092308E+01  0.10203764329E+02 -0.87209682521E+01  0.13795612562E+02  0.51100000000E-03 0. -1.
        -11    1    3    3    0    0  0.23665581809E+01  0.12320727275E+02  0.20140498329E+01  0.12706585505E+02  0.51100000000E-03 0.  1.
        -12    1    3    3    0    0  0.22804845484E+02  0.32879658793E+01 -0.68124376040E+01  0.24026672746E+02  0.00000000000E+00 0.  1.
</event>
<event>
 7    1  0.5005325E-012  0.5052886E+02  0.7816164E-02  0.1300439E+00
        -11   -1    0    0    0    0  0.00000000000E+00  0.00000000000E+00  0.45593999997E+02  0.45594000000E+02  0.51100000000E-03 0. -1.
         11   -1    0    0    0    0 -0.00000000000E+00 -0.00000000000E+00 -0.45593999997E+02  0.45594000000E+02  0.51100000000E-03 0.  1.
    9900012    2    1    2    0    0  0.89400164532E+01 -0.29008987759E+01 -0.39557885703E+02  0.50528862906E+02  0.30000009291E+02 0.  0.
         12    1    1    2    0    0 -0.89400164532E+01  0.29008987759E+01  0.39557885703E+02  0.40659137094E+02  0.00000000000E+00 0. -1.
         11    1    3    3    0    0 -0.12160091457E+01 -0.42364999579E+01  0.21931521743E+01  0.49230607204E+01  0.51100000000E-03 0. -1.
        -11    1    3    3    0    0 -0.21102139657E+00 -0.56723645677E+01 -0.10371218473E+02  0.11822961672E+02  0.51100000000E-03 0.  1.
         12    1    3    3    0    0  0.10367046995E+02  0.70079657497E+01 -0.31379819405E+02  0.33782840515E+02  0.00000000000E+00 0. -1.
</event>
<event>
 7    1  0.5005325E-012  0.5052885E+02  0.7816164E-02  0.1300439E+00
        -11   -1    0    0    0    0  0.00000000000E+00  0.00000000000E+00  0.45593999997E+02  0.45594000000E+02  0.51100000000E-03 0. -1.
         11   -1    0    0    0    0 -0.00000000000E+00 -0.00000000000E+00 -0.45593999997E+02  0.45594000000E+02  0.51100000000E-03 0.  1.
    9900012    2    1    2    0    0  0.52598602927E+01  0.31495198593E+02 -0.25170468067E+02  0.50528854320E+02  0.29999983192E+02 0.  0.
         12    1    1    2    0    0 -0.52598602927E+01 -0.31495198593E+02  0.25170468067E+02  0.40659145680E+02  0.00000000000E+00 0. -1.
         11    1    3    3    0    0 -0.23339753982E+01  0.48869105420E+01 -0.10452098781E+02  0.11771818253E+02  0.51100000000E-03 0. -1.
        -11    1    3    3    0    0 -0.75870706965E+00  0.27391979216E+02 -0.10290500251E+02  0.29270984908E+02  0.51100000000E-03 0.  1.
         12    1    3    3    0    0  0.83525427606E+01 -0.78369116516E+00 -0.44278690350E+01  0.94860511595E+01  0.00000000000E+00 0. -1.
</event>
<event>
 7    1  0.5005325E-012  0.5052887E+02  0.7816164E-02  0.1300439E+00
        -11   -1    0    0    0    0  0.00000000000E+00  0.00000000000E+00  0.45593999997E+02  0.45594000000E+02  0.51100000000E-03 0. -1.
         11   -1    0    0    0    0 -0.00000000000E+00 -0.00000000000E+00 -0.45593999997E+02  0.45594000000E+02  0.51100000000E-03 0.  1.
    9900012    2    1    2    0    0  0.51581484910E+01 -0.32792924641E+02  0.23477280721E+02  0.50528866802E+02  0.30000021131E+02 0.  0.
        -12    1    1    2    0    0 -0.51581484910E+01  0.32792924641E+02 -0.23477280721E+02  0.40659133198E+02  0.00000000000E+00 0.  1.
         11    1    3    3    0    0  0.37892441203E+00  0.16106789429E+01  0.75549767067E+01  0.77340509222E+01  0.51100000000E-03 0. -1.
        -11    1    3    3    0    0 -0.45590817497E+01 -0.10005960760E+02  0.12172263913E+02  0.16403307172E+02  0.51100000000E-03 0.  1.
         12    1    3    3    0    0  0.93383058287E+01 -0.24397642824E+02  0.37500401010E+01  0.26391508708E+02  0.00000000000E+00 0. -1.
</event>
<event>
 7    1  0.5005325E-012  0.5052886E+02  0.7816164E-02  0.1300439E+00
        -11   -1    0    0    0    0  0.00000000000E+00  0.00000000000E+00  0.45593999997E+02  0.45594000000E+02  0.51100000000E-03 0.  1.
         11   -1    0    0    0    0 -0.00000000000E+00 -0.00000000000E+00 -0.45593999997E+02  0.45594000000E+02  0.51100000000E-03 0. -1.
    9900012    2    1    2    0    0  0.21189877618E+02 -0.14432382476E+02  0.31557270141E+02  0.50528857410E+02  0.29999992585E+02 0.  0.
        -12    1    1    2    0    0 -0.21189877618E+02  0.14432382476E+02 -0.31557270141E+02  0.40659142590E+02  0.00000000000E+00 0.  1.
         11    1    3    3    0    0  0.12249497897E+02 -0.74634652668E+01  0.91292880871E+01  0.17002864869E+02  0.51100000000E-03 0. -1.
        -11    1    3    3    0    0  0.11140198592E+02 -0.65390762638E+01  0.26158359624E+02  0.29174017919E+02  0.51100000000E-03 0.  1.
         12    1    3    3    0    0 -0.21998188707E+01 -0.42984094503E+00 -0.37303775701E+01  0.43519746228E+01  0.00000000000E+00 0. -1.
</event>
<event>
 7    1  0.5005325E-012  0.5052889E+02  0.7816164E-02  0.1300439E+00
        -11   -1    0    0    0    0  0.00000000000E+00  0.00000000000E+00  0.45593999997E+02  0.45594000000E+02  0.51100000000E-03 0. -1.
         11   -1    0    0    0    0 -0.00000000000E+00 -0.00000000000E+00 -0.45593999997E+02  0.45594000000E+02  0.51100000000E-03 0.  1.
    9900012    2    1    2    0    0  0.11632716211E+01 -0.11385598407E+01 -0.40626517826E+02  0.50528886998E+02  0.30000082520E+02 0.  0.
         12    1    1    2    0    0 -0.11632716211E+01  0.11385598407E+01  0.40626517826E+02  0.40659113002E+02  0.00000000000E+00 0. -1.
         11    1    3    3    0    0  0.89498543845E+01  0.20695717430E+01 -0.44231969204E+01  0.10195474092E+02  0.51100000000E-03 0. -1.
        -11    1    3    3    0    0 -0.42096984577E+01  0.63246234135E+01 -0.15520101666E+02  0.17279929930E+02  0.51100000000E-03 0.  1.
        -12    1    3    3    0    0 -0.35768843057E+01 -0.95327549973E+01 -0.20683219240E+02  0.23053482976E+02  0.00000000000E+00 0.  1.
</event>
