<event>
 7    1  0.2505412E-009  0.4778727E+02  0.7816164E-02  0.1312668E+00
        -11   -1    0    0    0    0  0.00000000000E+00  0.00000000000E+00  0.45593999997E+02  0.45594000000E+02  0.51100000000E-03 0.  1.
         11   -1    0    0    0    0 -0.00000000000E+00 -0.00000000000E+00 -0.45593999997E+02  0.45594000000E+02  0.51100000000E-03 0. -1.
    9900012    2    1    2    0    0  0.65568794943E+01 -0.40218985130E+02  0.14935336914E+02  0.47787265878E+02  0.19999976443E+02 0.  0.
        -12    1    1    2    0    0 -0.65568794943E+01  0.40218985130E+02 -0.14935336914E+02  0.43400734122E+02  0.00000000000E+00 0.  1.
         11    1    3    3    0    0  0.46722905477E+01 -0.13316033387E+02  0.13478717229E+02  0.19514683255E+02  0.51100000000E-03 0. -1.
        -11    1    3    3    0    0  0.25125332429E+01 -0.44613780151E+01 -0.21150857959E+01  0.55398831464E+01  0.51100000000E-03 0.  1.
        -12    1    3    3    0    0 -0.62794429628E+00 -0.22441573729E+02  0.35717054803E+01  0.22732699477E+02  0.00000000000E+00 0.  1.
</event>
<event>
 7    1  0.2505412E-009  0.4778728E+02  0.7816164E-02  0.1312668E+00
        -11   -1    0    0    0    0  0.00000000000E+00  0.00000000000E+00  0.45593999997E+02  0.45594000000E+02  0.51100000000E-03 0. -1.
         11   -1    0    0    0    0 -0.00000000000E+00 -0.00000000000E+00 -0.45593999997E+02  0.45594000000E+02  0.51100000000E-03 0.  1.
    9900012    2    1    2    0    0 -0.19384342597E+02  0.25976916589E+02  0.28862937390E+02  0.47787284705E+02  0.20000062282E+02 0.  0.
        -12    1    1    2    0    0  0.19384342597E+02 -0.25976916589E+02 -0.28862937390E+02  0.43400715295E+02  0.00000000000E+00 0.  1.
         11    1    3    3    0    0 -0.13808206720E+02  0.11986444412E+02  0.11640385062E+02  0.21675792652E+02  0.51100000000E-03 0. -1.
        -11    1    3    3    0    0 -0.72551368661E+00  0.14679686278E+02  0.12284906223E+02  0.19155638347E+02  0.51100000000E-03 0.  1.
         12    1    3    3    0    0 -0.48506221904E+01 -0.68921410061E+00  0.49376461049E+01  0.69558537052E+01  0.00000000000E+00 0. -1.
</event>
<event>
 7    1  0.2505412E-009  0.4778725E+02  0.7816164E-02  0.1312668E+00
        -11   -1    0    0    0    0  0.00000000000E+00  0.00000000000E+00  0.45593999997E+02  0.45594000000E+02  0.51100000000E-03 0.  1.
         11   -1    0    0    0    0 -0.00000000000E+00 -0.00000000000E+00 -0.45593999997E+02  0.45594000000E+02  0.51100000000E-03 0. -1.
    9900012    2    1    2    0    0  0.14860071781E+02  0.19650393211E+02 -0.35730456551E+02  0.47787248716E+02  0.19999898194E+02 0.  0.
        -12    1    1    2    0    0 -0.14860071781E+02 -0.19650393211E+02  0.35730456551E+02  0.43400751284E+02  0.00000000000E+00 0.  1.
         11    1    3    3    0    0  0.75974989934E+01  0.25787517912E+01 -0.18259337426E+02  0.19944306336E+02  0.51100000000E-03 0. -1.
        -11    1    3    3    0    0 -0.54908357289E+00  0.66665732896E+00  0.14008399629E+01  0.16456845466E+01  0.51100000000E-03 0.  1.
        -12    1    3    3    0    0  0.78116563607E+01  0.16404984091E+02 -0.18871959089E+02  0.26197257833E+02  0.00000000000E+00 0.  1.
</event>
<event>
 7    1  0.2505412E-009  0.4778728E+02  0.7816164E-02  0.1312668E+00
        -11   -1    0    0    0    0  0.00000000000E+00  0.00000000000E+00  0.45593999997E+02  0.45594000000E+02  0.51100000000E-03 0.  1.
         11   -1    0    0    0    0 -0.00000000000E+00 -0.00000000000E+00 -0.45593999997E+02  0.45594000000E+02  0.51100000000E-03 0. -1.
    9900012    2    1    2    0    0  0.25231551867E+02 -0.94524408762E+01 -0.34024153957E+02  0.47787275344E+02  0.20000019605E+02 0.  0.
        -12    1    1    2    0    0 -0.25231551867E+02  0.94524408762E+01  0.34024153957E+02  0.43400724656E+02  0.00000000000E+00 0.  1.
         11    1    3    3    0    0  0.59941319380E+01  0.94284007245E+00 -0.73688243790E+00  0.61124104150E+01  0.51100000000E-03 0. -1.
        -11    1    3    3    0    0  0.77481349147E+01 -0.10821791401E+02 -0.20865048456E+02  0.24748636550E+02  0.51100000000E-03 0.  1.
         12    1    3    3    0    0  0.11489285014E+02  0.42651045218E+00 -0.12422223064E+02  0.16926228379E+02  0.00000000000E+00 0. -1.
</event>
<event>
 7    1  0.2505412E-009  0.4778727E+02  0.7816164E-02  0.1312668E+00
        -11   -1    0    0    0    0  0.00000000000E+00  0.00000000000E+00  0.45593999997E+02  0.45594000000E+02  0.51100000000E-03 0.  1.
         11   -1    0    0    0    0 -0.00000000000E+00 -0.00000000000E+00 -0.45593999997E+02  0.45594000000E+02  0.51100000000E-03 0. -1.
    9900012    2    1    2    0    0  0.27747138165E+02 -0.57689545375E+01 -0.32870027459E+02  0.47787271688E+02  0.20000002934E+02 0.  0.
        -12    1    1    2    0    0 -0.27747138165E+02  0.57689545375E+01  0.32870027459E+02  0.43400728312E+02  0.00000000000E+00 0.  1.
         11    1    3    3    0    0  0.12672141101E+02  0.31827754467E+01 -0.19547608038E+02  0.23512171314E+02  0.51100000000E-03 0. -1.
        -11    1    3    3    0    0  0.92021230220E+01 -0.17351115229E+01 -0.19214359129E+01  0.95593721728E+01  0.51100000000E-03 0.  1.
        -12    1    3    3    0    0  0.58728740428E+01 -0.72166184613E+01 -0.11400983509E+02  0.14715728202E+02  0.00000000000E+00 0.  1.
</event>
<event>
 7    1  0.2505412E-009  0.4778727E+02  0.7816164E-02  0.1312668E+00
        -11   -1    0    0    0    0  0.00000000000E+00  0.00000000000E+00  0.45593999997E+02  0.45594000000E+02  0.51100000000E-03 0.  1.
         11   -1    0    0    0    0 -0.00000000000E+00 -0.00000000000E+00 -0.45593999997E+02  0.45594000000E+02  0.51100000000E-03 0. -1.
    9900012    2    1    2    0    0  0.48242601507E+01 -0.12791419959E+02 -0.41191374669E+02  0.47787271231E+02  0.20000000852E+02 0.  0.
        -12    1    1    2    0    0 -0.48242601507E+01  0.12791419959E+02  0.41191374669E+02  0.43400728769E+02  0.00000000000E+00 0.  1.
         11    1    3    3    0    0  0.48979299868E+01 -0.17472125116E+01 -0.13076264716E+02  0.14072354775E+02  0.51100000000E-03 0. -1.
        -11    1    3    3    0    0  0.38609546048E+01 -0.20705232046E+01 -0.49583359949E+00  0.44090688383E+01  0.51100000000E-03 0.  1.
        -12    1    3    3    0    0 -0.39346244410E+01 -0.89736842423E+01 -0.27619276353E+02  0.29305847618E+02  0.00000000000E+00 0.  1.
</event>
<event>
 7    1  0.2505412E-009  0.4778727E+02  0.7816164E-02  0.1312668E+00
        -11   -1    0    0    0    0  0.00000000000E+00  0.00000000000E+00  0.45593999997E+02  0.45594000000E+02  0.51100000000E-03 0. -1.
         11   -1    0    0    0    0 -0.00000000000E+00 -0.00000000000E+00 -0.45593999997E+02  0.45594000000E+02  0.51100000000E-03 0.  1.
    9900012    2    1    2    0    0 -0.28024620528E+02 -0.29483642178E+02 -0.15131375843E+02  0.47787273661E+02  0.20000011930E+02 0.  0.
        -12    1    1    2    0    0  0.28024620528E+02  0.29483642178E+02  0.15131375843E+02  0.43400726339E+02  0.00000000000E+00 0.  1.
         11    1    3    3    0    0 -0.48403283878E+01 -0.17082318319E+02 -0.74559526387E+01  0.19256832763E+02  0.51100000000E-03 0. -1.
        -11    1    3    3    0    0 -0.18835471710E+02 -0.13215462399E+02 -0.70303820181E+01  0.24059295762E+02  0.51100000000E-03 0.  1.
        -12    1    3    3    0    0 -0.43488204306E+01  0.81413854001E+00 -0.64504118655E+00  0.44711451365E+01  0.00000000000E+00 0.  1.
</event>
<event>
 7    1  0.2505412E-009  0.4778730E+02  0.7816164E-02  0.1312668E+00
        -11   -1    0    0    0    0  0.00000000000E+00  0.00000000000E+00  0.45593999997E+02  0.45594000000E+02  0.51100000000E-03 0.  1.
         11   -1    0    0    0    0 -0.00000000000E+00 -0.00000000000E+00 -0.45593999997E+02  0.45594000000E+02  0.51100000000E-03 0. -1.
    9900012    2    1    2    0    0  0.19253132669E+02  0.14514690157E+02 -0.36086859577E+02  0.47787299752E+02  0.20000130888E+02 0.  0.
        -12    1    1    2    0    0 -0.19253132669E+02 -0.14514690157E+02  0.36086859577E+02  0.43400700248E+02  0.00000000000E+00 0.  1.
         11    1    3    3    0    0  0.15359218241E+02  0.76690411495E+01 -0.12377751165E+02  0.21164321423E+02  0.51100000000E-03 0. -1.
        -11    1    3    3    0    0  0.29312583220E+01 -0.69702505161E-01 -0.14045161454E+01  0.32511228296E+01  0.51100000000E-03 0.  1.
        -12    1    3    3    0    0  0.96265610611E+00  0.69153515124E+01 -0.22304592266E+02  0.23371855499E+02  0.00000000000E+00 0.  1.
</event>
<event>
 7    1  0.2505412E-009  0.4778727E+02  0.7816164E-02  0.1312668E+00
        -11   -1    0    0    0    0  0.00000000000E+00  0.00000000000E+00  0.45593999997E+02  0.45594000000E+02  0.51100000000E-03 0.  1.
         11   -1    0    0    0    0 -0.00000000000E+00 -0.00000000000E+00 -0.45593999997E+02  0.45594000000E+02  0.51100000000E-03 0. -1.
    9900012    2    1    2    0    0  0.24674363625E+02  0.35696708698E+02 -0.73754572344E+00  0.47787271828E+02  0.20000003572E+02 0.  0.
        -12    1    1    2    0    0 -0.24674363625E+02 -0.35696708698E+02  0.73754572344E+00  0.43400728172E+02  0.00000000000E+00 0.  1.
         11    1    3    3    0    0  0.29184848151E+01  0.27615760690E+01 -0.37516597475E+01  0.54971635525E+01  0.51100000000E-03 0. -1.
        -11    1    3    3    0    0  0.50642260268E+01  0.14507417493E+02  0.73799190695E+01  0.17046253351E+02  0.51100000000E-03 0.  1.
         12    1    3    3    0    0  0.16691652783E+02  0.18427715136E+02 -0.43658050455E+01  0.25243854925E+02  0.00000000000E+00 0. -1.
</event>
<event>
 7    1  0.2505412E-009  0.4778727E+02  0.7816164E-02  0.1312668E+00
        -11   -1    0    0    0    0  0.00000000000E+00  0.00000000000E+00  0.45593999997E+02  0.45594000000E+02  0.51100000000E-03 0.  1.
         11   -1    0    0    0    0 -0.00000000000E+00 -0.00000000000E+00 -0.45593999997E+02  0.45594000000E+02  0.51100000000E-03 0. -1.
    9900012    2    1    2    0    0  0.34410177066E+02 -0.24735872565E+02 -0.93648296913E+01  0.47787265992E+02  0.19999976966E+02 0.  0.
        -12    1    1    2    0    0 -0.34410177066E+02  0.24735872565E+02  0.93648296913E+01  0.43400734008E+02  0.00000000000E+00 0.  1.
         11    1    3    3    0    0  0.10952605336E+02 -0.74498127310E+01 -0.71490361558E+01  0.15052175643E+02  0.51100000000E-03 0. -1.
        -11    1    3    3    0    0  0.10484529960E+02  0.32745997976E+00  0.13317439844E+01  0.10573842292E+02  0.51100000000E-03 0.  1.
         12    1    3    3    0    0  0.12973041770E+02 -0.17613519814E+02 -0.35475375199E+01  0.22161248057E+02  0.00000000000E+00 0. -1.
</event>
<event>
 7    1  0.2505412E-009  0.4778726E+02  0.7816164E-02  0.1312668E+00
        -11   -1    0    0    0    0  0.00000000000E+00  0.00000000000E+00  0.45593999997E+02  0.45594000000E+02  0.51100000000E-03 0. -1.
         11   -1    0    0    0    0 -0.00000000000E+00 -0.00000000000E+00 -0.45593999997E+02  0.45594000000E+02  0.51100000000E-03 0.  1.
    9900012    2    1    2    0    0 -0.43134595874E+02 -0.15322368111E+01 -0.45479125374E+01  0.47787255545E+02  0.19999929331E+02 0.  0.
        -12    1    1    2    0    0  0.43134595874E+02  0.15322368111E+01  0.45479125374E+01  0.43400744455E+02  0.00000000000E+00 0.  1.
         11    1    3    3    0    0 -0.21383842242E+02 -0.45247225714E+01 -0.84540438378E+01  0.23435287087E+02  0.51100000000E-03 0. -1.
        -11    1    3    3    0    0 -0.21285833809E+02  0.10685977178E+01  0.16883354826E+01  0.21379408293E+02  0.51100000000E-03 0.  1.
        -12    1    3    3    0    0 -0.46491982303E+00  0.19238880425E+01  0.22177958179E+01  0.29725601645E+01  0.00000000000E+00 0.  1.
</event>
<event>
 7    1  0.2505412E-009  0.4778727E+02  0.7816164E-02  0.1312668E+00
        -11   -1    0    0    0    0  0.00000000000E+00  0.00000000000E+00  0.45593999997E+02  0.45594000000E+02  0.51100000000E-03 0. -1.
         11   -1    0    0    0    0 -0.00000000000E+00 -0.00000000000E+00 -0.45593999997E+02  0.45594000000E+02  0.51100000000E-03 0.  1.
    9900012    2    1    2    0    0 -0.96800445840E+01  0.37727662497E+02  0.19145324651E+02  0.47787271473E+02  0.20000001955E+02 0.  0.
        -12    1    1    2    0    0  0.96800445840E+01 -0.37727662497E+02 -0.19145324651E+02  0.43400728527E+02  0.00000000000E+00 0.  1.
         11    1    3    3    0    0 -0.85464141630E+01  0.18594731808E+02  0.37301057148E+01  0.20801897388E+02  0.51100000000E-03 0. -1.
        -11    1    3    3    0    0 -0.19918928431E+01  0.20119387438E+02  0.12447362549E+02  0.23742245527E+02  0.51100000000E-03 0.  1.
        -12    1    3    3    0    0  0.85826242214E+00 -0.98645674913E+00  0.29678563874E+01  0.32431285573E+01  0.00000000000E+00 0.  1.
</event>
<event>
 7    1  0.2505412E-009  0.4778727E+02  0.7816164E-02  0.1312668E+00
        -11   -1    0    0    0    0  0.00000000000E+00  0.00000000000E+00  0.45593999997E+02  0.45594000000E+02  0.51100000000E-03 0.  1.
         11   -1    0    0    0    0 -0.00000000000E+00 -0.00000000000E+00 -0.45593999997E+02  0.45594000000E+02  0.51100000000E-03 0. -1.
    9900012    2    1    2    0    0  0.14880567552E+02 -0.96560379276E+01 -0.39610014186E+02  0.47787267484E+02  0.19999983767E+02 0.  0.
        -12    1    1    2    0    0 -0.14880567552E+02  0.96560379276E+01  0.39610014186E+02  0.43400732516E+02  0.00000000000E+00 0.  1.
         11    1    3    3    0    0  0.92309168627E+01 -0.14633364722E+02 -0.28534595582E+02  0.33370171329E+02  0.51100000000E-03 0. -1.
        -11    1    3    3    0    0  0.22238218203E+01  0.13298409382E+01 -0.39303629787E+00  0.26207514575E+01  0.51100000000E-03 0.  1.
        -12    1    3    3    0    0  0.34258288690E+01  0.36474858558E+01 -0.10682382305E+02  0.11796344698E+02  0.00000000000E+00 0.  1.
</event>
<event>
 7    1  0.2505412E-009  0.4778727E+02  0.7816164E-02  0.1312668E+00
        -11   -1    0    0    0    0  0.00000000000E+00  0.00000000000E+00  0.45593999997E+02  0.45594000000E+02  0.51100000000E-03 0.  1.
         11   -1    0    0    0    0 -0.00000000000E+00 -0.00000000000E+00 -0.45593999997E+02  0.45594000000E+02  0.51100000000E-03 0. -1.
    9900012    2    1    2    0    0 -0.11125495448E+02 -0.34341166535E+02 -0.24094204467E+02  0.47787273545E+02  0.20000011400E+02 0.  0.
        -12    1    1    2    0    0  0.11125495448E+02  0.34341166535E+02  0.24094204467E+02  0.43400726455E+02  0.00000000000E+00 0.  1.
         11    1    3    3    0    0 -0.85958996795E+01 -0.14175196326E+02 -0.17775559331E+02  0.24306299430E+02  0.51100000000E-03 0. -1.
        -11    1    3    3    0    0 -0.51794497861E+01 -0.18209663739E+02 -0.68729370800E+01  0.20140899135E+02  0.51100000000E-03 0.  1.
        -12    1    3    3    0    0  0.26498540173E+01 -0.19563064696E+01  0.55429194412E+00  0.33400749805E+01  0.00000000000E+00 0.  1.
</event>
<event>
 7    1  0.2505412E-009  0.4778727E+02  0.7816164E-02  0.1312668E+00
        -11   -1    0    0    0    0  0.00000000000E+00  0.00000000000E+00  0.45593999997E+02  0.45594000000E+02  0.51100000000E-03 0.  1.
         11   -1    0    0    0    0 -0.00000000000E+00 -0.00000000000E+00 -0.45593999997E+02  0.45594000000E+02  0.51100000000E-03 0. -1.
    9900012    2    1    2    0    0 -0.44719988842E+01  0.24790109377E+02 -0.35342255534E+02  0.47787270476E+02  0.19999997408E+02 0.  0.
        -12    1    1    2    0    0  0.44719988842E+01 -0.24790109377E+02  0.35342255534E+02  0.43400729524E+02  0.00000000000E+00 0.  1.
         11    1    3    3    0    0 -0.28123344128E+01  0.11475945150E+01 -0.59037906105E+00  0.30943086009E+01  0.51100000000E-03 0. -1.
        -11    1    3    3    0    0  0.14681424715E+01  0.23899040397E+02 -0.25761843031E+02  0.35170898920E+02  0.51100000000E-03 0.  1.
        -12    1    3    3    0    0 -0.31278069429E+01 -0.25652553504E+00 -0.89900334422E+01  0.95220629547E+01  0.00000000000E+00 0.  1.
</event>
<event>
 7    1  0.2505412E-009  0.4778726E+02  0.7816164E-02  0.1312668E+00
        -11   -1    0    0    0    0  0.00000000000E+00  0.00000000000E+00  0.45593999997E+02  0.45594000000E+02  0.51100000000E-03 0.  1.
         11   -1    0    0    0    0 -0.00000000000E+00 -0.00000000000E+00 -0.45593999997E+02  0.45594000000E+02  0.51100000000E-03 0. -1.
    9900012    2    1    2    0    0 -0.22562215947E+02 -0.28119673486E+02 -0.24163086489E+02  0.47787258370E+02  0.19999942210E+02 0.  0.
        -12    1    1    2    0    0  0.22562215947E+02  0.28119673486E+02  0.24163086489E+02  0.43400741630E+02  0.00000000000E+00 0.  1.
         11    1    3    3    0    0 -0.98227491549E+01 -0.19617761471E+02 -0.61325539069E+01  0.22780500078E+02  0.51100000000E-03 0. -1.
        -11    1    3    3    0    0 -0.11533957857E+02 -0.79381881097E+01 -0.10875919086E+02  0.17729428376E+02  0.51100000000E-03 0.  1.
         12    1    3    3    0    0 -0.12055089356E+01 -0.56372390519E+00 -0.71546134957E+01  0.72773299161E+01  0.00000000000E+00 0. -1.
</event>
<event>
 7    1  0.2505412E-009  0.4778727E+02  0.7816164E-02  0.1312668E+00
        -11   -1    0    0    0    0  0.00000000000E+00  0.00000000000E+00  0.45593999997E+02  0.45594000000E+02  0.51100000000E-03 0. -1.
         11   -1    0    0    0    0 -0.00000000000E+00 -0.00000000000E+00 -0.45593999997E+02  0.45594000000E+02  0.51100000000E-03 0.  1.
    9900012    2    1    2    0    0 -0.20485108790E+02 -0.33398191611E+02  0.18669352721E+02  0.47787267103E+02  0.19999982029E+02 0.  0.
        -12    1    1    2    0    0  0.20485108790E+02  0.33398191611E+02 -0.18669352721E+02  0.43400732897E+02  0.00000000000E+00 0.  1.
         11    1    3    3    0    0 -0.42960290092E+01 -0.13562553175E+02  0.10310570250E+02  0.17570047610E+02  0.51100000000E-03 0. -1.
        -11    1    3    3    0    0 -0.45518988086E+01  0.12545339204E+01  0.37555777694E-02  0.47216154530E+01  0.51100000000E-03 0.  1.
         12    1    3    3    0    0 -0.11637180972E+02 -0.21090172356E+02  0.83550268931E+01  0.25495604040E+02  0.00000000000E+00 0. -1.
</event>
<event>
 7    1  0.2505412E-009  0.4778727E+02  0.7816164E-02  0.1312668E+00
        -11   -1    0    0    0    0  0.00000000000E+00  0.00000000000E+00  0.45593999997E+02  0.45594000000E+02  0.51100000000E-03 0.  1.
         11   -1    0    0    0    0 -0.00000000000E+00 -0.00000000000E+00 -0.45593999997E+02  0.45594000000E+02  0.51100000000E-03 0. -1.
    9900012    2    1    2    0    0 -0.51515289232E+00  0.15652948723E+02 -0.40476452107E+02  0.47787270036E+02  0.19999995404E+02 0.  0.
        -12    1    1    2    0    0  0.51515289232E+00 -0.15652948723E+02  0.40476452107E+02  0.43400729964E+02  0.00000000000E+00 0.  1.
         11    1    3    3    0    0 -0.46645956400E+01  0.12731850606E+02 -0.12331314959E+02  0.18328115048E+02  0.51100000000E-03 0. -1.
        -11    1    3    3    0    0 -0.18314823106E+01  0.18699016588E+01 -0.91434634184E+01  0.95107193846E+01  0.51100000000E-03 0.  1.
        -12    1    3    3    0    0  0.59809250582E+01  0.10511964588E+01 -0.19001673729E+02  0.19948435604E+02  0.00000000000E+00 0.  1.
</event>
<event>
 7    1  0.2505412E-009  0.4778726E+02  0.7816164E-02  0.1312668E+00
        -11   -1    0    0    0    0  0.00000000000E+00  0.00000000000E+00  0.45593999997E+02  0.45594000000E+02  0.51100000000E-03 0. -1.
         11   -1    0    0    0    0 -0.00000000000E+00 -0.00000000000E+00 -0.45593999997E+02  0.45594000000E+02  0.51100000000E-03 0.  1.
    9900012    2    1    2    0    0  0.11770529459E+02  0.25245641604E+01  0.41697783769E+02  0.47787263149E+02  0.19999964001E+02 0.  0.
        -12    1    1    2    0    0 -0.11770529459E+02 -0.25245641604E+01 -0.41697783769E+02  0.43400736851E+02  0.00000000000E+00 0.  1.
         11    1    3    3    0    0  0.43320056726E+01  0.67762779592E+01  0.85544990854E+01  0.11741536143E+02  0.51100000000E-03 0. -1.
        -11    1    3    3    0    0  0.97779372711E+01 -0.96198039731E+00  0.26610287538E+02  0.28366192319E+02  0.51100000000E-03 0.  1.
         12    1    3    3    0    0 -0.23394134844E+01 -0.32897334015E+01  0.65329971458E+01  0.76795346871E+01  0.00000000000E+00 0. -1.
</event>
<event>
 7    1  0.2505412E-009  0.4778727E+02  0.7816164E-02  0.1312668E+00
        -11   -1    0    0    0    0  0.00000000000E+00  0.00000000000E+00  0.45593999997E+02  0.45594000000E+02  0.51100000000E-03 0. -1.
         11   -1    0    0    0    0 -0.00000000000E+00 -0.00000000000E+00 -0.45593999997E+02  0.45594000000E+02  0.51100000000E-03 0.  1.
    9900012    2    1    2    0    0 -0.36935666519E+01  0.32692474759E+02  0.28305173888E+02  0.47787271789E+02  0.20000003393E+02 0.  0.
        -12    1    1    2    0    0  0.36935666519E+01 -0.32692474759E+02 -0.28305173888E+02  0.43400728211E+02  0.00000000000E+00 0.  1.
         11    1    3    3    0    0 -0.14225146181E+01  0.18287166129E+02  0.74922224927E+01  0.19813565832E+02  0.51100000000E-03 0. -1.
        -11    1    3    3    0    0 -0.50669990929E+01  0.15359870155E+01  0.41057078947E+01  0.67000427982E+01  0.51100000000E-03 0.  1.
         12    1    3    3    0    0  0.27959470592E+01  0.12869321615E+02  0.16707243500E+02  0.21273663158E+02  0.00000000000E+00 0. -1.
</event>
<event>
 7    1  0.2505412E-009  0.4778727E+02  0.7816164E-02  0.1312668E+00
        -11   -1    0    0    0    0  0.00000000000E+00  0.00000000000E+00  0.45593999997E+02  0.45594000000E+02  0.51100000000E-03 0. -1.
         11   -1    0    0    0    0 -0.00000000000E+00 -0.00000000000E+00 -0.45593999997E+02  0.45594000000E+02  0.51100000000E-03 0.  1.
    9900012    2    1    2    0    0  0.31800015991E+02  0.43431274201E+01  0.29215057796E+02  0.47787269881E+02  0.19999994695E+02 0.  0.
        -12    1    1    2    0    0 -0.31800015991E+02 -0.43431274201E+01 -0.29215057796E+02  0.43400730119E+02  0.00000000000E+00 0.  1.
         11    1    3    3    0    0  0.52540642741E+01 -0.65268522034E+01  0.10408783866E+02  0.13362176952E+02  0.51100000000E-03 0.  1.
        -11    1    3    3    0    0  0.13122102204E+02  0.64384615083E+01  0.10850316208E+02  0.18203645649E+02  0.51100000000E-03 0. -1.
        -12    1    3    3    0    0  0.13423849513E+02  0.44315181153E+01  0.79559577225E+01  0.16221447279E+02  0.00000000000E+00 0.  1.
</event>
<event>
 7    1  0.2505412E-009  0.4778726E+02  0.7816164E-02  0.1312668E+00
        -11   -1    0    0    0    0  0.00000000000E+00  0.00000000000E+00  0.45593999997E+02  0.45594000000E+02  0.51100000000E-03 0.  1.
         11   -1    0    0    0    0 -0.00000000000E+00 -0.00000000000E+00 -0.45593999997E+02  0.45594000000E+02  0.51100000000E-03 0. -1.
    9900012    2    1    2    0    0  0.32774146638E+02 -0.14600210266E+02 -0.24419525015E+02  0.47787262337E+02  0.19999960301E+02 0.  0.
        -12    1    1    2    0    0 -0.32774146638E+02  0.14600210266E+02  0.24419525015E+02  0.43400737663E+02  0.00000000000E+00 0.  1.
         11    1    3    3    0    0  0.19716671276E+02 -0.10710913546E+02 -0.15901080057E+02  0.27501184383E+02  0.51100000000E-03 0. -1.
        -11    1    3    3    0    0  0.73932203888E+01 -0.56906657137E+01  0.65794869887E+00  0.93528755329E+01  0.51100000000E-03 0.  1.
         12    1    3    3    0    0  0.56642549733E+01  0.18013689935E+01 -0.91763936569E+01  0.10933202422E+02  0.00000000000E+00 0. -1.
</event>
<event>
 7    1  0.2505412E-009  0.4778727E+02  0.7816164E-02  0.1312668E+00
        -11   -1    0    0    0    0  0.00000000000E+00  0.00000000000E+00  0.45593999997E+02  0.45594000000E+02  0.51100000000E-03 0.  1.
         11   -1    0    0    0    0 -0.00000000000E+00 -0.00000000000E+00 -0.45593999997E+02  0.45594000000E+02  0.51100000000E-03 0. -1.
    9900012    2    1    2    0    0 -0.10776024359E+02 -0.24767735931E+02 -0.33971457725E+02  0.47787269774E+02  0.19999994209E+02 0.  0.
        -12    1    1    2    0    0  0.10776024359E+02  0.24767735931E+02  0.33971457725E+02  0.43400730226E+02  0.00000000000E+00 0.  1.
         11    1    3    3    0    0 -0.77337326683E+01 -0.57908132620E+01 -0.15437458950E+02  0.18211514993E+02  0.51100000000E-03 0. -1.
        -11    1    3    3    0    0 -0.57874499767E+01 -0.19048382613E+02 -0.17866476560E+02  0.26749699855E+02  0.51100000000E-03 0.  1.
        -12    1    3    3    0    0  0.27451582860E+01  0.71459944091E-01 -0.66752221470E+00  0.28260549263E+01  0.00000000000E+00 0.  1.
</event>
<event>
 7    1  0.2537073E-009  0.4778727E+02  0.7816164E-02  0.1312668E+00
        -11   -1    0    0    0    0  0.00000000000E+00  0.00000000000E+00  0.45593999997E+02  0.45594000000E+02  0.51100000000E-03 0. -1.
         11   -1    0    0    0    0 -0.00000000000E+00 -0.00000000000E+00 -0.45593999997E+02  0.45594000000E+02  0.51100000000E-03 0.  1.
    9900012    2    1    2    0    0  0.21528648964E+01 -0.21284148652E+02  0.37762064998E+02  0.47787270006E+02  0.19999995266E+02 0.  0.
        -12    1    1    2    0    0 -0.21528648964E+01  0.21284148652E+02 -0.37762064998E+02  0.43400729994E+02  0.00000000000E+00 0.  1.
         11    1    3    3    0    0  0.32428770461E+01 -0.15631657269E+02  0.24336193137E+02  0.29105244497E+02  0.51100000000E-03 0. -1.
        -11    1    3    3    0    0 -0.55941072328E+01 -0.40605407410E+01  0.11725333078E+02  0.13611225620E+02  0.51100000000E-03 0.  1.
        -12    1    3    3    0    0  0.45040950831E+01 -0.15919506417E+01  0.17005387826E+01  0.50707998890E+01  0.00000000000E+00 0.  1.
</event>
<event>
 7    1  0.2505412E-009  0.4778728E+02  0.7816164E-02  0.1312668E+00
        -11   -1    0    0    0    0  0.00000000000E+00  0.00000000000E+00  0.45593999997E+02  0.45594000000E+02  0.51100000000E-03 0. -1.
         11   -1    0    0    0    0 -0.00000000000E+00 -0.00000000000E+00 -0.45593999997E+02  0.45594000000E+02  0.51100000000E-03 0.  1.
    9900012    2    1    2    0    0 -0.10583715025E+02  0.33450289024E+02  0.25547706269E+02  0.47787283933E+02  0.20000058766E+02 0.  0.
        -12    1    1    2    0    0  0.10583715025E+02 -0.33450289024E+02 -0.25547706269E+02  0.43400716067E+02  0.00000000000E+00 0.  1.
         11    1    3    3    0    0  0.20182963467E+01  0.44830041058E+00 -0.36909689565E+00  0.21001728931E+01  0.51100000000E-03 0. -1.
        -11    1    3    3    0    0  0.22892793417E+01  0.78362627637E+01  0.77827724333E+01  0.11279156042E+02  0.51100000000E-03 0.  1.
         12    1    3    3    0    0 -0.14891290713E+02  0.25165725850E+02  0.18134030731E+02  0.34407954999E+02  0.00000000000E+00 0. -1.
</event>
<event>
 7    1  0.2505412E-009  0.4778727E+02  0.7816164E-02  0.1312668E+00
        -11   -1    0    0    0    0  0.00000000000E+00  0.00000000000E+00  0.45593999997E+02  0.45594000000E+02  0.51100000000E-03 0.  1.
         11   -1    0    0    0    0 -0.00000000000E+00 -0.00000000000E+00 -0.45593999997E+02  0.45594000000E+02  0.51100000000E-03 0. -1.
    9900012    2    1    2    0    0  0.32384923846E+02  0.18773480749E+02 -0.21963520802E+02  0.47787272841E+02  0.20000008190E+02 0.  0.
        -12    1    1    2    0    0 -0.32384923846E+02 -0.18773480749E+02  0.21963520802E+02  0.43400727159E+02  0.00000000000E+00 0.  1.
         11    1    3    3    0    0  0.52970429382E+01  0.10715629149E+02 -0.63301536306E+01  0.13526056972E+02  0.51100000000E-03 0. -1.
        -11    1    3    3    0    0  0.10317537254E+02  0.98063853195E+00 -0.15140948787E+00  0.10365141196E+02  0.51100000000E-03 0.  1.
         12    1    3    3    0    0  0.16770343654E+02  0.70772130674E+01 -0.15481957683E+02  0.23896074673E+02  0.00000000000E+00 0. -1.
</event>
<event>
 7    1  0.2505412E-009  0.4778727E+02  0.7816164E-02  0.1312668E+00
        -11   -1    0    0    0    0  0.00000000000E+00  0.00000000000E+00  0.45593999997E+02  0.45594000000E+02  0.51100000000E-03 0.  1.
         11   -1    0    0    0    0 -0.00000000000E+00 -0.00000000000E+00 -0.45593999997E+02  0.45594000000E+02  0.51100000000E-03 0. -1.
    9900012    2    1    2    0    0  0.34582580554E+02 -0.73080657677E+01 -0.25184530359E+02  0.47787271061E+02  0.20000000075E+02 0.  0.
        -12    1    1    2    0    0 -0.34582580554E+02  0.73080657677E+01  0.25184530359E+02  0.43400728939E+02  0.00000000000E+00 0.  1.
         11    1    3    3    0    0  0.21066515984E+02  0.41301268938E+01 -0.14962954919E+02  0.26167653010E+02  0.51100000000E-03 0. -1.
        -11    1    3    3    0    0  0.86131277993E+00 -0.28544936735E+01 -0.42765584225E+01  0.52133430771E+01  0.51100000000E-03 0.  1.
         12    1    3    3    0    0  0.12654751790E+02 -0.85836989880E+01 -0.59450170176E+01  0.16406274974E+02  0.00000000000E+00 0. -1.
</event>
<event>
 7    1  0.2505412E-009  0.4778727E+02  0.7816164E-02  0.1312668E+00
        -11   -1    0    0    0    0  0.00000000000E+00  0.00000000000E+00  0.45593999997E+02  0.45594000000E+02  0.51100000000E-03 0.  1.
         11   -1    0    0    0    0 -0.00000000000E+00 -0.00000000000E+00 -0.45593999997E+02  0.45594000000E+02  0.51100000000E-03 0. -1.
    9900012    2    1    2    0    0  0.82712673021E+01  0.32270536878E+02 -0.27817655762E+02  0.47787269761E+02  0.19999994148E+02 0.  0.
        -12    1    1    2    0    0 -0.82712673021E+01 -0.32270536878E+02  0.27817655762E+02  0.43400730239E+02  0.00000000000E+00 0.  1.
         11    1    3    3    0    0 -0.49319067673E+00  0.15999625484E+02 -0.57880342996E+01  0.17021533245E+02  0.51100000000E-03 0. -1.
        -11    1    3    3    0    0  0.16009901828E+01  0.12942216076E+02 -0.16902801844E+02  0.21348743218E+02  0.51100000000E-03 0.  1.
        -12    1    3    3    0    0  0.71634677961E+01  0.33286953173E+01 -0.51268196183E+01  0.94169932982E+01  0.00000000000E+00 0.  1.
</event>
<event>
 7    1  0.2505412E-009  0.4778727E+02  0.7816164E-02  0.1312668E+00
        -11   -1    0    0    0    0  0.00000000000E+00  0.00000000000E+00  0.45593999997E+02  0.45594000000E+02  0.51100000000E-03 0. -1.
         11   -1    0    0    0    0 -0.00000000000E+00 -0.00000000000E+00 -0.45593999997E+02  0.45594000000E+02  0.51100000000E-03 0.  1.
    9900012    2    1    2    0    0  0.99284606172E+01 -0.39114230878E+02  0.15972660234E+02  0.47787271177E+02  0.20000000606E+02 0.  0.
        -12    1    1    2    0    0 -0.99284606172E+01  0.39114230878E+02 -0.15972660234E+02  0.43400728823E+02  0.00000000000E+00 0.  1.
         11    1    3    3    0    0  0.13613094864E+01 -0.13277633823E+02  0.33657034432E+01  0.13765052974E+02  0.51100000000E-03 0. -1.
        -11    1    3    3    0    0  0.43702843692E+01 -0.17123689223E+00 -0.12578501775E+01  0.45509224198E+01  0.51100000000E-03 0.  1.
        -12    1    3    3    0    0  0.41968667616E+01 -0.25665360162E+02  0.13864806968E+02  0.29471295783E+02  0.00000000000E+00 0.  1.
</event>
<event>
 7    1  0.2505412E-009  0.4778727E+02  0.7816164E-02  0.1312668E+00
        -11   -1    0    0    0    0  0.00000000000E+00  0.00000000000E+00  0.45593999997E+02  0.45594000000E+02  0.51100000000E-03 0.  1.
         11   -1    0    0    0    0 -0.00000000000E+00 -0.00000000000E+00 -0.45593999997E+02  0.45594000000E+02  0.51100000000E-03 0. -1.
    9900012    2    1    2    0    0 -0.31030161137E+02 -0.42042357854E+01 -0.30051236706E+02  0.47787270441E+02  0.19999997247E+02 0.  0.
        -12    1    1    2    0    0  0.31030161137E+02  0.42042357854E+01  0.30051236706E+02  0.43400729559E+02  0.00000000000E+00 0.  1.
         11    1    3    3    0    0 -0.18559900762E+00 -0.14170407954E+01 -0.65318764954E+01  0.66863938277E+01  0.51100000000E-03 0. -1.
        -11    1    3    3    0    0 -0.13353401652E+02 -0.41306215979E+01 -0.33570566471E+01  0.14375159132E+02  0.51100000000E-03 0.  1.
         12    1    3    3    0    0 -0.17491160477E+02  0.13434266079E+01 -0.20162303563E+02  0.26725717481E+02  0.00000000000E+00 0. -1.
</event>
<event>
 7    1  0.2505412E-009  0.4778727E+02  0.7816164E-02  0.1312668E+00
        -11   -1    0    0    0    0  0.00000000000E+00  0.00000000000E+00  0.45593999997E+02  0.45594000000E+02  0.51100000000E-03 0. -1.
         11   -1    0    0    0    0 -0.00000000000E+00 -0.00000000000E+00 -0.45593999997E+02  0.45594000000E+02  0.51100000000E-03 0.  1.
    9900012    2    1    2    0    0 -0.32641342724E+02  0.83010202606E+01  0.27372604698E+02  0.47787266364E+02  0.19999978660E+02 0.  0.
        -12    1    1    2    0    0  0.32641342724E+02 -0.83010202606E+01 -0.27372604698E+02  0.43400733636E+02  0.00000000000E+00 0.  1.
         11    1    3    3    0    0 -0.12622588333E+02  0.51962996957E+01  0.75361702590E+01  0.15592470272E+02  0.51100000000E-03 0. -1.
        -11    1    3    3    0    0 -0.71544549283E+01  0.86964169967E+01  0.10024690628E+02  0.15076747539E+02  0.51100000000E-03 0.  1.
         12    1    3    3    0    0 -0.12864299463E+02 -0.55916964318E+01  0.98117438114E+01  0.17118048553E+02  0.00000000000E+00 0. -1.
</event>
<event>
 7    1  0.2505412E-009  0.4778728E+02  0.7816164E-02  0.1312668E+00
        -11   -1    0    0    0    0  0.00000000000E+00  0.00000000000E+00  0.45593999997E+02  0.45594000000E+02  0.51100000000E-03 0.  1.
         11   -1    0    0    0    0 -0.00000000000E+00 -0.00000000000E+00 -0.45593999997E+02  0.45594000000E+02  0.51100000000E-03 0. -1.
    9900012    2    1    2    0    0 -0.49798728747E+01  0.27443581163E+02 -0.33251668452E+02  0.47787277244E+02  0.20000028265E+02 0.  0.
        -12    1    1    2    0    0  0.49798728747E+01 -0.27443581163E+02  0.33251668452E+02  0.43400722756E+02  0.00000000000E+00 0.  1.
         11    1    3    3    0    0 -0.65440795361E+01  0.15831939943E+02 -0.21800336358E+02  0.27725979963E+02  0.51100000000E-03 0. -1.
        -11    1    3    3    0    0  0.48846999055E+01  0.11849739376E+02 -0.10581249338E+02  0.16620452890E+02  0.51100000000E-03 0.  1.
         12    1    3    3    0    0 -0.33204932441E+01 -0.23809815634E+00 -0.87008275634E+00  0.34408443904E+01  0.00000000000E+00 0. -1.
</event>
<event>
 7    1  0.2505412E-009  0.4778728E+02  0.7816164E-02  0.1312668E+00
        -11   -1    0    0    0    0  0.00000000000E+00  0.00000000000E+00  0.45593999997E+02  0.45594000000E+02  0.51100000000E-03 0.  1.
         11   -1    0    0    0    0 -0.00000000000E+00 -0.00000000000E+00 -0.45593999997E+02  0.45594000000E+02  0.51100000000E-03 0. -1.
    9900012    2    1    2    0    0 -0.24174782546E+02 -0.14517848327E+02 -0.32991435039E+02  0.47787276307E+02  0.20000023992E+02 0.  0.
        -12    1    1    2    0    0  0.24174782546E+02  0.14517848327E+02  0.32991435039E+02  0.43400723693E+02  0.00000000000E+00 0.  1.
         11    1    3    3    0    0 -0.97253101086E+01  0.54617725663E+00 -0.77477569762E+01  0.12446192379E+02  0.51100000000E-03 0. -1.
        -11    1    3    3    0    0 -0.44446611182E+01 -0.57684166497E+01 -0.18955680505E+02  0.20306340555E+02  0.51100000000E-03 0.  1.
        -12    1    3    3    0    0 -0.10004811319E+02 -0.92956089337E+01 -0.62879975580E+01  0.15034743372E+02  0.00000000000E+00 0.  1.
</event>
<event>
 7    1  0.2505412E-009  0.4778727E+02  0.7816164E-02  0.1312668E+00
        -11   -1    0    0    0    0  0.00000000000E+00  0.00000000000E+00  0.45593999997E+02  0.45594000000E+02  0.51100000000E-03 0.  1.
         11   -1    0    0    0    0 -0.00000000000E+00 -0.00000000000E+00 -0.45593999997E+02  0.45594000000E+02  0.51100000000E-03 0. -1.
    9900012    2    1    2    0    0  0.18493740180E+01  0.19723286268E+02 -0.38615995139E+02  0.47787270904E+02  0.19999999362E+02 0.  0.
        -12    1    1    2    0    0 -0.18493740180E+01 -0.19723286268E+02  0.38615995139E+02  0.43400729096E+02  0.00000000000E+00 0.  1.
         11    1    3    3    0    0  0.65661525239E+00  0.17999717853E+02 -0.39734029588E+02  0.43625842042E+02  0.51100000000E-03 0. -1.
        -11    1    3    3    0    0  0.12998262205E+01 -0.73962349401E+00  0.73484978074E+00  0.16663119689E+01  0.51100000000E-03 0.  1.
         12    1    3    3    0    0 -0.10706745491E+00  0.24631919092E+01  0.38318466796E+00  0.24951168933E+01  0.00000000000E+00 0. -1.
</event>
<event>
 7    1  0.2505412E-009  0.4778727E+02  0.7816164E-02  0.1312668E+00
        -11   -1    0    0    0    0  0.00000000000E+00  0.00000000000E+00  0.45593999997E+02  0.45594000000E+02  0.51100000000E-03 0. -1.
         11   -1    0    0    0    0 -0.00000000000E+00 -0.00000000000E+00 -0.45593999997E+02  0.45594000000E+02  0.51100000000E-03 0.  1.
    9900012    2    1    2    0    0 -0.30521457086E+02 -0.17595292593E+02  0.25346980852E+02  0.47787273020E+02  0.20000009006E+02 0.  0.
        -12    1    1    2    0    0  0.30521457086E+02  0.17595292593E+02 -0.25346980852E+02  0.43400726980E+02  0.00000000000E+00 0.  1.
         11    1    3    3    0    0 -0.19395665487E+02 -0.45927503662E+01  0.12085917498E+02  0.23309967775E+02  0.51100000000E-03 0. -1.
        -11    1    3    3    0    0  0.15131047057E+01  0.54471936170E+00 -0.13546469773E+00  0.16138636804E+01  0.51100000000E-03 0.  1.
         12    1    3    3    0    0 -0.12638896304E+02 -0.13547261588E+02  0.13396528052E+02  0.22863441565E+02  0.00000000000E+00 0. -1.
</event>
<event>
 7    1  0.2505412E-009  0.4778726E+02  0.7816164E-02  0.1312668E+00
        -11   -1    0    0    0    0  0.00000000000E+00  0.00000000000E+00  0.45593999997E+02  0.45594000000E+02  0.51100000000E-03 0.  1.
         11   -1    0    0    0    0 -0.00000000000E+00 -0.00000000000E+00 -0.45593999997E+02  0.45594000000E+02  0.51100000000E-03 0. -1.
    9900012    2    1    2    0    0 -0.66680126049E+01 -0.25938018346E+02 -0.34152316298E+02  0.47787263873E+02  0.19999967303E+02 0.  0.
        -12    1    1    2    0    0  0.66680126049E+01  0.25938018346E+02  0.34152316298E+02  0.43400736127E+02  0.00000000000E+00 0.  1.
         11    1    3    3    0    0 -0.89943438651E+01 -0.10242389358E+02 -0.17060586530E+02  0.21837316098E+02  0.51100000000E-03 0. -1.
        -11    1    3    3    0    0  0.72625850259E+00  0.11563716082E+01  0.57563205115E+00  0.14818904238E+01  0.51100000000E-03 0.  1.
         12    1    3    3    0    0  0.16000727577E+01 -0.16852000596E+02 -0.17667361820E+02  0.24468057352E+02  0.00000000000E+00 0. -1.
</event>
<event>
 7    1  0.2505412E-009  0.4778727E+02  0.7816164E-02  0.1312668E+00
        -11   -1    0    0    0    0  0.00000000000E+00  0.00000000000E+00  0.45593999997E+02  0.45594000000E+02  0.51100000000E-03 0. -1.
         11   -1    0    0    0    0 -0.00000000000E+00 -0.00000000000E+00 -0.45593999997E+02  0.45594000000E+02  0.51100000000E-03 0.  1.
    9900012    2    1    2    0    0 -0.69567568009E+00  0.40914689866E+02  0.14461253154E+02  0.47787266662E+02  0.19999980017E+02 0.  0.
        -12    1    1    2    0    0  0.69567568009E+00 -0.40914689866E+02 -0.14461253154E+02  0.43400733338E+02  0.00000000000E+00 0.  1.
         11    1    3    3    0    0 -0.34695969849E+01  0.25805698141E+02  0.50680622053E+01  0.26526541700E+02  0.51100000000E-03 0. -1.
        -11    1    3    3    0    0  0.50329781930E+00  0.24494696284E+00 -0.22024432734E+01  0.22724577759E+01  0.51100000000E-03 0.  1.
         12    1    3    3    0    0  0.22706234855E+01  0.14864044763E+02  0.11595634222E+02  0.18988267186E+02  0.00000000000E+00 0. -1.
</event>
<event>
 7    1  0.2505412E-009  0.4778727E+02  0.7816164E-02  0.1312668E+00
        -11   -1    0    0    0    0  0.00000000000E+00  0.00000000000E+00  0.45593999997E+02  0.45594000000E+02  0.51100000000E-03 0.  1.
         11   -1    0    0    0    0 -0.00000000000E+00 -0.00000000000E+00 -0.45593999997E+02  0.45594000000E+02  0.51100000000E-03 0. -1.
    9900012    2    1    2    0    0  0.50476526619E+01 -0.18287223649E+02 -0.39034882303E+02  0.47787269792E+02  0.19999994290E+02 0.  0.
        -12    1    1    2    0    0 -0.50476526619E+01  0.18287223649E+02  0.39034882303E+02  0.43400730208E+02  0.00000000000E+00 0.  1.
         11    1    3    3    0    0 -0.35755750153E+01 -0.46126401507E+01 -0.52322011379E+01  0.78381831351E+01  0.51100000000E-03 0. -1.
        -11    1    3    3    0    0  0.97268423695E+01 -0.10820468291E+02 -0.14993305653E+02  0.20892419946E+02  0.51100000000E-03 0.  1.
         12    1    3    3    0    0 -0.11036146923E+01 -0.28541152071E+01 -0.18809375512E+02  0.19056666711E+02  0.00000000000E+00 0. -1.
</event>
<event>
 7    1  0.2505412E-009  0.4778727E+02  0.7816164E-02  0.1312668E+00
        -11   -1    0    0    0    0  0.00000000000E+00  0.00000000000E+00  0.45593999997E+02  0.45594000000E+02  0.51100000000E-03 0.  1.
         11   -1    0    0    0    0 -0.00000000000E+00 -0.00000000000E+00 -0.45593999997E+02  0.45594000000E+02  0.51100000000E-03 0. -1.
    9900012    2    1    2    0    0  0.14037257664E+02 -0.10419270501E+02 -0.39724271814E+02  0.47787267614E+02  0.19999984357E+02 0.  0.
        -12    1    1    2    0    0 -0.14037257664E+02  0.10419270501E+02  0.39724271814E+02  0.43400732386E+02  0.00000000000E+00 0.  1.
         11    1    3    3    0    0  0.81898660994E+01 -0.63592914808E+01 -0.10150171349E+02  0.14510012871E+02  0.51100000000E-03 0. -1.
        -11    1    3    3    0    0  0.88524197793E+01 -0.10439247422E+01 -0.26678788596E+02  0.28128506467E+02  0.51100000000E-03 0.  1.
        -12    1    3    3    0    0 -0.30050282151E+01 -0.30160542780E+01 -0.28953118697E+01  0.51487482755E+01  0.00000000000E+00 0.  1.
</event>
<event>
 7    1  0.2505412E-009  0.4778727E+02  0.7816164E-02  0.1312668E+00
        -11   -1    0    0    0    0  0.00000000000E+00  0.00000000000E+00  0.45593999997E+02  0.45594000000E+02  0.51100000000E-03 0.  1.
         11   -1    0    0    0    0 -0.00000000000E+00 -0.00000000000E+00 -0.45593999997E+02  0.45594000000E+02  0.51100000000E-03 0. -1.
    9900012    2    1    2    0    0  0.33478394484E+02  0.22428028220E+02 -0.16118429399E+02  0.47787272894E+02  0.20000008431E+02 0.  0.
        -12    1    1    2    0    0 -0.33478394484E+02 -0.22428028220E+02  0.16118429399E+02  0.43400727106E+02  0.00000000000E+00 0.  1.
         11    1    3    3    0    0  0.15623545646E+02  0.93979352298E+01 -0.13532394413E+02  0.22705551391E+02  0.51100000000E-03 0. -1.
        -11    1    3    3    0    0  0.16238745515E+02  0.15007032941E+02 -0.11250653169E+01  0.22139865984E+02  0.51100000000E-03 0.  1.
         12    1    3    3    0    0  0.16161033230E+01 -0.19769399503E+01 -0.14609696692E+01  0.29418555185E+01  0.00000000000E+00 0. -1.
</event>
<event>
 7    1  0.2505412E-009  0.4778727E+02  0.7816164E-02  0.1312668E+00
        -11   -1    0    0    0    0  0.00000000000E+00  0.00000000000E+00  0.45593999997E+02  0.45594000000E+02  0.51100000000E-03 0.  1.
         11   -1    0    0    0    0 -0.00000000000E+00 -0.00000000000E+00 -0.45593999997E+02  0.45594000000E+02  0.51100000000E-03 0. -1.
    9900012    2    1    2    0    0  0.27233589758E+02 -0.10460012482E+02  0.32133211162E+02  0.47787268073E+02  0.19999986453E+02 0.  0.
        -12    1    1    2    0    0 -0.27233589758E+02  0.10460012482E+02 -0.32133211162E+02  0.43400731927E+02  0.00000000000E+00 0.  1.
         11    1    3    3    0    0  0.20973048065E+02 -0.14586614369E+02  0.17417741109E+02  0.30919504677E+02  0.51100000000E-03 0. -1.
        -11    1    3    3    0    0  0.57065611194E+01  0.20301300750E+01  0.10309415429E+02  0.11957019473E+02  0.51100000000E-03 0.  1.
        -12    1    3    3    0    0  0.55398057374E+00  0.20964718116E+01  0.44060546243E+01  0.49107439238E+01  0.00000000000E+00 0.  1.
</event>
<event>
 7    1  0.2505412E-009  0.4778727E+02  0.7816164E-02  0.1312668E+00
        -11   -1    0    0    0    0  0.00000000000E+00  0.00000000000E+00  0.45593999997E+02  0.45594000000E+02  0.51100000000E-03 0.  1.
         11   -1    0    0    0    0 -0.00000000000E+00 -0.00000000000E+00 -0.45593999997E+02  0.45594000000E+02  0.51100000000E-03 0. -1.
    9900012    2    1    2    0    0 -0.33195512712E+02 -0.78759017405E+01 -0.26826318315E+02  0.47787271357E+02  0.20000001424E+02 0.  0.
        -12    1    1    2    0    0  0.33195512712E+02  0.78759017405E+01  0.26826318315E+02  0.43400728643E+02  0.00000000000E+00 0.  1.
         11    1    3    3    0    0 -0.28955107366E+02 -0.10865872606E+02 -0.25518079223E+02  0.40095358803E+02  0.51100000000E-03 0. -1.
        -11    1    3    3    0    0  0.85517192652E+00 -0.81871264663E+00  0.57469210553E-01  0.11852900037E+01  0.51100000000E-03 0.  1.
        -12    1    3    3    0    0 -0.50955772721E+01  0.38086835125E+01 -0.13657083029E+01  0.65066225496E+01  0.00000000000E+00 0.  1.
</event>
<event>
 7    1  0.2505412E-009  0.4778727E+02  0.7816164E-02  0.1312668E+00
        -11   -1    0    0    0    0  0.00000000000E+00  0.00000000000E+00  0.45593999997E+02  0.45594000000E+02  0.51100000000E-03 0.  1.
         11   -1    0    0    0    0 -0.00000000000E+00 -0.00000000000E+00 -0.45593999997E+02  0.45594000000E+02  0.51100000000E-03 0. -1.
    9900012    2    1    2    0    0 -0.25951884126E+02 -0.34686883097E+01 -0.34613453831E+02  0.47787271038E+02  0.19999999971E+02 0.  0.
        -12    1    1    2    0    0  0.25951884126E+02  0.34686883097E+01  0.34613453831E+02  0.43400728962E+02  0.00000000000E+00 0.  1.
         11    1    3    3    0    0 -0.12955437285E+02  0.18102322373E+00 -0.97700356067E+01  0.16227437280E+02  0.51100000000E-03 0. -1.
        -11    1    3    3    0    0 -0.86508442848E+00 -0.40272437063E+01 -0.24066663782E+00  0.41261342235E+01  0.51100000000E-03 0.  1.
         12    1    3    3    0    0 -0.12131362413E+02  0.37753217291E+00 -0.24602751587E+02  0.27433699535E+02  0.00000000000E+00 0. -1.
</event>
<event>
 7    1  0.2505412E-009  0.4778727E+02  0.7816164E-02  0.1312668E+00
        -11   -1    0    0    0    0  0.00000000000E+00  0.00000000000E+00  0.45593999997E+02  0.45594000000E+02  0.51100000000E-03 0.  1.
         11   -1    0    0    0    0 -0.00000000000E+00 -0.00000000000E+00 -0.45593999997E+02  0.45594000000E+02  0.51100000000E-03 0. -1.
    9900012    2    1    2    0    0 -0.18797488059E+02  0.38040447786E+02 -0.91215169501E+01  0.47787270783E+02  0.19999998807E+02 0.  0.
        -12    1    1    2    0    0  0.18797488059E+02 -0.38040447786E+02  0.91215169501E+01  0.43400729217E+02  0.00000000000E+00 0.  1.
         11    1    3    3    0    0 -0.12514640051E+02  0.72392735450E+01 -0.43225529210E+01  0.15089988770E+02  0.51100000000E-03 0.  1.
        -11    1    3    3    0    0  0.15099110160E+01  0.75602884269E+01 -0.23649593477E+01  0.80641692288E+01  0.51100000000E-03 0. -1.
        -12    1    3    3    0    0 -0.77927590245E+01  0.23240885814E+02 -0.24340046814E+01  0.24633112784E+02  0.00000000000E+00 0.  1.
</event>
<event>
 7    1  0.2505412E-009  0.4778727E+02  0.7816164E-02  0.1312668E+00
        -11   -1    0    0    0    0  0.00000000000E+00  0.00000000000E+00  0.45593999997E+02  0.45594000000E+02  0.51100000000E-03 0. -1.
         11   -1    0    0    0    0 -0.00000000000E+00 -0.00000000000E+00 -0.45593999997E+02  0.45594000000E+02  0.51100000000E-03 0.  1.
    9900012    2    1    2    0    0 -0.20241574067E+02 -0.17351705835E+02  0.34246463402E+02  0.47787271070E+02  0.20000000116E+02 0.  0.
        -12    1    1    2    0    0  0.20241574067E+02  0.17351705835E+02 -0.34246463402E+02  0.43400728930E+02  0.00000000000E+00 0.  1.
         11    1    3    3    0    0 -0.15562816245E+02 -0.13174301209E+02  0.32480947185E+02  0.38350689591E+02  0.51100000000E-03 0. -1.
        -11    1    3    3    0    0 -0.50620054722E+01 -0.20026959389E+01  0.36328735489E+01  0.65446513206E+01  0.51100000000E-03 0.  1.
        -12    1    3    3    0    0  0.38324764960E+00 -0.21747086867E+01 -0.18673573318E+01  0.28919301579E+01  0.00000000000E+00 0.  1.
</event>
<event>
 7    1  0.2505412E-009  0.4778727E+02  0.7816164E-02  0.1312668E+00
        -11   -1    0    0    0    0  0.00000000000E+00  0.00000000000E+00  0.45593999997E+02  0.45594000000E+02  0.51100000000E-03 0.  1.
         11   -1    0    0    0    0 -0.00000000000E+00 -0.00000000000E+00 -0.45593999997E+02  0.45594000000E+02  0.51100000000E-03 0. -1.
    9900012    2    1    2    0    0 -0.20664454569E+02  0.23514115170E+02 -0.30061431993E+02  0.47787274335E+02  0.20000015001E+02 0.  0.
        -12    1    1    2    0    0  0.20664454569E+02 -0.23514115170E+02  0.30061431993E+02  0.43400725665E+02  0.00000000000E+00 0.  1.
         11    1    3    3    0    0 -0.15616783392E+01  0.62398094862E+01 -0.10330349239E+02  0.12169230761E+02  0.51100000000E-03 0. -1.
        -11    1    3    3    0    0 -0.19584410215E+02  0.11757153615E+02 -0.19567199142E+02  0.30077484388E+02  0.51100000000E-03 0.  1.
        -12    1    3    3    0    0  0.48163398597E+00  0.55171520688E+01 -0.16388361199E+00  0.55405591852E+01  0.00000000000E+00 0.  1.
</event>
<event>
 7    1  0.2505412E-009  0.4778728E+02  0.7816164E-02  0.1312668E+00
        -11   -1    0    0    0    0  0.00000000000E+00  0.00000000000E+00  0.45593999997E+02  0.45594000000E+02  0.51100000000E-03 0. -1.
         11   -1    0    0    0    0 -0.00000000000E+00 -0.00000000000E+00 -0.45593999997E+02  0.45594000000E+02  0.51100000000E-03 0.  1.
    9900012    2    1    2    0    0  0.28047358065E+02  0.11908579239E+02  0.30905564814E+02  0.47787280071E+02  0.20000041155E+02 0.  0.
        -12    1    1    2    0    0 -0.28047358065E+02 -0.11908579239E+02 -0.30905564814E+02  0.43400719929E+02  0.00000000000E+00 0.  1.
         11    1    3    3    0    0  0.22026547904E+02  0.13631300892E+02  0.30789350642E+02  0.40236367751E+02  0.51100000000E-03 0. -1.
        -11    1    3    3    0    0 -0.59886645825E+00 -0.43943999565E+00 -0.28613039787E+00  0.79600214215E+00  0.51100000000E-03 0.  1.
         12    1    3    3    0    0  0.66196766193E+01 -0.12832816576E+01  0.40234456941E+00  0.67549101777E+01  0.00000000000E+00 0. -1.
</event>
<event>
 7    1  0.2505412E-009  0.4778726E+02  0.7816164E-02  0.1312668E+00
        -11   -1    0    0    0    0  0.00000000000E+00  0.00000000000E+00  0.45593999997E+02  0.45594000000E+02  0.51100000000E-03 0.  1.
         11   -1    0    0    0    0 -0.00000000000E+00 -0.00000000000E+00 -0.45593999997E+02  0.45594000000E+02  0.51100000000E-03 0. -1.
    9900012    2    1    2    0    0 -0.33237178869E+01 -0.39656388450E+02 -0.17319001368E+02  0.47787262058E+02  0.19999959029E+02 0.  0.
        -12    1    1    2    0    0  0.33237178869E+01  0.39656388450E+02  0.17319001368E+02  0.43400737942E+02  0.00000000000E+00 0.  1.
         11    1    3    3    0    0 -0.40413432580E+00 -0.89764090569E+00 -0.33415273590E+01  0.34835167720E+01  0.51100000000E-03 0. -1.
        -11    1    3    3    0    0  0.58930064184E+01 -0.23906213592E+02 -0.10041487195E+02  0.26590713385E+02  0.51100000000E-03 0.  1.
         12    1    3    3    0    0 -0.88125899795E+01 -0.14852533952E+02 -0.39359868139E+01  0.17713031902E+02  0.00000000000E+00 0. -1.
</event>
<event>
 7    1  0.2505412E-009  0.4778727E+02  0.7816164E-02  0.1312668E+00
        -11   -1    0    0    0    0  0.00000000000E+00  0.00000000000E+00  0.45593999997E+02  0.45594000000E+02  0.51100000000E-03 0. -1.
         11   -1    0    0    0    0 -0.00000000000E+00 -0.00000000000E+00 -0.45593999997E+02  0.45594000000E+02  0.51100000000E-03 0.  1.
    9900012    2    1    2    0    0  0.21038820115E+02 -0.36657312620E+02  0.98606902543E+01  0.47787265759E+02  0.19999975901E+02 0.  0.
        -12    1    1    2    0    0 -0.21038820115E+02  0.36657312620E+02 -0.98606902543E+01  0.43400734241E+02  0.00000000000E+00 0.  1.
         11    1    3    3    0    0  0.63551084466E+01 -0.60674436611E+01  0.53347139511E+01  0.10279126867E+02  0.51100000000E-03 0. -1.
        -11    1    3    3    0    0  0.15284471670E+02 -0.18386623125E+02  0.72602872505E+01  0.24987892176E+02  0.51100000000E-03 0.  1.
        -12    1    3    3    0    0 -0.60076000167E+00 -0.12203245834E+02 -0.27343109473E+01  0.12520246716E+02  0.00000000000E+00 0.  1.
</event>
<event>
 7    1  0.2505412E-009  0.4778728E+02  0.7816164E-02  0.1312668E+00
        -11   -1    0    0    0    0  0.00000000000E+00  0.00000000000E+00  0.45593999997E+02  0.45594000000E+02  0.51100000000E-03 0.  1.
         11   -1    0    0    0    0 -0.00000000000E+00 -0.00000000000E+00 -0.45593999997E+02  0.45594000000E+02  0.51100000000E-03 0. -1.
    9900012    2    1    2    0    0  0.11111118186E+02 -0.30677253758E+01 -0.41842022428E+02  0.47787277342E+02  0.20000028715E+02 0.  0.
        -12    1    1    2    0    0 -0.11111118186E+02  0.30677253758E+01  0.41842022428E+02  0.43400722658E+02  0.00000000000E+00 0.  1.
         11    1    3    3    0    0  0.41189564268E+01 -0.64753364763E+01 -0.36571132013E+02  0.37367679638E+02  0.51100000000E-03 0. -1.
        -11    1    3    3    0    0  0.13463478302E+01 -0.52406678156E+00  0.40514320160E+00  0.15004798387E+01  0.51100000000E-03 0.  1.
         12    1    3    3    0    0  0.56458139291E+01  0.39316778820E+01 -0.56760336163E+01  0.89191178658E+01  0.00000000000E+00 0. -1.
</event>
<event>
 7    1  0.4322834E-009  0.4778727E+02  0.7816164E-02  0.1312668E+00
        -11   -1    0    0    0    0  0.00000000000E+00  0.00000000000E+00  0.45593999997E+02  0.45594000000E+02  0.51100000000E-03 0. -1.
         11   -1    0    0    0    0 -0.00000000000E+00 -0.00000000000E+00 -0.45593999997E+02  0.45594000000E+02  0.51100000000E-03 0.  1.
    9900012    2    1    2    0    0 -0.21260223943E+02 -0.30727726726E+02  0.22077876947E+02  0.47787274634E+02  0.20000016365E+02 0.  0.
        -12    1    1    2    0    0  0.21260223943E+02  0.30727726726E+02 -0.22077876947E+02  0.43400725366E+02  0.00000000000E+00 0.  1.
         11    1    3    3    0    0 -0.13027310318E+02 -0.12224189404E+02  0.99764569555E+01  0.20461459243E+02  0.51100000000E-03 0. -1.
        -11    1    3    3    0    0 -0.31479740197E+01 -0.64837072593E+01 -0.26045820555E+01  0.76636837225E+01  0.51100000000E-03 0.  1.
        -12    1    3    3    0    0 -0.50849396046E+01 -0.12019830063E+02  0.14706002047E+02  0.19662131668E+02  0.00000000000E+00 0.  1.
</event>
<event>
 7    1  0.2505412E-009  0.4778727E+02  0.7816164E-02  0.1312668E+00
        -11   -1    0    0    0    0  0.00000000000E+00  0.00000000000E+00  0.45593999997E+02  0.45594000000E+02  0.51100000000E-03 0. -1.
         11   -1    0    0    0    0 -0.00000000000E+00 -0.00000000000E+00 -0.45593999997E+02  0.45594000000E+02  0.51100000000E-03 0.  1.
    9900012    2    1    2    0    0  0.35993943992E+02  0.10960597767E+02  0.21631569126E+02  0.47787268550E+02  0.19999988628E+02 0.  0.
        -12    1    1    2    0    0 -0.35993943992E+02 -0.10960597767E+02 -0.21631569126E+02  0.43400731450E+02  0.00000000000E+00 0.  1.
         11    1    3    3    0    0  0.12795857087E+02  0.62617899939E+01  0.45084242496E+01  0.14942217439E+02  0.51100000000E-03 0. -1.
        -11    1    3    3    0    0  0.11984772921E+02 -0.50110681476E+01  0.60235564011E+01  0.14318827394E+02  0.51100000000E-03 0.  1.
        -12    1    3    3    0    0  0.11213313983E+02  0.97098759212E+01  0.11099588475E+02  0.18526223717E+02  0.00000000000E+00 0.  1.
</event>
<event>
 7    1  0.2505412E-009  0.4778727E+02  0.7816164E-02  0.1312668E+00
        -11   -1    0    0    0    0  0.00000000000E+00  0.00000000000E+00  0.45593999997E+02  0.45594000000E+02  0.51100000000E-03 0.  1.
         11   -1    0    0    0    0 -0.00000000000E+00 -0.00000000000E+00 -0.45593999997E+02  0.45594000000E+02  0.51100000000E-03 0. -1.
    9900012    2    1    2    0    0  0.22459748158E+02 -0.35174376326E+02 -0.11914117454E+02  0.47787271527E+02  0.20000002201E+02 0.  0.
        -12    1    1    2    0    0 -0.22459748158E+02  0.35174376326E+02  0.11914117454E+02  0.43400728473E+02  0.00000000000E+00 0.  1.
         11    1    3    3    0    0  0.16410926935E+02 -0.12568361094E+02 -0.32114643635E+01  0.20918788852E+02  0.51100000000E-03 0. -1.
        -11    1    3    3    0    0  0.24580239515E+01 -0.14115624287E+02 -0.20288152790E+00  0.14329476332E+02  0.51100000000E-03 0.  1.
        -12    1    3    3    0    0  0.35907972718E+01 -0.84903909450E+01 -0.84997715628E+01  0.12539006343E+02  0.00000000000E+00 0.  1.
</event>
<event>
 7    1  0.2505412E-009  0.4778727E+02  0.7816164E-02  0.1312668E+00
        -11   -1    0    0    0    0  0.00000000000E+00  0.00000000000E+00  0.45593999997E+02  0.45594000000E+02  0.51100000000E-03 0.  1.
         11   -1    0    0    0    0 -0.00000000000E+00 -0.00000000000E+00 -0.45593999997E+02  0.45594000000E+02  0.51100000000E-03 0. -1.
    9900012    2    1    2    0    0  0.39527202208E+01 -0.18673942525E+01 -0.43179997156E+02  0.47787270596E+02  0.19999997954E+02 0.  0.
        -12    1    1    2    0    0 -0.39527202208E+01  0.18673942525E+01  0.43179997156E+02  0.43400729404E+02  0.00000000000E+00 0.  1.
         11    1    3    3    0    0  0.23927929889E+00 -0.26771159643E+01 -0.16760447504E+02  0.16974592934E+02  0.51100000000E-03 0. -1.
        -11    1    3    3    0    0  0.80287602379E+01  0.53059603653E+01 -0.16190388547E+02  0.18834619400E+02  0.51100000000E-03 0.  1.
        -12    1    3    3    0    0 -0.43153193160E+01 -0.44962386535E+01 -0.10229161105E+02  0.11978058262E+02  0.00000000000E+00 0.  1.
</event>
<event>
 7    1  0.2505412E-009  0.4778726E+02  0.7816164E-02  0.1312668E+00
        -11   -1    0    0    0    0  0.00000000000E+00  0.00000000000E+00  0.45593999997E+02  0.45594000000E+02  0.51100000000E-03 0.  1.
         11   -1    0    0    0    0 -0.00000000000E+00 -0.00000000000E+00 -0.45593999997E+02  0.45594000000E+02  0.51100000000E-03 0. -1.
    9900012    2    1    2    0    0  0.18751657026E+02  0.20192106515E+02 -0.33530261032E+02  0.47787260242E+02  0.19999950746E+02 0.  0.
        -12    1    1    2    0    0 -0.18751657026E+02 -0.20192106515E+02  0.33530261032E+02  0.43400739758E+02  0.00000000000E+00 0.  1.
         11    1    3    3    0    0  0.48148602786E+01  0.17615573675E+02 -0.25203982566E+02  0.31124460683E+02  0.51100000000E-03 0. -1.
        -11    1    3    3    0    0  0.11233459117E+01  0.20615735993E+00  0.97486390896E-01  0.11462594610E+01  0.51100000000E-03 0.  1.
         12    1    3    3    0    0  0.12813450835E+02  0.23703754799E+01 -0.84237648570E+01  0.15516540097E+02  0.00000000000E+00 0. -1.
</event>
<event>
 7    1  0.2505412E-009  0.4778725E+02  0.7816164E-02  0.1312668E+00
        -11   -1    0    0    0    0  0.00000000000E+00  0.00000000000E+00  0.45593999997E+02  0.45594000000E+02  0.51100000000E-03 0. -1.
         11   -1    0    0    0    0 -0.00000000000E+00 -0.00000000000E+00 -0.45593999997E+02  0.45594000000E+02  0.51100000000E-03 0.  1.
    9900012    2    1    2    0    0 -0.52085963360E+01  0.14765606031E+01  0.43061757715E+02  0.47787254793E+02  0.19999925905E+02 0.  0.
        -12    1    1    2    0    0  0.52085963360E+01 -0.14765606031E+01 -0.43061757715E+02  0.43400745207E+02  0.00000000000E+00 0.  1.
         11    1    3    3    0    0 -0.59348779088E+01 -0.44245155872E+01  0.33417568147E+02  0.34227663886E+02  0.51100000000E-03 0. -1.
        -11    1    3    3    0    0  0.14742671091E+01  0.46260100362E+01  0.10695276664E+02  0.11745738613E+02  0.51100000000E-03 0.  1.
        -12    1    3    3    0    0 -0.74798553635E+00  0.12750661542E+01 -0.10510870971E+01  0.18138522944E+01  0.00000000000E+00 0.  1.
</event>
<event>
 7    1  0.2505412E-009  0.4778727E+02  0.7816164E-02  0.1312668E+00
        -11   -1    0    0    0    0  0.00000000000E+00  0.00000000000E+00  0.45593999997E+02  0.45594000000E+02  0.51100000000E-03 0. -1.
         11   -1    0    0    0    0 -0.00000000000E+00 -0.00000000000E+00 -0.45593999997E+02  0.45594000000E+02  0.51100000000E-03 0.  1.
    9900012    2    1    2    0    0 -0.15422060246E+02  0.49593447800E+01  0.40263979180E+02  0.47787273482E+02  0.20000011112E+02 0.  0.
        -12    1    1    2    0    0  0.15422060246E+02 -0.49593447800E+01 -0.40263979180E+02  0.43400726518E+02  0.00000000000E+00 0.  1.
         11    1    3    3    0    0 -0.72284173516E+01  0.45252828186E+00  0.28639463837E+01  0.77882596518E+01  0.51100000000E-03 0. -1.
        -11    1    3    3    0    0  0.25011773301E+01  0.14851419048E+01  0.55563390584E+01  0.62717173491E+01  0.51100000000E-03 0.  1.
         12    1    3    3    0    0 -0.10694820225E+02  0.30216745933E+01  0.31843693738E+02  0.33727296481E+02  0.00000000000E+00 0. -1.
</event>
<event>
 7    1  0.2505412E-009  0.4778727E+02  0.7816164E-02  0.1312668E+00
        -11   -1    0    0    0    0  0.00000000000E+00  0.00000000000E+00  0.45593999997E+02  0.45594000000E+02  0.51100000000E-03 0.  1.
         11   -1    0    0    0    0 -0.00000000000E+00 -0.00000000000E+00 -0.45593999997E+02  0.45594000000E+02  0.51100000000E-03 0. -1.
    9900012    2    1    2    0    0  0.17890432464E+02  0.79300065156E+01 -0.38738490076E+02  0.47787272006E+02  0.20000004384E+02 0.  0.
        -12    1    1    2    0    0 -0.17890432464E+02 -0.79300065156E+01  0.38738490076E+02  0.43400727994E+02  0.00000000000E+00 0.  1.
         11    1    3    3    0    0  0.11452874625E+02  0.43677748511E+01 -0.18320259233E+02  0.22042633530E+02  0.51100000000E-03 0. -1.
        -11    1    3    3    0    0  0.78946560963E+01  0.18058998422E+01 -0.21675593801E+02  0.23139106206E+02  0.51100000000E-03 0.  1.
        -12    1    3    3    0    0 -0.14570982572E+01  0.17563318223E+01  0.12573629583E+01  0.26055322700E+01  0.00000000000E+00 0.  1.
</event>
<event>
 7    1  0.2505412E-009  0.4778726E+02  0.7816164E-02  0.1312668E+00
        -11   -1    0    0    0    0  0.00000000000E+00  0.00000000000E+00  0.45593999997E+02  0.45594000000E+02  0.51100000000E-03 0.  1.
         11   -1    0    0    0    0 -0.00000000000E+00 -0.00000000000E+00 -0.45593999997E+02  0.45594000000E+02  0.51100000000E-03 0. -1.
    9900012    2    1    2    0    0 -0.10290902712E+02  0.25475332716E+02 -0.33596561001E+02  0.47787260758E+02  0.19999953101E+02 0.  0.
        -12    1    1    2    0    0  0.10290902712E+02 -0.25475332716E+02  0.33596561001E+02  0.43400739242E+02  0.00000000000E+00 0.  1.
         11    1    3    3    0    0 -0.10584273269E+02  0.22457377152E+02 -0.19116337322E+02  0.31333607868E+02  0.51100000000E-03 0. -1.
        -11    1    3    3    0    0  0.14417469734E+01  0.51685943194E+01 -0.95792763107E+01  0.10979778526E+02  0.51100000000E-03 0.  1.
         12    1    3    3    0    0 -0.11483764170E+01 -0.21506387551E+01 -0.49009473682E+01  0.54738743643E+01  0.00000000000E+00 0. -1.
</event>
<event>
 7    1  0.2505412E-009  0.4778727E+02  0.7816164E-02  0.1312668E+00
        -11   -1    0    0    0    0  0.00000000000E+00  0.00000000000E+00  0.45593999997E+02  0.45594000000E+02  0.51100000000E-03 0. -1.
         11   -1    0    0    0    0 -0.00000000000E+00 -0.00000000000E+00 -0.45593999997E+02  0.45594000000E+02  0.51100000000E-03 0.  1.
    9900012    2    1    2    0    0  0.99804326553E+01  0.16167336661E+02  0.39020914517E+02  0.47787267512E+02  0.19999983895E+02 0.  0.
        -12    1    1    2    0    0 -0.99804326553E+01 -0.16167336661E+02 -0.39020914517E+02  0.43400732488E+02  0.00000000000E+00 0.  1.
         11    1    3    3    0    0  0.25990355706E+01  0.11226260121E+02  0.26662386332E+02  0.29045942012E+02  0.51100000000E-03 0. -1.
        -11    1    3    3    0    0  0.81512628613E+01 -0.66808587559E+00  0.89886709521E+01  0.12152597694E+02  0.51100000000E-03 0.  1.
         12    1    3    3    0    0 -0.76986577659E+00  0.56091624163E+01  0.33698572329E+01  0.65887278056E+01  0.00000000000E+00 0. -1.
</event>
<event>
 7    1  0.2505412E-009  0.4778727E+02  0.7816164E-02  0.1312668E+00
        -11   -1    0    0    0    0  0.00000000000E+00  0.00000000000E+00  0.45593999997E+02  0.45594000000E+02  0.51100000000E-03 0.  1.
         11   -1    0    0    0    0 -0.00000000000E+00 -0.00000000000E+00 -0.45593999997E+02  0.45594000000E+02  0.51100000000E-03 0. -1.
    9900012    2    1    2    0    0 -0.33680532368E+02  0.19981728208E+02 -0.18707631283E+02  0.47787271999E+02  0.20000004351E+02 0.  0.
        -12    1    1    2    0    0  0.33680532368E+02 -0.19981728208E+02  0.18707631283E+02  0.43400728001E+02  0.00000000000E+00 0.  1.
         11    1    3    3    0    0 -0.94264866453E+01  0.40251687273E+01 -0.47762961367E+01  0.11308122691E+02  0.51100000000E-03 0. -1.
        -11    1    3    3    0    0 -0.16915039077E+02  0.46933873150E+01 -0.62666288879E+00  0.17565282181E+02  0.51100000000E-03 0.  1.
         12    1    3    3    0    0 -0.73390066461E+01  0.11263172166E+02 -0.13304672257E+02  0.18913867126E+02  0.00000000000E+00 0. -1.
</event>
<event>
 7    1  0.2505412E-009  0.4778727E+02  0.7816164E-02  0.1312668E+00
        -11   -1    0    0    0    0  0.00000000000E+00  0.00000000000E+00  0.45593999997E+02  0.45594000000E+02  0.51100000000E-03 0.  1.
         11   -1    0    0    0    0 -0.00000000000E+00 -0.00000000000E+00 -0.45593999997E+02  0.45594000000E+02  0.51100000000E-03 0. -1.
    9900012    2    1    2    0    0  0.32356761511E+01 -0.42855888416E+02  0.60437102472E+01  0.47787271831E+02  0.20000003585E+02 0.  0.
        -12    1    1    2    0    0 -0.32356761511E+01  0.42855888416E+02 -0.60437102472E+01  0.43400728169E+02  0.00000000000E+00 0.  1.
         11    1    3    3    0    0  0.16234791443E+01 -0.24797161131E+02 -0.21817136961E+01  0.24945836518E+02  0.51100000000E-03 0. -1.
        -11    1    3    3    0    0 -0.11792422789E+01 -0.46832593754E+01  0.77964559270E+01  0.91710553380E+01  0.51100000000E-03 0.  1.
        -12    1    3    3    0    0  0.27914392857E+01 -0.13375467910E+02  0.42896801628E+00  0.13670379975E+02  0.00000000000E+00 0.  1.
</event>
<event>
 7    1  0.2505412E-009  0.4778727E+02  0.7816164E-02  0.1312668E+00
        -11   -1    0    0    0    0  0.00000000000E+00  0.00000000000E+00  0.45593999997E+02  0.45594000000E+02  0.51100000000E-03 0.  1.
         11   -1    0    0    0    0 -0.00000000000E+00 -0.00000000000E+00 -0.45593999997E+02  0.45594000000E+02  0.51100000000E-03 0. -1.
    9900012    2    1    2    0    0  0.24023638182E+02  0.31501453710E+02 -0.17724183596E+02  0.47787268883E+02  0.19999990145E+02 0.  0.
        -12    1    1    2    0    0 -0.24023638182E+02 -0.31501453710E+02  0.17724183596E+02  0.43400731117E+02  0.00000000000E+00 0.  1.
         11    1    3    3    0    0  0.10175575437E+02  0.26898873229E+02 -0.11865574462E+02  0.31110827279E+02  0.51100000000E-03 0. -1.
        -11    1    3    3    0    0  0.66434452113E+01  0.37978177535E+01 -0.54893295748E+01  0.94176177140E+01  0.51100000000E-03 0.  1.
         12    1    3    3    0    0  0.72046175345E+01  0.80476272746E+00 -0.36927955949E+00  0.72588238895E+01  0.00000000000E+00 0. -1.
</event>
<event>
 7    1  0.2505412E-009  0.4778727E+02  0.7816164E-02  0.1312668E+00
        -11   -1    0    0    0    0  0.00000000000E+00  0.00000000000E+00  0.45593999997E+02  0.45594000000E+02  0.51100000000E-03 0. -1.
         11   -1    0    0    0    0 -0.00000000000E+00 -0.00000000000E+00 -0.45593999997E+02  0.45594000000E+02  0.51100000000E-03 0.  1.
    9900012    2    1    2    0    0 -0.38692354170E+02  0.18039750155E+02  0.78161683341E+01  0.47787270233E+02  0.19999996302E+02 0.  0.
        -12    1    1    2    0    0  0.38692354170E+02 -0.18039750155E+02 -0.78161683341E+01  0.43400729767E+02  0.00000000000E+00 0.  1.
         11    1    3    3    0    0 -0.10260036186E+02  0.94944525388E+01  0.16180591082E+01  0.14072351868E+02  0.51100000000E-03 0. -1.
        -11    1    3    3    0    0 -0.17170834823E+02  0.12320076958E+02  0.25312550906E+01  0.21284480670E+02  0.51100000000E-03 0.  1.
        -12    1    3    3    0    0 -0.11261483161E+02 -0.37747793426E+01  0.36668541353E+01  0.12430437696E+02  0.00000000000E+00 0.  1.
</event>
<event>
 7    1  0.2505412E-009  0.4778728E+02  0.7816164E-02  0.1312668E+00
        -11   -1    0    0    0    0  0.00000000000E+00  0.00000000000E+00  0.45593999997E+02  0.45594000000E+02  0.51100000000E-03 0.  1.
         11   -1    0    0    0    0 -0.00000000000E+00 -0.00000000000E+00 -0.45593999997E+02  0.45594000000E+02  0.51100000000E-03 0. -1.
    9900012    2    1    2    0    0  0.21694099194E+01 -0.43303072158E+02 -0.19390262545E+01  0.47787283179E+02  0.20000055328E+02 0.  0.
        -12    1    1    2    0    0 -0.21694099194E+01  0.43303072158E+02  0.19390262545E+01  0.43400716821E+02  0.00000000000E+00 0.  1.
         11    1    3    3    0    0  0.44424105234E+01 -0.99088207807E+01  0.17353587420E+01  0.10996872771E+02  0.51100000000E-03 0. -1.
        -11    1    3    3    0    0 -0.84504975189E+01 -0.22674162820E+02 -0.32035150330E+01  0.24408831941E+02  0.51100000000E-03 0.  1.
        -12    1    3    3    0    0  0.61774969150E+01 -0.10720088557E+02 -0.47086996352E+00  0.12381578467E+02  0.00000000000E+00 0.  1.
</event>
<event>
 7    1  0.2505412E-009  0.4778727E+02  0.7816164E-02  0.1312668E+00
        -11   -1    0    0    0    0  0.00000000000E+00  0.00000000000E+00  0.45593999997E+02  0.45594000000E+02  0.51100000000E-03 0. -1.
         11   -1    0    0    0    0 -0.00000000000E+00 -0.00000000000E+00 -0.45593999997E+02  0.45594000000E+02  0.51100000000E-03 0.  1.
    9900012    2    1    2    0    0 -0.19568595086E+02 -0.37839722130E+02 -0.82975042448E+01  0.47787273494E+02  0.20000011170E+02 0.  0.
        -12    1    1    2    0    0  0.19568595086E+02  0.37839722130E+02  0.82975042448E+01  0.43400726506E+02  0.00000000000E+00 0.  1.
         11    1    3    3    0    0 -0.18069005546E+02 -0.26652878182E+02 -0.71370072395E+01  0.32981839691E+02  0.51100000000E-03 0. -1.
        -11    1    3    3    0    0 -0.33355130769E+01 -0.38157358645E+01  0.32508980809E+01  0.60211150352E+01  0.51100000000E-03 0.  1.
         12    1    3    3    0    0  0.18359235368E+01 -0.73711080840E+01 -0.44113950861E+01  0.87843187684E+01  0.00000000000E+00 0. -1.
</event>
<event>
 7    1  0.2505412E-009  0.4778727E+02  0.7816164E-02  0.1312668E+00
        -11   -1    0    0    0    0  0.00000000000E+00  0.00000000000E+00  0.45593999997E+02  0.45594000000E+02  0.51100000000E-03 0. -1.
         11   -1    0    0    0    0 -0.00000000000E+00 -0.00000000000E+00 -0.45593999997E+02  0.45594000000E+02  0.51100000000E-03 0.  1.
    9900012    2    1    2    0    0 -0.17840742536E+02  0.24902306625E+02  0.30744203843E+02  0.47787273745E+02  0.20000012314E+02 0.  0.
        -12    1    1    2    0    0  0.17840742536E+02 -0.24902306625E+02 -0.30744203843E+02  0.43400726255E+02  0.00000000000E+00 0.  1.
         11    1    3    3    0    0 -0.18225366064E+02  0.10812219796E+02  0.13646194525E+02  0.25204894175E+02  0.51100000000E-03 0. -1.
        -11    1    3    3    0    0  0.17644371814E+01  0.46807339937E+01  0.40486311807E+01  0.64353651012E+01  0.51100000000E-03 0.  1.
         12    1    3    3    0    0 -0.13798136531E+01  0.94093528351E+01  0.13049378137E+02  0.16147014469E+02  0.00000000000E+00 0. -1.
</event>
<event>
 7    1  0.2505412E-009  0.4778728E+02  0.7816164E-02  0.1312668E+00
        -11   -1    0    0    0    0  0.00000000000E+00  0.00000000000E+00  0.45593999997E+02  0.45594000000E+02  0.51100000000E-03 0.  1.
         11   -1    0    0    0    0 -0.00000000000E+00 -0.00000000000E+00 -0.45593999997E+02  0.45594000000E+02  0.51100000000E-03 0. -1.
    9900012    2    1    2    0    0  0.30996203388E+01  0.35856093305E+02 -0.24256031756E+02  0.47787283994E+02  0.20000059040E+02 0.  0.
        -12    1    1    2    0    0 -0.30996203388E+01 -0.35856093305E+02  0.24256031756E+02  0.43400716006E+02  0.00000000000E+00 0.  1.
         11    1    3    3    0    0 -0.17887840621E+01  0.29442112671E+02 -0.13825495621E+02  0.32575789728E+02  0.51100000000E-03 0. -1.
        -11    1    3    3    0    0 -0.80958465966E+00 -0.99325883644E+00 -0.10625975400E+00  0.12858000754E+01  0.51100000000E-03 0.  1.
        -12    1    3    3    0    0  0.56979890606E+01  0.74072394705E+01 -0.10324276380E+02  0.13925694190E+02  0.00000000000E+00 0.  1.
</event>
<event>
 7    1  0.2505412E-009  0.4778727E+02  0.7816164E-02  0.1312668E+00
        -11   -1    0    0    0    0  0.00000000000E+00  0.00000000000E+00  0.45593999997E+02  0.45594000000E+02  0.51100000000E-03 0.  1.
         11   -1    0    0    0    0 -0.00000000000E+00 -0.00000000000E+00 -0.45593999997E+02  0.45594000000E+02  0.51100000000E-03 0. -1.
    9900012    2    1    2    0    0  0.10789320929E+02 -0.34470706977E+01 -0.41896678522E+02  0.47787269434E+02  0.19999992655E+02 0.  0.
        -12    1    1    2    0    0 -0.10789320929E+02  0.34470706977E+01  0.41896678522E+02  0.43400730566E+02  0.00000000000E+00 0.  1.
         11    1    3    3    0    0 -0.33763790382E+01  0.29447672827E+01 -0.14991310246E+02  0.15646436429E+02  0.51100000000E-03 0.  1.
        -11    1    3    3    0    0  0.70949446132E+01  0.20883315640E+00 -0.68001075524E+01  0.98297158320E+01  0.51100000000E-03 0. -1.
        -12    1    3    3    0    0  0.70707553542E+01 -0.66006711368E+01 -0.20105260724E+02  0.22311117173E+02  0.00000000000E+00 0.  1.
</event>
<event>
 7    1  0.2606034E-009  0.4778727E+02  0.7816164E-02  0.1312668E+00
        -11   -1    0    0    0    0  0.00000000000E+00  0.00000000000E+00  0.45593999997E+02  0.45594000000E+02  0.51100000000E-03 0. -1.
         11   -1    0    0    0    0 -0.00000000000E+00 -0.00000000000E+00 -0.45593999997E+02  0.45594000000E+02  0.51100000000E-03 0.  1.
    9900012    2    1    2    0    0 -0.42498435846E+02  0.84508001331E+01  0.24678411443E+01  0.47787270603E+02  0.19999997989E+02 0.  0.
        -12    1    1    2    0    0  0.42498435846E+02 -0.84508001331E+01 -0.24678411443E+01  0.43400729397E+02  0.00000000000E+00 0.  1.
         11    1    3    3    0    0 -0.16628268430E+02  0.12169909354E+01  0.13159015608E+01  0.16724591927E+02  0.51100000000E-03 0. -1.
        -11    1    3    3    0    0  0.99669781808E-01 -0.30845380742E+01  0.35752032851E+00  0.31067877692E+01  0.51100000000E-03 0.  1.
        -12    1    3    3    0    0 -0.25969837197E+02  0.10318347272E+02  0.79441925494E+00  0.27955890908E+02  0.00000000000E+00 0.  1.
</event>
<event>
 7    1  0.2505412E-009  0.4778724E+02  0.7816164E-02  0.1312668E+00
        -11   -1    0    0    0    0  0.00000000000E+00  0.00000000000E+00  0.45593999997E+02  0.45594000000E+02  0.51100000000E-03 0. -1.
         11   -1    0    0    0    0 -0.00000000000E+00 -0.00000000000E+00 -0.45593999997E+02  0.45594000000E+02  0.51100000000E-03 0.  1.
    9900012    2    1    2    0    0 -0.11565745767E+01 -0.15410502013E+02  0.40556189640E+02  0.47787242458E+02  0.19999869664E+02 0.  0.
        -12    1    1    2    0    0  0.11565745767E+01  0.15410502013E+02 -0.40556189640E+02  0.43400757542E+02  0.00000000000E+00 0.  1.
         11    1    3    3    0    0 -0.44280826861E+01  0.52643662936E-01  0.23909243389E+01  0.50326143391E+01  0.51100000000E-03 0.  1.
        -11    1    3    3    0    0  0.52541704019E+01 -0.60431062511E+01  0.90249997414E+01  0.12065490474E+02  0.51100000000E-03 0. -1.
         12    1    3    3    0    0 -0.19826622925E+01 -0.94200394249E+01  0.29140265560E+02  0.30689137646E+02  0.00000000000E+00 0. -1.
</event>
<event>
 7    1  0.2505412E-009  0.4778725E+02  0.7816164E-02  0.1312668E+00
        -11   -1    0    0    0    0  0.00000000000E+00  0.00000000000E+00  0.45593999997E+02  0.45594000000E+02  0.51100000000E-03 0. -1.
         11   -1    0    0    0    0 -0.00000000000E+00 -0.00000000000E+00 -0.45593999997E+02  0.45594000000E+02  0.51100000000E-03 0.  1.
    9900012    2    1    2    0    0 -0.35236930806E+02 -0.90109018467E+01  0.23680948058E+02  0.47787251784E+02  0.19999912186E+02 0.  0.
        -12    1    1    2    0    0  0.35236930806E+02  0.90109018467E+01 -0.23680948058E+02  0.43400748216E+02  0.00000000000E+00 0.  1.
         11    1    3    3    0    0 -0.35372508318E+01 -0.27162610630E+01 -0.12283920642E+01  0.46259231440E+01  0.51100000000E-03 0. -1.
        -11    1    3    3    0    0 -0.20341881538E+01 -0.37939667371E+01 -0.60536235044E-01  0.43053187970E+01  0.51100000000E-03 0.  1.
        -12    1    3    3    0    0 -0.29665491821E+02 -0.25006740466E+01  0.24969876357E+02  0.38856009843E+02  0.00000000000E+00 0.  1.
</event>
<event>
 7    1  0.2505412E-009  0.4778727E+02  0.7816164E-02  0.1312668E+00
        -11   -1    0    0    0    0  0.00000000000E+00  0.00000000000E+00  0.45593999997E+02  0.45594000000E+02  0.51100000000E-03 0.  1.
         11   -1    0    0    0    0 -0.00000000000E+00 -0.00000000000E+00 -0.45593999997E+02  0.45594000000E+02  0.51100000000E-03 0. -1.
    9900012    2    1    2    0    0  0.17074180162E+02 -0.35287609954E+02 -0.18624724412E+02  0.47787269547E+02  0.19999993170E+02 0.  0.
        -12    1    1    2    0    0 -0.17074180162E+02  0.35287609954E+02  0.18624724412E+02  0.43400730453E+02  0.00000000000E+00 0.  1.
         11    1    3    3    0    0  0.59670463834E+01 -0.11454151366E+02 -0.79388469970E+01  0.15160096239E+02  0.51100000000E-03 0. -1.
        -11    1    3    3    0    0  0.93119389457E+01 -0.89666950297E+01  0.18995661436E+01  0.13066069741E+02  0.51100000000E-03 0.  1.
        -12    1    3    3    0    0  0.17951948331E+01 -0.14866763558E+02 -0.12585443559E+02  0.19561103567E+02  0.00000000000E+00 0.  1.
</event>
<event>
 7    1  0.2505412E-009  0.4778728E+02  0.7816164E-02  0.1312668E+00
        -11   -1    0    0    0    0  0.00000000000E+00  0.00000000000E+00  0.45593999997E+02  0.45594000000E+02  0.51100000000E-03 0.  1.
         11   -1    0    0    0    0 -0.00000000000E+00 -0.00000000000E+00 -0.45593999997E+02  0.45594000000E+02  0.51100000000E-03 0. -1.
    9900012    2    1    2    0    0 -0.24688498797E+02  0.34960609253E+02 -0.72011541170E+01  0.47787276587E+02  0.20000025271E+02 0.  0.
        -12    1    1    2    0    0  0.24688498797E+02 -0.34960609253E+02  0.72011541170E+01  0.43400723413E+02  0.00000000000E+00 0.  1.
         11    1    3    3    0    0 -0.60308593211E+01  0.11589933655E+01  0.70792015386E+00  0.61818832872E+01  0.51100000000E-03 0. -1.
        -11    1    3    3    0    0 -0.85859360914E+01  0.52822987938E+01 -0.49060534631E+01  0.11211170321E+02  0.51100000000E-03 0.  1.
         12    1    3    3    0    0 -0.10071703384E+02  0.28519317094E+02 -0.30030208078E+01  0.30394222979E+02  0.00000000000E+00 0. -1.
</event>
<event>
 7    1  0.2505412E-009  0.4778727E+02  0.7816164E-02  0.1312668E+00
        -11   -1    0    0    0    0  0.00000000000E+00  0.00000000000E+00  0.45593999997E+02  0.45594000000E+02  0.51100000000E-03 0.  1.
         11   -1    0    0    0    0 -0.00000000000E+00 -0.00000000000E+00 -0.45593999997E+02  0.45594000000E+02  0.51100000000E-03 0. -1.
    9900012    2    1    2    0    0 -0.23358102353E+02 -0.33307546391E+02 -0.15120506631E+02  0.47787270594E+02  0.19999997948E+02 0.  0.
        -12    1    1    2    0    0  0.23358102353E+02  0.33307546391E+02  0.15120506631E+02  0.43400729406E+02  0.00000000000E+00 0.  1.
         11    1    3    3    0    0 -0.47797027730E+01 -0.17430795696E+02 -0.56985639481E+01  0.18951301499E+02  0.51100000000E-03 0. -1.
        -11    1    3    3    0    0 -0.12390029470E+02 -0.82282777715E+01  0.47488900316E+00  0.14880957805E+02  0.51100000000E-03 0.  1.
         12    1    3    3    0    0 -0.61883701101E+01 -0.76484729241E+01 -0.98968316860E+01  0.13955011290E+02  0.00000000000E+00 0. -1.
</event>
<event>
 7    1  0.2505412E-009  0.4778727E+02  0.7816164E-02  0.1312668E+00
        -11   -1    0    0    0    0  0.00000000000E+00  0.00000000000E+00  0.45593999997E+02  0.45594000000E+02  0.51100000000E-03 0.  1.
         11   -1    0    0    0    0 -0.00000000000E+00 -0.00000000000E+00 -0.45593999997E+02  0.45594000000E+02  0.51100000000E-03 0. -1.
    9900012    2    1    2    0    0 -0.42384952886E+02  0.67329093361E+01  0.64658252454E+01  0.47787271949E+02  0.20000004125E+02 0.  0.
        -12    1    1    2    0    0  0.42384952886E+02 -0.67329093361E+01 -0.64658252454E+01  0.43400728051E+02  0.00000000000E+00 0.  1.
         11    1    3    3    0    0 -0.13045056233E+02  0.45143608135E+01  0.28589221485E+00  0.13807051832E+02  0.51100000000E-03 0. -1.
        -11    1    3    3    0    0 -0.63825468478E+01  0.12708871212E+01 -0.52088170240E+01  0.83356963351E+01  0.51100000000E-03 0.  1.
        -12    1    3    3    0    0 -0.22957349805E+02  0.94766140140E+00  0.11388750055E+02  0.25644523782E+02  0.00000000000E+00 0.  1.
</event>
<event>
 7    1  0.2505412E-009  0.4778727E+02  0.7816164E-02  0.1312668E+00
        -11   -1    0    0    0    0  0.00000000000E+00  0.00000000000E+00  0.45593999997E+02  0.45594000000E+02  0.51100000000E-03 0.  1.
         11   -1    0    0    0    0 -0.00000000000E+00 -0.00000000000E+00 -0.45593999997E+02  0.45594000000E+02  0.51100000000E-03 0. -1.
    9900012    2    1    2    0    0  0.38283994737E+02 -0.19447170442E+02 -0.63061000771E+01  0.47787267410E+02  0.19999983427E+02 0.  0.
        -12    1    1    2    0    0 -0.38283994737E+02  0.19447170442E+02  0.63061000771E+01  0.43400732590E+02  0.00000000000E+00 0.  1.
         11    1    3    3    0    0  0.45732658564E+01 -0.30330646226E+01 -0.58687866321E+01  0.80347307604E+01  0.51100000000E-03 0. -1.
        -11    1    3    3    0    0  0.90591584851E+01 -0.60440806694E+01  0.57313583480E+01  0.12306410215E+02  0.51100000000E-03 0.  1.
         12    1    3    3    0    0  0.24651570395E+02 -0.10370025150E+02 -0.61686717929E+01  0.27446126434E+02  0.00000000000E+00 0. -1.
</event>
<event>
 7    1  0.2505412E-009  0.4778728E+02  0.7816164E-02  0.1312668E+00
        -11   -1    0    0    0    0  0.00000000000E+00  0.00000000000E+00  0.45593999997E+02  0.45594000000E+02  0.51100000000E-03 0.  1.
         11   -1    0    0    0    0 -0.00000000000E+00 -0.00000000000E+00 -0.45593999997E+02  0.45594000000E+02  0.51100000000E-03 0. -1.
    9900012    2    1    2    0    0 -0.20368786364E+02  0.34057499749E+02 -0.17573317398E+02  0.47787283054E+02  0.20000054754E+02 0.  0.
        -12    1    1    2    0    0  0.20368786364E+02 -0.34057499749E+02  0.17573317398E+02  0.43400716946E+02  0.00000000000E+00 0.  1.
         11    1    3    3    0    0 -0.50195047731E+01  0.59817018299E+00  0.10780470553E+01  0.51686963007E+01  0.51100000000E-03 0. -1.
        -11    1    3    3    0    0 -0.18185525445E+00  0.39619158124E+01 -0.58452632876E+01  0.70637774173E+01  0.51100000000E-03 0.  1.
        -12    1    3    3    0    0 -0.15167426336E+02  0.29497413754E+02 -0.12806101165E+02  0.35554809336E+02  0.00000000000E+00 0.  1.
</event>
<event>
 7    1  0.2505412E-009  0.4778727E+02  0.7816164E-02  0.1312668E+00
        -11   -1    0    0    0    0  0.00000000000E+00  0.00000000000E+00  0.45593999997E+02  0.45594000000E+02  0.51100000000E-03 0.  1.
         11   -1    0    0    0    0 -0.00000000000E+00 -0.00000000000E+00 -0.45593999997E+02  0.45594000000E+02  0.51100000000E-03 0. -1.
    9900012    2    1    2    0    0 -0.62194899131E+00 -0.24203466057E+01 -0.43328723891E+02  0.47787271754E+02  0.20000003235E+02 0.  0.
        -12    1    1    2    0    0  0.62194899131E+00  0.24203466057E+01  0.43328723891E+02  0.43400728246E+02  0.00000000000E+00 0.  1.
         11    1    3    3    0    0  0.48149753224E+01 -0.18433554432E+01 -0.19642194819E+02  0.20307578985E+02  0.51100000000E-03 0. -1.
        -11    1    3    3    0    0 -0.65401725868E+01 -0.48303994680E+01 -0.89030521040E+01  0.12056987746E+02  0.51100000000E-03 0.  1.
         12    1    3    3    0    0  0.11032482731E+01  0.42534083055E+01 -0.14783476968E+02  0.15422705023E+02  0.00000000000E+00 0. -1.
</event>
<event>
 7    1  0.2505412E-009  0.4778727E+02  0.7816164E-02  0.1312668E+00
        -11   -1    0    0    0    0  0.00000000000E+00  0.00000000000E+00  0.45593999997E+02  0.45594000000E+02  0.51100000000E-03 0.  1.
         11   -1    0    0    0    0 -0.00000000000E+00 -0.00000000000E+00 -0.45593999997E+02  0.45594000000E+02  0.51100000000E-03 0. -1.
    9900012    2    1    2    0    0  0.35237397631E+02 -0.25309356170E+02 -0.11770532230E+01  0.47787272405E+02  0.20000006201E+02 0.  0.
        -12    1    1    2    0    0 -0.35237397631E+02  0.25309356170E+02  0.11770532230E+01  0.43400727595E+02  0.00000000000E+00 0.  1.
         11    1    3    3    0    0  0.75140116046E+01 -0.88219948478E+01 -0.20456728131E-01  0.11588286423E+02  0.51100000000E-03 0. -1.
        -11    1    3    3    0    0  0.96961116398E+01 -0.11726041160E+02  0.58204974924E+01  0.16290881300E+02  0.51100000000E-03 0.  1.
         12    1    3    3    0    0  0.18027274386E+02 -0.47613201621E+01 -0.69770939873E+01  0.19908104681E+02  0.00000000000E+00 0. -1.
</event>
<event>
 7    1  0.2505412E-009  0.4778725E+02  0.7816164E-02  0.1312668E+00
        -11   -1    0    0    0    0  0.00000000000E+00  0.00000000000E+00  0.45593999997E+02  0.45594000000E+02  0.51100000000E-03 0.  1.
         11   -1    0    0    0    0 -0.00000000000E+00 -0.00000000000E+00 -0.45593999997E+02  0.45594000000E+02  0.51100000000E-03 0. -1.
    9900012    2    1    2    0    0  0.28462327391E+02 -0.32752177012E+02 -0.90342962983E+00  0.47787246958E+02  0.19999890179E+02 0.  0.
        -12    1    1    2    0    0 -0.28462327391E+02  0.32752177012E+02  0.90342962983E+00  0.43400753042E+02  0.00000000000E+00 0.  1.
         11    1    3    3    0    0  0.54969751068E+01 -0.80390083574E+01 -0.21545191378E+01  0.99741838599E+01  0.51100000000E-03 0. -1.
        -11    1    3    3    0    0  0.99432986565E+00 -0.11611706014E+02  0.34060171647E+01  0.12141719880E+02  0.51100000000E-03 0.  1.
         12    1    3    3    0    0  0.21971022419E+02 -0.13101462640E+02 -0.21549276567E+01  0.25671343218E+02  0.00000000000E+00 0. -1.
</event>
<event>
 7    1  0.2505412E-009  0.4778727E+02  0.7816164E-02  0.1312668E+00
        -11   -1    0    0    0    0  0.00000000000E+00  0.00000000000E+00  0.45593999997E+02  0.45594000000E+02  0.51100000000E-03 0.  1.
         11   -1    0    0    0    0 -0.00000000000E+00 -0.00000000000E+00 -0.45593999997E+02  0.45594000000E+02  0.51100000000E-03 0. -1.
    9900012    2    1    2    0    0  0.28853606844E+02  0.88570171119E+01 -0.31187269511E+02  0.47787272361E+02  0.20000006002E+02 0.  0.
        -12    1    1    2    0    0 -0.28853606844E+02 -0.88570171119E+01  0.31187269511E+02  0.43400727639E+02  0.00000000000E+00 0.  1.
         11    1    3    3    0    0  0.15063501538E+02  0.32466229876E+01 -0.17807865559E+02  0.23549303927E+02  0.51100000000E-03 0. -1.
        -11    1    3    3    0    0  0.52074898435E+01  0.52691866668E+01  0.10131355552E+01  0.74772135528E+01  0.51100000000E-03 0.  1.
        -12    1    3    3    0    0  0.85826154624E+01  0.34120745751E+00 -0.14392539507E+02  0.16760754881E+02  0.00000000000E+00 0.  1.
</event>
<event>
 7    1  0.2505412E-009  0.4778727E+02  0.7816164E-02  0.1312668E+00
        -11   -1    0    0    0    0  0.00000000000E+00  0.00000000000E+00  0.45593999997E+02  0.45594000000E+02  0.51100000000E-03 0.  1.
         11   -1    0    0    0    0 -0.00000000000E+00 -0.00000000000E+00 -0.45593999997E+02  0.45594000000E+02  0.51100000000E-03 0. -1.
    9900012    2    1    2    0    0 -0.98582112927E+01 -0.36745785290E+02 -0.20885077883E+02  0.47787267925E+02  0.19999985779E+02 0.  0.
        -12    1    1    2    0    0  0.98582112927E+01  0.36745785290E+02  0.20885077883E+02  0.43400732075E+02  0.00000000000E+00 0.  1.
         11    1    3    3    0    0  0.15465209480E+01 -0.14787459323E+02 -0.72022279968E+01  0.16520677004E+02  0.51100000000E-03 0. -1.
        -11    1    3    3    0    0 -0.39652795896E+01 -0.34377514434E+01  0.22677888199E+01  0.57170310129E+01  0.51100000000E-03 0.  1.
         12    1    3    3    0    0 -0.74394526511E+01 -0.18520574523E+02 -0.15950638706E+02  0.25549559909E+02  0.00000000000E+00 0. -1.
</event>
<event>
 7    1  0.2505412E-009  0.4778728E+02  0.7816164E-02  0.1312668E+00
        -11   -1    0    0    0    0  0.00000000000E+00  0.00000000000E+00  0.45593999997E+02  0.45594000000E+02  0.51100000000E-03 0.  1.
         11   -1    0    0    0    0 -0.00000000000E+00 -0.00000000000E+00 -0.45593999997E+02  0.45594000000E+02  0.51100000000E-03 0. -1.
    9900012    2    1    2    0    0  0.27934024521E+02  0.20557653453E+02 -0.26090150118E+02  0.47787276796E+02  0.20000026225E+02 0.  0.
        -12    1    1    2    0    0 -0.27934024521E+02 -0.20557653453E+02  0.26090150118E+02  0.43400723204E+02  0.00000000000E+00 0.  1.
         11    1    3    3    0    0  0.19642010393E+00  0.61318568382E+01 -0.78271338634E+00  0.61847303618E+01  0.51100000000E-03 0. -1.
        -11    1    3    3    0    0  0.10949972232E+01  0.17561867498E+00  0.10353383188E+01  0.15171639771E+01  0.51100000000E-03 0.  1.
         12    1    3    3    0    0  0.26642607194E+02  0.14250177940E+02 -0.26342775050E+02  0.40085382457E+02  0.00000000000E+00 0. -1.
</event>
<event>
 7    1  0.2505412E-009  0.4778727E+02  0.7816164E-02  0.1312668E+00
        -11   -1    0    0    0    0  0.00000000000E+00  0.00000000000E+00  0.45593999997E+02  0.45594000000E+02  0.51100000000E-03 0. -1.
         11   -1    0    0    0    0 -0.00000000000E+00 -0.00000000000E+00 -0.45593999997E+02  0.45594000000E+02  0.51100000000E-03 0.  1.
    9900012    2    1    2    0    0  0.34521913434E+02  0.10714502898E+02  0.24022082105E+02  0.47787268345E+02  0.19999987694E+02 0.  0.
        -12    1    1    2    0    0 -0.34521913434E+02 -0.10714502898E+02 -0.24022082105E+02  0.43400731655E+02  0.00000000000E+00 0.  1.
         11    1    3    3    0    0  0.14990106215E+02  0.22309372042E+00  0.35516599972E+01  0.15406730482E+02  0.51100000000E-03 0. -1.
        -11    1    3    3    0    0  0.12102541734E+02  0.17194603399E+01  0.15790420608E+02  0.19969112237E+02  0.51100000000E-03 0.  1.
         12    1    3    3    0    0  0.74292654841E+01  0.87719488373E+01  0.46800015003E+01  0.12411425626E+02  0.00000000000E+00 0. -1.
</event>
<event>
 7    1  0.2505412E-009  0.4778727E+02  0.7816164E-02  0.1312668E+00
        -11   -1    0    0    0    0  0.00000000000E+00  0.00000000000E+00  0.45593999997E+02  0.45594000000E+02  0.51100000000E-03 0.  1.
         11   -1    0    0    0    0 -0.00000000000E+00 -0.00000000000E+00 -0.45593999997E+02  0.45594000000E+02  0.51100000000E-03 0. -1.
    9900012    2    1    2    0    0  0.36151493478E+02 -0.18235567941E+02 -0.15625519380E+02  0.47787271035E+02  0.19999999958E+02 0.  0.
        -12    1    1    2    0    0 -0.36151493478E+02  0.18235567941E+02  0.15625519380E+02  0.43400728965E+02  0.00000000000E+00 0.  1.
         11    1    3    3    0    0  0.19218146352E+02 -0.12029508363E+01 -0.22990542716E+01  0.19392521515E+02  0.51100000000E-03 0. -1.
        -11    1    3    3    0    0  0.52496567770E+01 -0.40489796621E+01 -0.74343799441E+01  0.99610811659E+01  0.51100000000E-03 0.  1.
        -12    1    3    3    0    0  0.11683690349E+02 -0.12983637442E+02 -0.58920851639E+01  0.18433668354E+02  0.00000000000E+00 0.  1.
</event>
<event>
 7    1  0.2505412E-009  0.4778727E+02  0.7816164E-02  0.1312668E+00
        -11   -1    0    0    0    0  0.00000000000E+00  0.00000000000E+00  0.45593999997E+02  0.45594000000E+02  0.51100000000E-03 0.  1.
         11   -1    0    0    0    0 -0.00000000000E+00 -0.00000000000E+00 -0.45593999997E+02  0.45594000000E+02  0.51100000000E-03 0. -1.
    9900012    2    1    2    0    0  0.27014733607E+02 -0.29140293698E+02 -0.17454809991E+02  0.47787274885E+02  0.20000017510E+02 0.  0.
        -12    1    1    2    0    0 -0.27014733607E+02  0.29140293698E+02  0.17454809991E+02  0.43400725115E+02  0.00000000000E+00 0.  1.
         11    1    3    3    0    0  0.10462860105E+02 -0.43113870916E+01 -0.69613197512E+01  0.13286063118E+02  0.51100000000E-03 0. -1.
        -11    1    3    3    0    0  0.38423139914E+01 -0.12696355991E+02 -0.10520389243E+02  0.16930428889E+02  0.51100000000E-03 0.  1.
        -12    1    3    3    0    0  0.12709559511E+02 -0.12132550616E+02  0.26899003570E-01  0.17570782879E+02  0.00000000000E+00 0.  1.
</event>
<event>
 7    1  0.2505412E-009  0.4778729E+02  0.7816164E-02  0.1312668E+00
        -11   -1    0    0    0    0  0.00000000000E+00  0.00000000000E+00  0.45593999997E+02  0.45594000000E+02  0.51100000000E-03 0.  1.
         11   -1    0    0    0    0 -0.00000000000E+00 -0.00000000000E+00 -0.45593999997E+02  0.45594000000E+02  0.51100000000E-03 0. -1.
    9900012    2    1    2    0    0 -0.10240057638E+01  0.23084630996E+02 -0.36737889373E+02  0.47787293881E+02  0.20000104123E+02 0.  0.
        -12    1    1    2    0    0  0.10240057638E+01 -0.23084630996E+02  0.36737889373E+02  0.43400706119E+02  0.00000000000E+00 0.  1.
         11    1    3    3    0    0  0.24784361954E+01  0.24212618378E+01 -0.12379685387E+01  0.36793642421E+01  0.51100000000E-03 0.  1.
        -11    1    3    3    0    0 -0.33160251255E+01  0.21702628186E+02 -0.36538426878E+02  0.42626948422E+02  0.51100000000E-03 0. -1.
         12    1    3    3    0    0 -0.18641683375E+00 -0.10392590275E+01  0.10385060441E+01  0.14809812172E+01  0.00000000000E+00 0. -1.
</event>
<event>
 7    1  0.2505412E-009  0.4778727E+02  0.7816164E-02  0.1312668E+00
        -11   -1    0    0    0    0  0.00000000000E+00  0.00000000000E+00  0.45593999997E+02  0.45594000000E+02  0.51100000000E-03 0.  1.
         11   -1    0    0    0    0 -0.00000000000E+00 -0.00000000000E+00 -0.45593999997E+02  0.45594000000E+02  0.51100000000E-03 0. -1.
    9900012    2    1    2    0    0 -0.36163418027E+02 -0.15256370965E+02 -0.18522241435E+02  0.47787273206E+02  0.20000009858E+02 0.  0.
        -12    1    1    2    0    0  0.36163418027E+02  0.15256370965E+02  0.18522241435E+02  0.43400726794E+02  0.00000000000E+00 0.  1.
         11    1    3    3    0    0 -0.13451389718E+02 -0.98239195228E+01 -0.15350720400E+02  0.22651576042E+02  0.51100000000E-03 0. -1.
        -11    1    3    3    0    0 -0.34873079753E+01 -0.31122737635E+01  0.20134029911E+01  0.50893375561E+01  0.51100000000E-03 0.  1.
        -12    1    3    3    0    0 -0.19224720334E+02 -0.23201776788E+01 -0.51849240253E+01  0.20046359608E+02  0.00000000000E+00 0.  1.
</event>
<event>
 7    1  0.2934633E-009  0.4778728E+02  0.7816164E-02  0.1312668E+00
        -11   -1    0    0    0    0  0.00000000000E+00  0.00000000000E+00  0.45593999997E+02  0.45594000000E+02  0.51100000000E-03 0. -1.
         11   -1    0    0    0    0 -0.00000000000E+00 -0.00000000000E+00 -0.45593999997E+02  0.45594000000E+02  0.51100000000E-03 0.  1.
    9900012    2    1    2    0    0  0.27953334690E+01 -0.37838907237E+02  0.21071923675E+02  0.47787276994E+02  0.20000027126E+02 0.  0.
        -12    1    1    2    0    0 -0.27953334690E+01  0.37838907237E+02 -0.21071923675E+02  0.43400723006E+02  0.00000000000E+00 0.  1.
         11    1    3    3    0    0  0.39607428470E+00 -0.82946772160E+01  0.85126848305E+01  0.11892196948E+02  0.51100000000E-03 0. -1.
        -11    1    3    3    0    0 -0.95048010437E+00 -0.47446560961E+01 -0.36658409115E+01  0.60707136112E+01  0.51100000000E-03 0.  1.
        -12    1    3    3    0    0  0.33497392887E+01 -0.24799573925E+02  0.16225079756E+02  0.29824366435E+02  0.00000000000E+00 0.  1.
</event>
<event>
 7    1  0.3163262E-009  0.4778727E+02  0.7816164E-02  0.1312668E+00
        -11   -1    0    0    0    0  0.00000000000E+00  0.00000000000E+00  0.45593999997E+02  0.45594000000E+02  0.51100000000E-03 0. -1.
         11   -1    0    0    0    0 -0.00000000000E+00 -0.00000000000E+00 -0.45593999997E+02  0.45594000000E+02  0.51100000000E-03 0.  1.
    9900012    2    1    2    0    0 -0.17204586466E+02 -0.68491412423E+01  0.39251935088E+02  0.47787274898E+02  0.20000017568E+02 0.  0.
        -12    1    1    2    0    0  0.17204586466E+02  0.68491412423E+01 -0.39251935088E+02  0.43400725102E+02  0.00000000000E+00 0.  1.
         11    1    3    3    0    0 -0.32925361852E+01  0.27532822397E+00  0.24752600433E+02  0.24972141050E+02  0.51100000000E-03 0. -1.
        -11    1    3    3    0    0 -0.95089309826E+01 -0.76707692821E+01  0.13611576930E+02  0.18290311550E+02  0.51100000000E-03 0.  1.
        -12    1    3    3    0    0 -0.44031192986E+01  0.54629981575E+00  0.88775772507E+00  0.45248222976E+01  0.00000000000E+00 0.  1.
</event>
<event>
 7    1  0.2505412E-009  0.4778727E+02  0.7816164E-02  0.1312668E+00
        -11   -1    0    0    0    0  0.00000000000E+00  0.00000000000E+00  0.45593999997E+02  0.45594000000E+02  0.51100000000E-03 0. -1.
         11   -1    0    0    0    0 -0.00000000000E+00 -0.00000000000E+00 -0.45593999997E+02  0.45594000000E+02  0.51100000000E-03 0.  1.
    9900012    2    1    2    0    0  0.35613772127E+02 -0.23163120295E+02 -0.88742370913E+01  0.47787274305E+02  0.20000014865E+02 0.  0.
        -12    1    1    2    0    0 -0.35613772127E+02  0.23163120295E+02  0.88742370913E+01  0.43400725695E+02  0.00000000000E+00 0.  1.
         11    1    3    3    0    0  0.20893604511E+02 -0.14798848519E+02  0.14801287602E+01  0.25646430714E+02  0.51100000000E-03 0. -1.
        -11    1    3    3    0    0  0.16183996573E+02 -0.80340336318E+01 -0.96317333266E+01  0.20475295568E+02  0.51100000000E-03 0.  1.
        -12    1    3    3    0    0 -0.14638289576E+01 -0.33023814489E+00 -0.72263252497E+00  0.16655480226E+01  0.00000000000E+00 0.  1.
</event>
<event>
 7    1  0.2505412E-009  0.4778727E+02  0.7816164E-02  0.1312668E+00
        -11   -1    0    0    0    0  0.00000000000E+00  0.00000000000E+00  0.45593999997E+02  0.45594000000E+02  0.51100000000E-03 0.  1.
         11   -1    0    0    0    0 -0.00000000000E+00 -0.00000000000E+00 -0.45593999997E+02  0.45594000000E+02  0.51100000000E-03 0. -1.
    9900012    2    1    2    0    0 -0.41361725751E+02 -0.43103321965E+01 -0.12419834459E+02  0.47787267186E+02  0.19999982409E+02 0.  0.
        -12    1    1    2    0    0  0.41361725751E+02  0.43103321965E+01  0.12419834459E+02  0.43400732814E+02  0.00000000000E+00 0.  1.
         11    1    3    3    0    0 -0.21600921514E+01 -0.21950175211E+01 -0.38258641905E+01  0.49113477871E+01  0.51100000000E-03 0. -1.
        -11    1    3    3    0    0 -0.30927083328E+02 -0.68778533802E+01 -0.30337009382E+01  0.31827546118E+02  0.51100000000E-03 0.  1.
        -12    1    3    3    0    0 -0.82745502724E+01  0.47625387049E+01 -0.55602693305E+01  0.11048373281E+02  0.00000000000E+00 0.  1.
</event>
<event>
 7    1  0.2505412E-009  0.4778727E+02  0.7816164E-02  0.1312668E+00
        -11   -1    0    0    0    0  0.00000000000E+00  0.00000000000E+00  0.45593999997E+02  0.45594000000E+02  0.51100000000E-03 0.  1.
         11   -1    0    0    0    0 -0.00000000000E+00 -0.00000000000E+00 -0.45593999997E+02  0.45594000000E+02  0.51100000000E-03 0. -1.
    9900012    2    1    2    0    0  0.41839881020E+02  0.10147561941E+02  0.54840257830E+01  0.47787271943E+02  0.20000004095E+02 0.  0.
        -12    1    1    2    0    0 -0.41839881020E+02 -0.10147561941E+02 -0.54840257830E+01  0.43400728057E+02  0.00000000000E+00 0.  1.
         11    1    3    3    0    0  0.34334272077E+02  0.41463923210E+01  0.55703652751E+01  0.35029470134E+02  0.51100000000E-03 0. -1.
        -11    1    3    3    0    0  0.49669236107E+01  0.56248765735E+01  0.35545683922E+01  0.83032838888E+01  0.51100000000E-03 0.  1.
        -12    1    3    3    0    0  0.25386853328E+01  0.37629304623E+00 -0.36409078842E+01  0.44545179197E+01  0.00000000000E+00 0.  1.
</event>
<event>
 7    1  0.2505412E-009  0.4778727E+02  0.7816164E-02  0.1312668E+00
        -11   -1    0    0    0    0  0.00000000000E+00  0.00000000000E+00  0.45593999997E+02  0.45594000000E+02  0.51100000000E-03 0.  1.
         11   -1    0    0    0    0 -0.00000000000E+00 -0.00000000000E+00 -0.45593999997E+02  0.45594000000E+02  0.51100000000E-03 0. -1.
    9900012    2    1    2    0    0  0.34550227138E+02 -0.26264316024E+02 -0.30165863661E+00  0.47787268561E+02  0.19999988679E+02 0.  0.
        -12    1    1    2    0    0 -0.34550227138E+02  0.26264316024E+02  0.30165863661E+00  0.43400731439E+02  0.00000000000E+00 0.  1.
         11    1    3    3    0    0  0.11465664395E+02 -0.67175727956E+01 -0.30925361109E+01  0.13643717387E+02  0.51100000000E-03 0. -1.
        -11    1    3    3    0    0  0.11972102885E+02 -0.30030839178E+01 -0.41779123932E+01  0.13030913734E+02  0.51100000000E-03 0.  1.
         12    1    3    3    0    0  0.11112459857E+02 -0.16543659311E+02  0.69687898675E+01  0.21112637440E+02  0.00000000000E+00 0. -1.
</event>
<event>
 7    1  0.2505412E-009  0.4778726E+02  0.7816164E-02  0.1312668E+00
        -11   -1    0    0    0    0  0.00000000000E+00  0.00000000000E+00  0.45593999997E+02  0.45594000000E+02  0.51100000000E-03 0.  1.
         11   -1    0    0    0    0 -0.00000000000E+00 -0.00000000000E+00 -0.45593999997E+02  0.45594000000E+02  0.51100000000E-03 0. -1.
    9900012    2    1    2    0    0 -0.14356225179E+02  0.31316875297E+02 -0.26396519491E+02  0.47787261285E+02  0.19999955503E+02 0.  0.
        -12    1    1    2    0    0  0.14356225179E+02 -0.31316875297E+02  0.26396519491E+02  0.43400738715E+02  0.00000000000E+00 0.  1.
         11    1    3    3    0    0 -0.37432463891E+01  0.15822076683E+02 -0.39693314746E+01  0.16736355538E+02  0.51100000000E-03 0. -1.
        -11    1    3    3    0    0 -0.10560219658E+02  0.11189830111E+02 -0.11212279300E+02  0.19038007892E+02  0.51100000000E-03 0.  1.
        -12    1    3    3    0    0 -0.52759131624E-01  0.43049685037E+01 -0.11214908717E+02  0.12012897855E+02  0.00000000000E+00 0.  1.
</event>
<event>
 7    1  0.2505412E-009  0.4778727E+02  0.7816164E-02  0.1312668E+00
        -11   -1    0    0    0    0  0.00000000000E+00  0.00000000000E+00  0.45593999997E+02  0.45594000000E+02  0.51100000000E-03 0.  1.
         11   -1    0    0    0    0 -0.00000000000E+00 -0.00000000000E+00 -0.45593999997E+02  0.45594000000E+02  0.51100000000E-03 0. -1.
    9900012    2    1    2    0    0  0.78405278412E+01 -0.29791253470E+02 -0.30571730826E+02  0.47787269754E+02  0.19999994118E+02 0.  0.
        -12    1    1    2    0    0 -0.78405278412E+01  0.29791253470E+02  0.30571730826E+02  0.43400730246E+02  0.00000000000E+00 0.  1.
         11    1    3    3    0    0  0.29492650874E+01  0.63872987340E+00 -0.26374076582E+01  0.40077499702E+01  0.51100000000E-03 0. -1.
        -11    1    3    3    0    0 -0.20827203866E+01  0.31280574655E+00 -0.10738056614E+01  0.23640284481E+01  0.51100000000E-03 0.  1.
        -12    1    3    3    0    0  0.69739831404E+01 -0.30742789090E+02 -0.26860517506E+02  0.41415491336E+02  0.00000000000E+00 0.  1.
</event>
<event>
 7    1  0.2505412E-009  0.4778727E+02  0.7816164E-02  0.1312668E+00
        -11   -1    0    0    0    0  0.00000000000E+00  0.00000000000E+00  0.45593999997E+02  0.45594000000E+02  0.51100000000E-03 0.  1.
         11   -1    0    0    0    0 -0.00000000000E+00 -0.00000000000E+00 -0.45593999997E+02  0.45594000000E+02  0.51100000000E-03 0. -1.
    9900012    2    1    2    0    0 -0.27510691952E+02  0.29632633808E+02  0.15769984756E+02  0.47787267549E+02  0.19999984062E+02 0.  0.
        -12    1    1    2    0    0  0.27510691952E+02 -0.29632633808E+02 -0.15769984756E+02  0.43400732451E+02  0.00000000000E+00 0.  1.
         11    1    3    3    0    0 -0.19743680502E+02  0.14748938625E+02  0.11747089239E+02  0.27300883066E+02  0.51100000000E-03 0. -1.
        -11    1    3    3    0    0 -0.70049842391E+01  0.54752708087E+01 -0.22270112514E+01  0.91655863966E+01  0.51100000000E-03 0.  1.
         12    1    3    3    0    0 -0.76202721028E+00  0.94084243746E+01  0.62499067689E+01  0.11320798086E+02  0.00000000000E+00 0. -1.
</event>
<event>
 7    1  0.5401062E-009  0.4778727E+02  0.7816164E-02  0.1312668E+00
        -11   -1    0    0    0    0  0.00000000000E+00  0.00000000000E+00  0.45593999997E+02  0.45594000000E+02  0.51100000000E-03 0. -1.
         11   -1    0    0    0    0 -0.00000000000E+00 -0.00000000000E+00 -0.45593999997E+02  0.45594000000E+02  0.51100000000E-03 0.  1.
    9900012    2    1    2    0    0  0.28885008761E+02 -0.17506367628E+02  0.27254480431E+02  0.47787270257E+02  0.19999996409E+02 0.  0.
        -12    1    1    2    0    0 -0.28885008761E+02  0.17506367628E+02 -0.27254480431E+02  0.43400729743E+02  0.00000000000E+00 0.  1.
         11    1    3    3    0    0  0.15857457365E+02 -0.13320557537E+02  0.19667111611E+02  0.28560313138E+02  0.51100000000E-03 0. -1.
        -11    1    3    3    0    0  0.14121391784E+02 -0.57360609358E+01  0.50460029866E+01  0.16055474062E+02  0.51100000000E-03 0.  1.
        -12    1    3    3    0    0 -0.10938403875E+01  0.15502508445E+01  0.25413658335E+01  0.31714830559E+01  0.00000000000E+00 0.  1.
</event>
<event>
 7    1  0.2505412E-009  0.4778727E+02  0.7816164E-02  0.1312668E+00
        -11   -1    0    0    0    0  0.00000000000E+00  0.00000000000E+00  0.45593999997E+02  0.45594000000E+02  0.51100000000E-03 0.  1.
         11   -1    0    0    0    0 -0.00000000000E+00 -0.00000000000E+00 -0.45593999997E+02  0.45594000000E+02  0.51100000000E-03 0. -1.
    9900012    2    1    2    0    0  0.43113637200E+02 -0.10437900366E+00 -0.49826282912E+01  0.47787271984E+02  0.20000004285E+02 0.  0.
        -12    1    1    2    0    0 -0.43113637200E+02  0.10437900366E+00  0.49826282912E+01  0.43400728016E+02  0.00000000000E+00 0.  1.
         11    1    3    3    0    0  0.21576771253E+02  0.60102595003E+01 -0.21159458887E+01  0.22497944445E+02  0.51100000000E-03 0. -1.
        -11    1    3    3    0    0 -0.90308763056E-01 -0.63023061761E+00 -0.29086919709E+01  0.29775552970E+01  0.51100000000E-03 0.  1.
         12    1    3    3    0    0  0.21627174710E+02 -0.54844078863E+01  0.42009568303E-01  0.22311772242E+02  0.00000000000E+00 0. -1.
</event>
<event>
 7    1  0.2505412E-009  0.4778726E+02  0.7816164E-02  0.1312668E+00
        -11   -1    0    0    0    0  0.00000000000E+00  0.00000000000E+00  0.45593999997E+02  0.45594000000E+02  0.51100000000E-03 0.  1.
         11   -1    0    0    0    0 -0.00000000000E+00 -0.00000000000E+00 -0.45593999997E+02  0.45594000000E+02  0.51100000000E-03 0. -1.
    9900012    2    1    2    0    0  0.10305173451E+02 -0.10905822796E+02 -0.40724570002E+02  0.47787260691E+02  0.19999952795E+02 0.  0.
        -12    1    1    2    0    0 -0.10305173451E+02  0.10905822796E+02  0.40724570002E+02  0.43400739309E+02  0.00000000000E+00 0.  1.
         11    1    3    3    0    0  0.10282459394E+02 -0.11813461493E+01 -0.27079540690E+02  0.28990103039E+02  0.51100000000E-03 0. -1.
        -11    1    3    3    0    0  0.34070524744E+01 -0.83213298471E+01 -0.11325402177E+02  0.14460887653E+02  0.51100000000E-03 0.  1.
        -12    1    3    3    0    0 -0.33843384174E+01 -0.14031468000E+01 -0.23196271346E+01  0.43362699996E+01  0.00000000000E+00 0.  1.
</event>
<event>
 7    1  0.2505412E-009  0.4778728E+02  0.7816164E-02  0.1312668E+00
        -11   -1    0    0    0    0  0.00000000000E+00  0.00000000000E+00  0.45593999997E+02  0.45594000000E+02  0.51100000000E-03 0.  1.
         11   -1    0    0    0    0 -0.00000000000E+00 -0.00000000000E+00 -0.45593999997E+02  0.45594000000E+02  0.51100000000E-03 0. -1.
    9900012    2    1    2    0    0  0.33762325110E+02  0.22278630100E+02  0.15728664643E+02  0.47787275957E+02  0.20000022399E+02 0.  0.
        -12    1    1    2    0    0 -0.33762325110E+02 -0.22278630100E+02 -0.15728664643E+02  0.43400724043E+02  0.00000000000E+00 0.  1.
         11    1    3    3    0    0  0.21462370000E+01  0.35431316640E+01  0.16066865678E+01  0.44431472221E+01  0.51100000000E-03 0. -1.
        -11    1    3    3    0    0  0.20839421158E+02  0.13637326308E+02  0.18087545675E+02  0.30780147040E+02  0.51100000000E-03 0.  1.
         12    1    3    3    0    0  0.10776666952E+02  0.50981721284E+01 -0.39655675991E+01  0.12563981695E+02  0.00000000000E+00 0. -1.
</event>
<event>
 7    1  0.2505412E-009  0.4778727E+02  0.7816164E-02  0.1312668E+00
        -11   -1    0    0    0    0  0.00000000000E+00  0.00000000000E+00  0.45593999997E+02  0.45594000000E+02  0.51100000000E-03 0. -1.
         11   -1    0    0    0    0 -0.00000000000E+00 -0.00000000000E+00 -0.45593999997E+02  0.45594000000E+02  0.51100000000E-03 0.  1.
    9900012    2    1    2    0    0 -0.48326145151E+01 -0.43045782280E+02 -0.27073524471E+01  0.47787270831E+02  0.19999999025E+02 0.  0.
        -12    1    1    2    0    0  0.48326145151E+01  0.43045782280E+02  0.27073524471E+01  0.43400729169E+02  0.00000000000E+00 0.  1.
         11    1    3    3    0    0  0.23865554546E+01 -0.22172134591E+02 -0.15793678269E+01  0.22356064104E+02  0.51100000000E-03 0. -1.
        -11    1    3    3    0    0  0.94127930912E+00 -0.78411640441E+01 -0.52849369579E+01  0.95026532723E+01  0.51100000000E-03 0.  1.
         12    1    3    3    0    0 -0.81604492788E+01 -0.13032483646E+02  0.41569523378E+01  0.15928553454E+02  0.00000000000E+00 0. -1.
</event>
<event>
 7    1  0.2505412E-009  0.4778727E+02  0.7816164E-02  0.1312668E+00
        -11   -1    0    0    0    0  0.00000000000E+00  0.00000000000E+00  0.45593999997E+02  0.45594000000E+02  0.51100000000E-03 0.  1.
         11   -1    0    0    0    0 -0.00000000000E+00 -0.00000000000E+00 -0.45593999997E+02  0.45594000000E+02  0.51100000000E-03 0. -1.
    9900012    2    1    2    0    0  0.22435063706E+01  0.23392992807E+02 -0.36487780343E+02  0.47787267890E+02  0.19999985619E+02 0.  0.
        -12    1    1    2    0    0 -0.22435063706E+01 -0.23392992807E+02  0.36487780343E+02  0.43400732110E+02  0.00000000000E+00 0.  1.
         11    1    3    3    0    0  0.34714972287E+01  0.10057265584E+02 -0.23915354309E+02  0.26175256561E+02  0.51100000000E-03 0. -1.
        -11    1    3    3    0    0 -0.51705043714E+01  0.95979514299E+01 -0.11898241657E+02  0.16137625039E+02  0.51100000000E-03 0.  1.
         12    1    3    3    0    0  0.39425135133E+01  0.37377757932E+01 -0.67418437659E+00  0.54743862904E+01  0.00000000000E+00 0. -1.
</event>
<event>
 7    1  0.2505412E-009  0.4778727E+02  0.7816164E-02  0.1312668E+00
        -11   -1    0    0    0    0  0.00000000000E+00  0.00000000000E+00  0.45593999997E+02  0.45594000000E+02  0.51100000000E-03 0.  1.
         11   -1    0    0    0    0 -0.00000000000E+00 -0.00000000000E+00 -0.45593999997E+02  0.45594000000E+02  0.51100000000E-03 0. -1.
    9900012    2    1    2    0    0 -0.60800443762E+00  0.43214229249E+02  0.39728748239E+01  0.47787274046E+02  0.20000013686E+02 0.  0.
        -12    1    1    2    0    0  0.60800443762E+00 -0.43214229249E+02 -0.39728748239E+01  0.43400725954E+02  0.00000000000E+00 0.  1.
         11    1    3    3    0    0 -0.16785864815E+01  0.34606661727E+01 -0.18324592990E+01  0.42604894412E+01  0.51100000000E-03 0. -1.
        -11    1    3    3    0    0  0.53666319197E+01  0.23968671256E+02  0.10187380955E+02  0.26590988528E+02  0.51100000000E-03 0.  1.
        -12    1    3    3    0    0 -0.42960498758E+01  0.15784891820E+02 -0.43820468318E+01  0.16935796076E+02  0.00000000000E+00 0.  1.
</event>
<event>
 7    1  0.2505412E-009  0.4778727E+02  0.7816164E-02  0.1312668E+00
        -11   -1    0    0    0    0  0.00000000000E+00  0.00000000000E+00  0.45593999997E+02  0.45594000000E+02  0.51100000000E-03 0.  1.
         11   -1    0    0    0    0 -0.00000000000E+00 -0.00000000000E+00 -0.45593999997E+02  0.45594000000E+02  0.51100000000E-03 0. -1.
    9900012    2    1    2    0    0 -0.12031162008E+02 -0.29435028782E+02 -0.29537326250E+02  0.47787269353E+02  0.19999992290E+02 0.  0.
        -12    1    1    2    0    0  0.12031162008E+02  0.29435028782E+02  0.29537326250E+02  0.43400730647E+02  0.00000000000E+00 0.  1.
         11    1    3    3    0    0 -0.93247997077E+01 -0.14487679797E+02 -0.80166225826E+01  0.19002920654E+02  0.51100000000E-03 0. -1.
        -11    1    3    3    0    0 -0.13895320285E+01  0.14547427413E+01 -0.53414036517E+01  0.57076850766E+01  0.51100000000E-03 0.  1.
         12    1    3    3    0    0 -0.13168302715E+01 -0.16402091726E+02 -0.16179300016E+02  0.23076663623E+02  0.00000000000E+00 0. -1.
</event>
<event>
 7    1  0.2505412E-009  0.4778727E+02  0.7816164E-02  0.1312668E+00
        -11   -1    0    0    0    0  0.00000000000E+00  0.00000000000E+00  0.45593999997E+02  0.45594000000E+02  0.51100000000E-03 0.  1.
         11   -1    0    0    0    0 -0.00000000000E+00 -0.00000000000E+00 -0.45593999997E+02  0.45594000000E+02  0.51100000000E-03 0. -1.
    9900012    2    1    2    0    0 -0.33201743822E+02 -0.22334026310E+02 -0.16806513031E+02  0.47787269542E+02  0.19999993149E+02 0.  0.
        -12    1    1    2    0    0  0.33201743822E+02  0.22334026310E+02  0.16806513031E+02  0.43400730458E+02  0.00000000000E+00 0.  1.
         11    1    3    3    0    0 -0.10064079733E+02 -0.72551752828E+01 -0.86386517267E+01  0.15117856103E+02  0.51100000000E-03 0. -1.
        -11    1    3    3    0    0 -0.10934320132E+02 -0.14300003760E+02 -0.67275686998E-01  0.18001499675E+02  0.51100000000E-03 0.  1.
        -12    1    3    3    0    0 -0.12203343957E+02 -0.77884726732E+00 -0.81005856177E+01  0.14667913763E+02  0.00000000000E+00 0.  1.
</event>
<event>
 7    1  0.2505412E-009  0.4778727E+02  0.7816164E-02  0.1312668E+00
        -11   -1    0    0    0    0  0.00000000000E+00  0.00000000000E+00  0.45593999997E+02  0.45594000000E+02  0.51100000000E-03 0.  1.
         11   -1    0    0    0    0 -0.00000000000E+00 -0.00000000000E+00 -0.45593999997E+02  0.45594000000E+02  0.51100000000E-03 0. -1.
    9900012    2    1    2    0    0 -0.11327584498E+02 -0.23794152420E+02 -0.34484016326E+02  0.47787271412E+02  0.20000001677E+02 0.  0.
        -12    1    1    2    0    0  0.11327584498E+02  0.23794152420E+02  0.34484016326E+02  0.43400728588E+02  0.00000000000E+00 0.  1.
         11    1    3    3    0    0 -0.14227654289E+00  0.36266487650E+00 -0.53877739893E+01  0.54018401724E+01  0.51100000000E-03 0. -1.
        -11    1    3    3    0    0 -0.13311624352E+02 -0.10850978353E+02 -0.18506820590E+02  0.25247682720E+02  0.51100000000E-03 0.  1.
         12    1    3    3    0    0  0.21263163963E+01 -0.13305838943E+02 -0.10589421747E+02  0.17137748520E+02  0.00000000000E+00 0. -1.
</event>
<event>
 7    1  0.2505412E-009  0.4778727E+02  0.7816164E-02  0.1312668E+00
        -11   -1    0    0    0    0  0.00000000000E+00  0.00000000000E+00  0.45593999997E+02  0.45594000000E+02  0.51100000000E-03 0.  1.
         11   -1    0    0    0    0 -0.00000000000E+00 -0.00000000000E+00 -0.45593999997E+02  0.45594000000E+02  0.51100000000E-03 0. -1.
    9900012    2    1    2    0    0 -0.29136137332E+02  0.20184364396E+02 -0.25045959899E+02  0.47787272218E+02  0.20000005351E+02 0.  0.
        -12    1    1    2    0    0  0.29136137332E+02 -0.20184364396E+02  0.25045959899E+02  0.43400727782E+02  0.00000000000E+00 0.  1.
         11    1    3    3    0    0 -0.12129309616E+02  0.59784930674E+01 -0.66314923530E+01  0.15061182630E+02  0.51100000000E-03 0. -1.
        -11    1    3    3    0    0  0.21864566777E+01 -0.15818465969E+00 -0.45048671753E+01  0.50099345024E+01  0.51100000000E-03 0.  1.
        -12    1    3    3    0    0 -0.19193284394E+02  0.14364055988E+02 -0.13909600371E+02  0.27716155086E+02  0.00000000000E+00 0.  1.
</event>
<event>
 7    1  0.2505412E-009  0.4778726E+02  0.7816164E-02  0.1312668E+00
        -11   -1    0    0    0    0  0.00000000000E+00  0.00000000000E+00  0.45593999997E+02  0.45594000000E+02  0.51100000000E-03 0.  1.
         11   -1    0    0    0    0 -0.00000000000E+00 -0.00000000000E+00 -0.45593999997E+02  0.45594000000E+02  0.51100000000E-03 0. -1.
    9900012    2    1    2    0    0  0.37819329270E+02 -0.46545321994E+01 -0.20776368940E+02  0.47787264491E+02  0.19999970118E+02 0.  0.
        -12    1    1    2    0    0 -0.37819329270E+02  0.46545321994E+01  0.20776368940E+02  0.43400735509E+02  0.00000000000E+00 0.  1.
         11    1    3    3    0    0  0.65825329258E+01  0.20071206529E+01 -0.11756369092E+02  0.13622425904E+02  0.51100000000E-03 0. -1.
        -11    1    3    3    0    0  0.10060369881E+02 -0.18531087432E+00  0.46859898554E+00  0.10072982058E+02  0.51100000000E-03 0.  1.
        -12    1    3    3    0    0  0.21176426463E+02 -0.64763419780E+01 -0.94885988334E+01  0.24091856528E+02  0.00000000000E+00 0.  1.
</event>
<event>
 7    1  0.2505412E-009  0.4778729E+02  0.7816164E-02  0.1312668E+00
        -11   -1    0    0    0    0  0.00000000000E+00  0.00000000000E+00  0.45593999997E+02  0.45594000000E+02  0.51100000000E-03 0.  1.
         11   -1    0    0    0    0 -0.00000000000E+00 -0.00000000000E+00 -0.45593999997E+02  0.45594000000E+02  0.51100000000E-03 0. -1.
    9900012    2    1    2    0    0  0.68929094543E+01  0.24206181743E+02 -0.35357749903E+02  0.47787286716E+02  0.20000071454E+02 0.  0.
        -12    1    1    2    0    0 -0.68929094543E+01 -0.24206181743E+02  0.35357749903E+02  0.43400713284E+02  0.00000000000E+00 0.  1.
         11    1    3    3    0    0  0.69074421549E+01  0.16096135953E+02 -0.26688047100E+02  0.31922565812E+02  0.51100000000E-03 0. -1.
        -11    1    3    3    0    0  0.39634326788E+01  0.33903803103E-01 -0.43316202554E+01  0.58713612021E+01  0.51100000000E-03 0.  1.
         12    1    3    3    0    0 -0.39779653794E+01  0.80761419867E+01 -0.43380825478E+01  0.99933597023E+01  0.00000000000E+00 0. -1.
</event>
<event>
 7    1  0.2505412E-009  0.4778727E+02  0.7816164E-02  0.1312668E+00
        -11   -1    0    0    0    0  0.00000000000E+00  0.00000000000E+00  0.45593999997E+02  0.45594000000E+02  0.51100000000E-03 0.  1.
         11   -1    0    0    0    0 -0.00000000000E+00 -0.00000000000E+00 -0.45593999997E+02  0.45594000000E+02  0.51100000000E-03 0. -1.
    9900012    2    1    2    0    0  0.13201158279E+02 -0.23004596242E+02 -0.34353182596E+02  0.47787272096E+02  0.20000004793E+02 0.  0.
        -12    1    1    2    0    0 -0.13201158279E+02  0.23004596242E+02  0.34353182596E+02  0.43400727904E+02  0.00000000000E+00 0.  1.
         11    1    3    3    0    0  0.48295577903E+01 -0.13117052026E+02 -0.29037284651E+02  0.32226473318E+02  0.51100000000E-03 0. -1.
        -11    1    3    3    0    0  0.32745944496E+01  0.24005530571E+00 -0.10553328339E+01  0.34488147255E+01  0.51100000000E-03 0.  1.
         12    1    3    3    0    0  0.50970060390E+01 -0.10127599522E+02 -0.42605651107E+01  0.12111984053E+02  0.00000000000E+00 0. -1.
</event>
<event>
 7    1  0.2505412E-009  0.4778727E+02  0.7816164E-02  0.1312668E+00
        -11   -1    0    0    0    0  0.00000000000E+00  0.00000000000E+00  0.45593999997E+02  0.45594000000E+02  0.51100000000E-03 0.  1.
         11   -1    0    0    0    0 -0.00000000000E+00 -0.00000000000E+00 -0.45593999997E+02  0.45594000000E+02  0.51100000000E-03 0. -1.
    9900012    2    1    2    0    0 -0.16200090320E+02 -0.12228104289E+02 -0.38362137739E+02  0.47787273361E+02  0.20000010562E+02 0.  0.
        -12    1    1    2    0    0  0.16200090320E+02  0.12228104289E+02  0.38362137739E+02  0.43400726639E+02  0.00000000000E+00 0.  1.
         11    1    3    3    0    0 -0.55292586886E+00  0.57239446900E+00 -0.16024152715E+00  0.81181281879E+00  0.51100000000E-03 0. -1.
        -11    1    3    3    0    0 -0.13614566629E+02 -0.95160473870E+01 -0.12003330602E+02  0.20493694840E+02  0.51100000000E-03 0.  1.
         12    1    3    3    0    0 -0.20325978219E+01 -0.32844513705E+01 -0.26198565610E+02  0.26481765702E+02  0.00000000000E+00 0. -1.
</event>
<event>
 7    1  0.2505412E-009  0.4778726E+02  0.7816164E-02  0.1312668E+00
        -11   -1    0    0    0    0  0.00000000000E+00  0.00000000000E+00  0.45593999997E+02  0.45594000000E+02  0.51100000000E-03 0.  1.
         11   -1    0    0    0    0 -0.00000000000E+00 -0.00000000000E+00 -0.45593999997E+02  0.45594000000E+02  0.51100000000E-03 0. -1.
    9900012    2    1    2    0    0 -0.38362620931E+02  0.16838583010E+02 -0.11331182365E+02  0.47787259727E+02  0.19999948398E+02 0.  0.
        -12    1    1    2    0    0  0.38362620931E+02 -0.16838583010E+02  0.11331182365E+02  0.43400740273E+02  0.00000000000E+00 0.  1.
         11    1    3    3    0    0 -0.27900574738E+02  0.14699765636E+02 -0.12373692007E+02  0.33876738842E+02  0.51100000000E-03 0. -1.
        -11    1    3    3    0    0 -0.10373013851E+02 -0.89676657902E+00 -0.65339898400E+00  0.10432187553E+02  0.51100000000E-03 0.  1.
        -12    1    3    3    0    0 -0.89032341666E-01  0.30355839534E+01  0.16959086257E+01  0.34783333311E+01  0.00000000000E+00 0.  1.
</event>
<event>
 7    1  0.2505412E-009  0.4778727E+02  0.7816164E-02  0.1312668E+00
        -11   -1    0    0    0    0  0.00000000000E+00  0.00000000000E+00  0.45593999997E+02  0.45594000000E+02  0.51100000000E-03 0.  1.
         11   -1    0    0    0    0 -0.00000000000E+00 -0.00000000000E+00 -0.45593999997E+02  0.45594000000E+02  0.51100000000E-03 0. -1.
    9900012    2    1    2    0    0 -0.32849099985E+02 -0.19330001903E+02  0.20758390073E+02  0.47787273026E+02  0.20000009037E+02 0.  0.
        -12    1    1    2    0    0  0.32849099985E+02  0.19330001903E+02 -0.20758390073E+02  0.43400726974E+02  0.00000000000E+00 0.  1.
         11    1    3    3    0    0 -0.31129515307E+02 -0.16419304837E+02  0.15100008375E+02  0.38296873864E+02  0.51100000000E-03 0. -1.
        -11    1    3    3    0    0  0.14189002859E+01 -0.16729157826E+01 -0.69140287108E+00  0.22999920496E+01  0.51100000000E-03 0.  1.
        -12    1    3    3    0    0 -0.31384849649E+01 -0.12377812833E+01  0.63497845691E+01  0.71904071133E+01  0.00000000000E+00 0.  1.
</event>
<event>
 7    1  0.2505412E-009  0.4778727E+02  0.7816164E-02  0.1312668E+00
        -11   -1    0    0    0    0  0.00000000000E+00  0.00000000000E+00  0.45593999997E+02  0.45594000000E+02  0.51100000000E-03 0. -1.
         11   -1    0    0    0    0 -0.00000000000E+00 -0.00000000000E+00 -0.45593999997E+02  0.45594000000E+02  0.51100000000E-03 0.  1.
    9900012    2    1    2    0    0 -0.39541810593E+02 -0.14362504919E+02  0.10667106122E+02  0.47787268606E+02  0.19999988880E+02 0.  0.
        -12    1    1    2    0    0  0.39541810593E+02  0.14362504919E+02 -0.10667106122E+02  0.43400731394E+02  0.00000000000E+00 0.  1.
         11    1    3    3    0    0 -0.18732475657E+02 -0.14466023577E+01  0.74041446913E+01  0.20194545340E+02  0.51100000000E-03 0. -1.
        -11    1    3    3    0    0 -0.58346235081E+01 -0.92059425364E+01  0.51420673090E+01  0.12051268229E+02  0.51100000000E-03 0.  1.
         12    1    3    3    0    0 -0.14974711428E+02 -0.37099600254E+01 -0.18791058780E+01  0.15541455036E+02  0.00000000000E+00 0. -1.
</event>
<event>
 7    1  0.2505412E-009  0.4778727E+02  0.7816164E-02  0.1312668E+00
        -11   -1    0    0    0    0  0.00000000000E+00  0.00000000000E+00  0.45593999997E+02  0.45594000000E+02  0.51100000000E-03 0.  1.
         11   -1    0    0    0    0 -0.00000000000E+00 -0.00000000000E+00 -0.45593999997E+02  0.45594000000E+02  0.51100000000E-03 0. -1.
    9900012    2    1    2    0    0  0.11580560322E+02 -0.85431077104E+01 -0.40945439513E+02  0.47787273236E+02  0.20000009991E+02 0.  0.
        -12    1    1    2    0    0 -0.11580560322E+02  0.85431077104E+01  0.40945439513E+02  0.43400726764E+02  0.00000000000E+00 0.  1.
         11    1    3    3    0    0  0.70956924371E+01 -0.11971745081E+01 -0.20930418604E+02  0.22132882803E+02  0.51100000000E-03 0. -1.
        -11    1    3    3    0    0  0.95471543723E+00  0.18516612768E+01  0.10987362223E+01  0.23552818510E+01  0.51100000000E-03 0.  1.
         12    1    3    3    0    0  0.35301524473E+01 -0.91975944791E+01 -0.21113757132E+02  0.23299108582E+02  0.00000000000E+00 0. -1.
</event>
<event>
 7    1  0.2505412E-009  0.4778727E+02  0.7816164E-02  0.1312668E+00
        -11   -1    0    0    0    0  0.00000000000E+00  0.00000000000E+00  0.45593999997E+02  0.45594000000E+02  0.51100000000E-03 0.  1.
         11   -1    0    0    0    0 -0.00000000000E+00 -0.00000000000E+00 -0.45593999997E+02  0.45594000000E+02  0.51100000000E-03 0. -1.
    9900012    2    1    2    0    0  0.39503153292E+02  0.39047036230E+01 -0.17546444900E+02  0.47787267759E+02  0.19999985023E+02 0.  0.
        -12    1    1    2    0    0 -0.39503153292E+02 -0.39047036230E+01  0.17546444900E+02  0.43400732241E+02  0.00000000000E+00 0.  1.
         11    1    3    3    0    0  0.94922130144E+01  0.41104367532E+01 -0.11587513007E+02  0.15532812243E+02  0.51100000000E-03 0. -1.
        -11    1    3    3    0    0  0.15653997498E+02 -0.37838227859E+01 -0.66928634901E+01  0.17440165553E+02  0.51100000000E-03 0.  1.
         12    1    3    3    0    0  0.14356942779E+02  0.35780896558E+01  0.73393159709E+00  0.14814289964E+02  0.00000000000E+00 0. -1.
</event>
<event>
 7    1  0.2505412E-009  0.4778727E+02  0.7816164E-02  0.1312668E+00
        -11   -1    0    0    0    0  0.00000000000E+00  0.00000000000E+00  0.45593999997E+02  0.45594000000E+02  0.51100000000E-03 0. -1.
         11   -1    0    0    0    0 -0.00000000000E+00 -0.00000000000E+00 -0.45593999997E+02  0.45594000000E+02  0.51100000000E-03 0.  1.
    9900012    2    1    2    0    0  0.47653071097E+01  0.68992994741E+01  0.42583035937E+02  0.47787269192E+02  0.19999991552E+02 0.  0.
        -12    1    1    2    0    0 -0.47653071097E+01 -0.68992994741E+01 -0.42583035937E+02  0.43400730808E+02  0.00000000000E+00 0.  1.
         11    1    3    3    0    0 -0.56385938043E+01 -0.69747973243E+00  0.19358427853E+02  0.20174958420E+02  0.51100000000E-03 0. -1.
        -11    1    3    3    0    0  0.19300432999E+01  0.14754138369E+01  0.33986770669E+00  0.24530437111E+01  0.51100000000E-03 0.  1.
        -12    1    3    3    0    0  0.84738576141E+01  0.61213653696E+01  0.22884740378E+02  0.25159267060E+02  0.00000000000E+00 0.  1.
</event>
<event>
 7    1  0.2505412E-009  0.4778727E+02  0.7816164E-02  0.1312668E+00
        -11   -1    0    0    0    0  0.00000000000E+00  0.00000000000E+00  0.45593999997E+02  0.45594000000E+02  0.51100000000E-03 0.  1.
         11   -1    0    0    0    0 -0.00000000000E+00 -0.00000000000E+00 -0.45593999997E+02  0.45594000000E+02  0.51100000000E-03 0. -1.
    9900012    2    1    2    0    0  0.27747515772E+02 -0.19394204402E+02 -0.27158122886E+02  0.47787269193E+02  0.19999991557E+02 0.  0.
        -12    1    1    2    0    0 -0.27747515772E+02  0.19394204402E+02  0.27158122886E+02  0.43400730807E+02  0.00000000000E+00 0.  1.
         11    1    3    3    0    0  0.29123998832E+02 -0.12473288392E+02 -0.23228968001E+02  0.39285814055E+02  0.51100000000E-03 0. -1.
        -11    1    3    3    0    0 -0.35862191843E+00 -0.26259945488E+01 -0.90572933399E-01  0.26519164331E+01  0.51100000000E-03 0.  1.
         12    1    3    3    0    0 -0.10178611414E+01 -0.42949214611E+01 -0.38385819511E+01  0.58495387045E+01  0.00000000000E+00 0. -1.
</event>
<event>
 7    1  0.2505412E-009  0.4778727E+02  0.7816164E-02  0.1312668E+00
        -11   -1    0    0    0    0  0.00000000000E+00  0.00000000000E+00  0.45593999997E+02  0.45594000000E+02  0.51100000000E-03 0. -1.
         11   -1    0    0    0    0 -0.00000000000E+00 -0.00000000000E+00 -0.45593999997E+02  0.45594000000E+02  0.51100000000E-03 0.  1.
    9900012    2    1    2    0    0  0.25281983202E+02 -0.18454144487E+02  0.30064747878E+02  0.47787272030E+02  0.20000004493E+02 0.  0.
        -12    1    1    2    0    0 -0.25281983202E+02  0.18454144487E+02 -0.30064747878E+02  0.43400727970E+02  0.00000000000E+00 0.  1.
         11    1    3    3    0    0  0.63839441208E+00 -0.10573195339E+01 -0.18168884188E+01  0.21969423774E+01  0.51100000000E-03 0. -1.
        -11    1    3    3    0    0  0.18131693224E+02 -0.73012296467E+01  0.13980521332E+02  0.24031671404E+02  0.51100000000E-03 0.  1.
         12    1    3    3    0    0  0.65118955658E+01 -0.10095595306E+02  0.17901114965E+02  0.21558658248E+02  0.00000000000E+00 0. -1.
</event>
<event>
 7    1  0.2505412E-009  0.4778727E+02  0.7816164E-02  0.1312668E+00
        -11   -1    0    0    0    0  0.00000000000E+00  0.00000000000E+00  0.45593999997E+02  0.45594000000E+02  0.51100000000E-03 0. -1.
         11   -1    0    0    0    0 -0.00000000000E+00 -0.00000000000E+00 -0.45593999997E+02  0.45594000000E+02  0.51100000000E-03 0.  1.
    9900012    2    1    2    0    0 -0.40909435481E+02  0.97910993888E+01 -0.10685314433E+02  0.47787268634E+02  0.19999989008E+02 0.  0.
        -12    1    1    2    0    0  0.40909435481E+02 -0.97910993888E+01  0.10685314433E+02  0.43400731366E+02  0.00000000000E+00 0.  1.
         11    1    3    3    0    0 -0.39159514600E+01 -0.31770006429E+01 -0.27354945590E+01  0.57368057023E+01  0.51100000000E-03 0. -1.
        -11    1    3    3    0    0 -0.13089080613E+01  0.19256482896E+01 -0.38134687536E+01  0.44680986833E+01  0.51100000000E-03 0.  1.
         12    1    3    3    0    0 -0.35684575959E+02  0.11042451742E+02 -0.41363511209E+01  0.37582364248E+02  0.00000000000E+00 0. -1.
</event>
<event>
 7    1  0.2505412E-009  0.4778727E+02  0.7816164E-02  0.1312668E+00
        -11   -1    0    0    0    0  0.00000000000E+00  0.00000000000E+00  0.45593999997E+02  0.45594000000E+02  0.51100000000E-03 0. -1.
         11   -1    0    0    0    0 -0.00000000000E+00 -0.00000000000E+00 -0.45593999997E+02  0.45594000000E+02  0.51100000000E-03 0.  1.
    9900012    2    1    2    0    0  0.42859159757E+02  0.67458041089E+01  0.10998334117E+01  0.47787273258E+02  0.20000010093E+02 0.  0.
        -12    1    1    2    0    0 -0.42859159757E+02 -0.67458041089E+01 -0.10998334117E+01  0.43400726742E+02  0.00000000000E+00 0.  1.
         11    1    3    3    0    0  0.34525289582E+01  0.25353989223E+00  0.47137390386E+01  0.58483822267E+01  0.51100000000E-03 0. -1.
        -11    1    3    3    0    0  0.12764534379E+02  0.14009215956E+01  0.45327163006E+01  0.13617688370E+02  0.51100000000E-03 0.  1.
        -12    1    3    3    0    0  0.26642096421E+02  0.50913426210E+01 -0.81466219275E+01  0.28321202661E+02  0.00000000000E+00 0.  1.
</event>
<event>
 7    1  0.2505412E-009  0.4778727E+02  0.7816164E-02  0.1312668E+00
        -11   -1    0    0    0    0  0.00000000000E+00  0.00000000000E+00  0.45593999997E+02  0.45594000000E+02  0.51100000000E-03 0. -1.
         11   -1    0    0    0    0 -0.00000000000E+00 -0.00000000000E+00 -0.45593999997E+02  0.45594000000E+02  0.51100000000E-03 0.  1.
    9900012    2    1    2    0    0  0.10716261617E+02 -0.36338901340E+02  0.21172371679E+02  0.47787270326E+02  0.19999996726E+02 0.  0.
        -12    1    1    2    0    0 -0.10716261617E+02  0.36338901340E+02 -0.21172371679E+02  0.43400729674E+02  0.00000000000E+00 0.  1.
         11    1    3    3    0    0  0.10509544684E+02 -0.17489012336E+02  0.10128874880E+02  0.22779600272E+02  0.51100000000E-03 0. -1.
        -11    1    3    3    0    0  0.48109958941E+01 -0.59361769029E+01  0.40036767972E+00  0.76514163562E+01  0.51100000000E-03 0.  1.
        -12    1    3    3    0    0 -0.46042789606E+01 -0.12913712101E+02  0.10643129120E+02  0.17356253698E+02  0.00000000000E+00 0.  1.
</event>
<event>
 7    1  0.2505412E-009  0.4778727E+02  0.7816164E-02  0.1312668E+00
        -11   -1    0    0    0    0  0.00000000000E+00  0.00000000000E+00  0.45593999997E+02  0.45594000000E+02  0.51100000000E-03 0.  1.
         11   -1    0    0    0    0 -0.00000000000E+00 -0.00000000000E+00 -0.45593999997E+02  0.45594000000E+02  0.51100000000E-03 0. -1.
    9900012    2    1    2    0    0  0.92185904542E+01  0.71031361502E+01 -0.41811316765E+02  0.47787272324E+02  0.20000005835E+02 0.  0.
        -12    1    1    2    0    0 -0.92185904542E+01 -0.71031361502E+01  0.41811316765E+02  0.43400727676E+02  0.00000000000E+00 0.  1.
         11    1    3    3    0    0  0.83904275484E+01  0.10249958677E+02 -0.26108115727E+02  0.29276178617E+02  0.51100000000E-03 0. -1.
        -11    1    3    3    0    0 -0.33224610041E+01  0.13917581102E+01 -0.67134456495E+01  0.76187984952E+01  0.51100000000E-03 0.  1.
         12    1    3    3    0    0  0.41506239099E+01 -0.45385806370E+01 -0.89897553884E+01  0.10892295212E+02  0.00000000000E+00 0. -1.
</event>
<event>
 7    1  0.2505412E-009  0.4778727E+02  0.7816164E-02  0.1312668E+00
        -11   -1    0    0    0    0  0.00000000000E+00  0.00000000000E+00  0.45593999997E+02  0.45594000000E+02  0.51100000000E-03 0.  1.
         11   -1    0    0    0    0 -0.00000000000E+00 -0.00000000000E+00 -0.45593999997E+02  0.45594000000E+02  0.51100000000E-03 0. -1.
    9900012    2    1    2    0    0 -0.48432661574E+01  0.17472514465E+02 -0.39431936567E+02  0.47787267170E+02  0.19999982333E+02 0.  0.
        -12    1    1    2    0    0  0.48432661574E+01 -0.17472514465E+02  0.39431936567E+02  0.43400732830E+02  0.00000000000E+00 0.  1.
         11    1    3    3    0    0 -0.15148029168E+01  0.17291257390E+02 -0.27204735224E+02  0.32270417240E+02  0.51100000000E-03 0. -1.
        -11    1    3    3    0    0  0.30004459457E+01 -0.53408140773E+00 -0.27925447247E+01  0.41335487325E+01  0.51100000000E-03 0.  1.
        -12    1    3    3    0    0 -0.63289091864E+01  0.71533848297E+00 -0.94346566180E+01  0.11383301197E+02  0.00000000000E+00 0.  1.
</event>
<event>
 7    1  0.2505412E-009  0.4778728E+02  0.7816164E-02  0.1312668E+00
        -11   -1    0    0    0    0  0.00000000000E+00  0.00000000000E+00  0.45593999997E+02  0.45594000000E+02  0.51100000000E-03 0.  1.
         11   -1    0    0    0    0 -0.00000000000E+00 -0.00000000000E+00 -0.45593999997E+02  0.45594000000E+02  0.51100000000E-03 0. -1.
    9900012    2    1    2    0    0  0.28083439096E+02 -0.79670242530E+01 -0.32116497827E+02  0.47787280425E+02  0.20000042772E+02 0.  0.
        -12    1    1    2    0    0 -0.28083439096E+02  0.79670242530E+01  0.32116497827E+02  0.43400719575E+02  0.00000000000E+00 0.  1.
         11    1    3    3    0    0  0.13731385826E+02 -0.67421026788E+01 -0.16052529466E+02  0.22174097676E+02  0.51100000000E-03 0. -1.
        -11    1    3    3    0    0 -0.24723541167E+01 -0.14854252248E+01 -0.38990241083E+01  0.48498878580E+01  0.51100000000E-03 0.  1.
        -12    1    3    3    0    0  0.16824407387E+02  0.26050365061E+00 -0.12164944253E+02  0.20763294891E+02  0.00000000000E+00 0.  1.
</event>
<event>
 7    1  0.2505412E-009  0.4778727E+02  0.7816164E-02  0.1312668E+00
        -11   -1    0    0    0    0  0.00000000000E+00  0.00000000000E+00  0.45593999997E+02  0.45594000000E+02  0.51100000000E-03 0.  1.
         11   -1    0    0    0    0 -0.00000000000E+00 -0.00000000000E+00 -0.45593999997E+02  0.45594000000E+02  0.51100000000E-03 0. -1.
    9900012    2    1    2    0    0 -0.14318693892E+02 -0.40854091875E+02 -0.30889742236E+01  0.47787267523E+02  0.19999983946E+02 0.  0.
        -12    1    1    2    0    0  0.14318693892E+02  0.40854091875E+02  0.30889742236E+01  0.43400732477E+02  0.00000000000E+00 0.  1.
         11    1    3    3    0    0 -0.67618640592E+01 -0.16175891395E+02  0.13226973454E+00  0.17532819611E+02  0.51100000000E-03 0. -1.
        -11    1    3    3    0    0 -0.11742512456E+02 -0.15131181862E+02 -0.47119071419E+01  0.19724130716E+02  0.51100000000E-03 0.  1.
        -12    1    3    3    0    0  0.41856826233E+01 -0.95470186184E+01  0.14906631838E+01  0.10530317196E+02  0.00000000000E+00 0.  1.
</event>
<event>
 7    1  0.2505412E-009  0.4778727E+02  0.7816164E-02  0.1312668E+00
        -11   -1    0    0    0    0  0.00000000000E+00  0.00000000000E+00  0.45593999997E+02  0.45594000000E+02  0.51100000000E-03 0. -1.
         11   -1    0    0    0    0 -0.00000000000E+00 -0.00000000000E+00 -0.45593999997E+02  0.45594000000E+02  0.51100000000E-03 0.  1.
    9900012    2    1    2    0    0 -0.13497020435E+02 -0.35338694474E+02  0.21275111803E+02  0.47787271089E+02  0.20000000202E+02 0.  0.
        -12    1    1    2    0    0  0.13497020435E+02  0.35338694474E+02 -0.21275111803E+02  0.43400728911E+02  0.00000000000E+00 0.  1.
         11    1    3    3    0    0 -0.16643644333E+01 -0.22199714819E+01  0.49642344339E+01  0.56870032638E+01  0.51100000000E-03 0. -1.
        -11    1    3    3    0    0 -0.71462037895E+00 -0.45255064193E+01  0.96852729193E+01  0.10714261637E+02  0.51100000000E-03 0.  1.
         12    1    3    3    0    0 -0.11118035623E+02 -0.28593216573E+02  0.66256044501E+01  0.31386006188E+02  0.00000000000E+00 0. -1.
</event>
<event>
 7    1  0.2583213E-009  0.4778727E+02  0.7816164E-02  0.1312668E+00
        -11   -1    0    0    0    0  0.00000000000E+00  0.00000000000E+00  0.45593999997E+02  0.45594000000E+02  0.51100000000E-03 0.  1.
         11   -1    0    0    0    0 -0.00000000000E+00 -0.00000000000E+00 -0.45593999997E+02  0.45594000000E+02  0.51100000000E-03 0. -1.
    9900012    2    1    2    0    0  0.20453726783E+02 -0.29794775019E+02  0.24032052011E+02  0.47787273260E+02  0.20000010100E+02 0.  0.
        -12    1    1    2    0    0 -0.20453726783E+02  0.29794775019E+02 -0.24032052011E+02  0.43400726740E+02  0.00000000000E+00 0.  1.
         11    1    3    3    0    0  0.87920210423E+01 -0.13896083400E+02  0.17698979033E+02  0.24158945071E+02  0.51100000000E-03 0.  1.
        -11    1    3    3    0    0 -0.51968644171E+00  0.14430867493E+01  0.94927377681E-01  0.15367448819E+01  0.51100000000E-03 0. -1.
        -12    1    3    3    0    0  0.12181392183E+02 -0.17341778368E+02  0.62381456005E+01  0.22091583307E+02  0.00000000000E+00 0.  1.
</event>
<event>
 7    1  0.2505412E-009  0.4778727E+02  0.7816164E-02  0.1312668E+00
        -11   -1    0    0    0    0  0.00000000000E+00  0.00000000000E+00  0.45593999997E+02  0.45594000000E+02  0.51100000000E-03 0.  1.
         11   -1    0    0    0    0 -0.00000000000E+00 -0.00000000000E+00 -0.45593999997E+02  0.45594000000E+02  0.51100000000E-03 0. -1.
    9900012    2    1    2    0    0  0.15808072910E+02  0.12050283064E+02 -0.38581324919E+02  0.47787272776E+02  0.20000007895E+02 0.  0.
        -12    1    1    2    0    0 -0.15808072910E+02 -0.12050283064E+02  0.38581324919E+02  0.43400727224E+02  0.00000000000E+00 0.  1.
         11    1    3    3    0    0  0.30758203056E+01  0.40391976619E+01 -0.26085345111E+01  0.57079103760E+01  0.51100000000E-03 0. -1.
        -11    1    3    3    0    0  0.46767314993E+01 -0.22575741807E+00 -0.41370691110E+00  0.47004188747E+01  0.51100000000E-03 0.  1.
        -12    1    3    3    0    0  0.80555211055E+01  0.82368428203E+01 -0.35559083497E+02  0.37378943525E+02  0.00000000000E+00 0.  1.
</event>
<event>
 7    1  0.2505412E-009  0.4778727E+02  0.7816164E-02  0.1312668E+00
        -11   -1    0    0    0    0  0.00000000000E+00  0.00000000000E+00  0.45593999997E+02  0.45594000000E+02  0.51100000000E-03 0. -1.
         11   -1    0    0    0    0 -0.00000000000E+00 -0.00000000000E+00 -0.45593999997E+02  0.45594000000E+02  0.51100000000E-03 0.  1.
    9900012    2    1    2    0    0  0.34694811388E+02  0.87502489717E+01  0.24562700122E+02  0.47787273836E+02  0.20000012729E+02 0.  0.
        -12    1    1    2    0    0 -0.34694811388E+02 -0.87502489717E+01 -0.24562700122E+02  0.43400726164E+02  0.00000000000E+00 0.  1.
         11    1    3    3    0    0  0.98171308617E+01 -0.47362769526E+01  0.39342225890E+01  0.11588204579E+02  0.51100000000E-03 0.  1.
        -11    1    3    3    0    0  0.10278094341E+02  0.37608883148E+01  0.13204060469E+02  0.17150239571E+02  0.51100000000E-03 0. -1.
        -12    1    3    3    0    0  0.14599586185E+02  0.97256376096E+01  0.74244170633E+01  0.19048829686E+02  0.00000000000E+00 0.  1.
</event>
<event>
 7    1  0.2505412E-009  0.4778728E+02  0.7816164E-02  0.1312668E+00
        -11   -1    0    0    0    0  0.00000000000E+00  0.00000000000E+00  0.45593999997E+02  0.45594000000E+02  0.51100000000E-03 0.  1.
         11   -1    0    0    0    0 -0.00000000000E+00 -0.00000000000E+00 -0.45593999997E+02  0.45594000000E+02  0.51100000000E-03 0. -1.
    9900012    2    1    2    0    0 -0.43410719819E+01  0.38176211124E+02 -0.20183029281E+02  0.47787277971E+02  0.20000031579E+02 0.  0.
        -12    1    1    2    0    0  0.43410719819E+01 -0.38176211124E+02  0.20183029281E+02  0.43400722029E+02  0.00000000000E+00 0.  1.
         11    1    3    3    0    0 -0.23054949655E+01  0.46437478686E+01 -0.59936015790E+01  0.79248319510E+01  0.51100000000E-03 0. -1.
        -11    1    3    3    0    0 -0.18562170643E+01  0.29989787227E+02 -0.55935032555E+01  0.30563379372E+02  0.51100000000E-03 0.  1.
         12    1    3    3    0    0 -0.17935995213E+00  0.35426760284E+01 -0.85959244462E+01  0.92990666478E+01  0.00000000000E+00 0. -1.
</event>
<event>
 7    1  0.2505412E-009  0.4778725E+02  0.7816164E-02  0.1312668E+00
        -11   -1    0    0    0    0  0.00000000000E+00  0.00000000000E+00  0.45593999997E+02  0.45594000000E+02  0.51100000000E-03 0.  1.
         11   -1    0    0    0    0 -0.00000000000E+00 -0.00000000000E+00 -0.45593999997E+02  0.45594000000E+02  0.51100000000E-03 0. -1.
    9900012    2    1    2    0    0  0.20072044334E+02 -0.25781052345E+01 -0.38393895474E+02  0.47787253463E+02  0.19999919837E+02 0.  0.
        -12    1    1    2    0    0 -0.20072044334E+02  0.25781052345E+01  0.38393895474E+02  0.43400746537E+02  0.00000000000E+00 0.  1.
         11    1    3    3    0    0  0.72281242065E+01 -0.57642194816E+01 -0.46638195786E+01  0.10354864514E+02  0.51100000000E-03 0. -1.
        -11    1    3    3    0    0  0.11969513541E+02 -0.15914075156E+00 -0.20320959146E+02  0.23584655203E+02  0.51100000000E-03 0.  1.
        -12    1    3    3    0    0  0.87440658658E+00  0.33452549986E+01 -0.13409116750E+02  0.13847733746E+02  0.00000000000E+00 0.  1.
</event>
<event>
 7    1  0.2505412E-009  0.4778727E+02  0.7816164E-02  0.1312668E+00
        -11   -1    0    0    0    0  0.00000000000E+00  0.00000000000E+00  0.45593999997E+02  0.45594000000E+02  0.51100000000E-03 0.  1.
         11   -1    0    0    0    0 -0.00000000000E+00 -0.00000000000E+00 -0.45593999997E+02  0.45594000000E+02  0.51100000000E-03 0. -1.
    9900012    2    1    2    0    0  0.42258444688E+02  0.61517326587E+00 -0.98726249864E+01  0.47787270631E+02  0.19999998116E+02 0.  0.
        -12    1    1    2    0    0 -0.42258444688E+02 -0.61517326587E+00  0.98726249864E+01  0.43400729369E+02  0.00000000000E+00 0.  1.
         11    1    3    3    0    0  0.11084330689E+02  0.20949298814E+01 -0.15329520158E+01  0.11384246140E+02  0.51100000000E-03 0. -1.
        -11    1    3    3    0    0  0.28668310349E+02  0.18901710495E+01 -0.20019098479E+01  0.28800215418E+02  0.51100000000E-03 0.  1.
        -12    1    3    3    0    0  0.25058036507E+01 -0.33699276651E+01 -0.63377631227E+01  0.76028090732E+01  0.00000000000E+00 0.  1.
</event>
<event>
 7    1  0.2505412E-009  0.4778727E+02  0.7816164E-02  0.1312668E+00
        -11   -1    0    0    0    0  0.00000000000E+00  0.00000000000E+00  0.45593999997E+02  0.45594000000E+02  0.51100000000E-03 0.  1.
         11   -1    0    0    0    0 -0.00000000000E+00 -0.00000000000E+00 -0.45593999997E+02  0.45594000000E+02  0.51100000000E-03 0. -1.
    9900012    2    1    2    0    0 -0.59904072271E+01  0.35223359330E+02 -0.24638455576E+02  0.47787268273E+02  0.19999987365E+02 0.  0.
        -12    1    1    2    0    0  0.59904072271E+01 -0.35223359330E+02  0.24638455576E+02  0.43400731727E+02  0.00000000000E+00 0.  1.
         11    1    3    3    0    0 -0.65821207339E+01  0.50191737071E+01 -0.45442314798E+01  0.94427992703E+01  0.51100000000E-03 0. -1.
        -11    1    3    3    0    0 -0.82446350152E+00 -0.77076543301E+00  0.37599350697E+00  0.11896179204E+01  0.51100000000E-03 0.  1.
        -12    1    3    3    0    0  0.14161770083E+01  0.30974951056E+02 -0.20470217603E+02  0.37154851083E+02  0.00000000000E+00 0.  1.
</event>
<event>
 7    1  0.2505412E-009  0.4778727E+02  0.7816164E-02  0.1312668E+00
        -11   -1    0    0    0    0  0.00000000000E+00  0.00000000000E+00  0.45593999997E+02  0.45594000000E+02  0.51100000000E-03 0.  1.
         11   -1    0    0    0    0 -0.00000000000E+00 -0.00000000000E+00 -0.45593999997E+02  0.45594000000E+02  0.51100000000E-03 0. -1.
    9900012    2    1    2    0    0 -0.31120902562E+02 -0.11741582160E+02 -0.27879172471E+02  0.47787267454E+02  0.19999983629E+02 0.  0.
        -12    1    1    2    0    0  0.31120902562E+02  0.11741582160E+02  0.27879172471E+02  0.43400732546E+02  0.00000000000E+00 0.  1.
         11    1    3    3    0    0 -0.18174569066E+02  0.44906684851E+00 -0.65772287558E+01  0.19333301843E+02  0.51100000000E-03 0. -1.
        -11    1    3    3    0    0 -0.27401240187E+01 -0.54480695780E+01 -0.41086095105E+01  0.73532587426E+01  0.51100000000E-03 0.  1.
         12    1    3    3    0    0 -0.10206209477E+02 -0.67425794308E+01 -0.17193334205E+02  0.21100706868E+02  0.00000000000E+00 0. -1.
</event>
<event>
 7    1  0.2505412E-009  0.4778728E+02  0.7816164E-02  0.1312668E+00
        -11   -1    0    0    0    0  0.00000000000E+00  0.00000000000E+00  0.45593999997E+02  0.45594000000E+02  0.51100000000E-03 0. -1.
         11   -1    0    0    0    0 -0.00000000000E+00 -0.00000000000E+00 -0.45593999997E+02  0.45594000000E+02  0.51100000000E-03 0.  1.
    9900012    2    1    2    0    0 -0.37116679238E+02 -0.43655157312E+01  0.22066196877E+02  0.47787278234E+02  0.20000032778E+02 0.  0.
        -12    1    1    2    0    0  0.37116679238E+02  0.43655157312E+01 -0.22066196877E+02  0.43400721766E+02  0.00000000000E+00 0.  1.
         11    1    3    3    0    0 -0.16774776827E+01  0.25351648498E+01  0.28311432196E+01  0.41540780424E+01  0.51100000000E-03 0. -1.
        -11    1    3    3    0    0 -0.32425148667E+01  0.29551861854E+01  0.60478649681E+01  0.74715258806E+01  0.51100000000E-03 0.  1.
         12    1    3    3    0    0 -0.32196686688E+02 -0.98558667664E+01  0.13187188689E+02  0.36161674311E+02  0.00000000000E+00 0. -1.
</event>
<event>
 7    1  0.2505412E-009  0.4778727E+02  0.7816164E-02  0.1312668E+00
        -11   -1    0    0    0    0  0.00000000000E+00  0.00000000000E+00  0.45593999997E+02  0.45594000000E+02  0.51100000000E-03 0.  1.
         11   -1    0    0    0    0 -0.00000000000E+00 -0.00000000000E+00 -0.45593999997E+02  0.45594000000E+02  0.51100000000E-03 0. -1.
    9900012    2    1    2    0    0  0.15816743521E+02  0.36964590915E-01 -0.40415990110E+02  0.47787274216E+02  0.20000014462E+02 0.  0.
        -12    1    1    2    0    0 -0.15816743521E+02 -0.36964590915E-01  0.40415990110E+02  0.43400725784E+02  0.00000000000E+00 0.  1.
         11    1    3    3    0    0 -0.49169955253E+00  0.29447340231E+01 -0.21251307475E+01  0.36646156513E+01  0.51100000000E-03 0. -1.
        -11    1    3    3    0    0  0.77251314943E+01 -0.82018208485E+01 -0.15154969781E+02  0.18884401795E+02  0.51100000000E-03 0.  1.
         12    1    3    3    0    0  0.85833115793E+01  0.52940514163E+01 -0.23135889582E+02  0.25238256770E+02  0.00000000000E+00 0. -1.
</event>
<event>
 7    1  0.2505412E-009  0.4778730E+02  0.7816164E-02  0.1312668E+00
        -11   -1    0    0    0    0  0.00000000000E+00  0.00000000000E+00  0.45593999997E+02  0.45594000000E+02  0.51100000000E-03 0.  1.
         11   -1    0    0    0    0 -0.00000000000E+00 -0.00000000000E+00 -0.45593999997E+02  0.45594000000E+02  0.51100000000E-03 0. -1.
    9900012    2    1    2    0    0  0.28470918122E+02  0.16292641137E+02  0.28417910111E+02  0.47787297828E+02  0.20000122118E+02 0.  0.
        -12    1    1    2    0    0 -0.28470918122E+02 -0.16292641137E+02 -0.28417910111E+02  0.43400702172E+02  0.00000000000E+00 0.  1.
         11    1    3    3    0    0  0.14802827128E+02  0.13073758680E+02  0.17798341954E+02  0.26586233911E+02  0.51100000000E-03 0. -1.
        -11    1    3    3    0    0 -0.11401989181E+01  0.10558067995E+01  0.49658091595E+01  0.52032722820E+01  0.51100000000E-03 0.  1.
         12    1    3    3    0    0  0.14808289911E+02  0.21630756572E+01  0.56537589980E+01  0.15997791635E+02  0.00000000000E+00 0. -1.
</event>
<event>
 7    1  0.2505412E-009  0.4778727E+02  0.7816164E-02  0.1312668E+00
        -11   -1    0    0    0    0  0.00000000000E+00  0.00000000000E+00  0.45593999997E+02  0.45594000000E+02  0.51100000000E-03 0. -1.
         11   -1    0    0    0    0 -0.00000000000E+00 -0.00000000000E+00 -0.45593999997E+02  0.45594000000E+02  0.51100000000E-03 0.  1.
    9900012    2    1    2    0    0  0.35879061603E+01 -0.13146514613E+01  0.43232185343E+02  0.47787271566E+02  0.20000002376E+02 0.  0.
        -12    1    1    2    0    0 -0.35879061603E+01  0.13146514613E+01 -0.43232185343E+02  0.43400728434E+02  0.00000000000E+00 0.  1.
         11    1    3    3    0    0  0.24039269875E+01 -0.79148998299E+01  0.26881203486E+02  0.28125141873E+02  0.51100000000E-03 0. -1.
        -11    1    3    3    0    0  0.41400907808E+01  0.28815302734E+01  0.40277285213E+01  0.64549334383E+01  0.51100000000E-03 0.  1.
        -12    1    3    3    0    0 -0.29561116079E+01  0.37187180952E+01  0.12323253336E+02  0.13207196254E+02  0.00000000000E+00 0.  1.
</event>
<event>
 7    1  0.2505412E-009  0.4778725E+02  0.7816164E-02  0.1312668E+00
        -11   -1    0    0    0    0  0.00000000000E+00  0.00000000000E+00  0.45593999997E+02  0.45594000000E+02  0.51100000000E-03 0. -1.
         11   -1    0    0    0    0 -0.00000000000E+00 -0.00000000000E+00 -0.45593999997E+02  0.45594000000E+02  0.51100000000E-03 0.  1.
    9900012    2    1    2    0    0  0.32426641763E+00  0.41726427744E+02  0.11934193992E+02  0.47787252228E+02  0.19999914207E+02 0.  0.
        -12    1    1    2    0    0 -0.32426641763E+00 -0.41726427744E+02 -0.11934193992E+02  0.43400747772E+02  0.00000000000E+00 0.  1.
         11    1    3    3    0    0  0.65225101761E+01  0.10562677005E+02  0.87816960151E-01  0.12414547780E+02  0.51100000000E-03 0. -1.
        -11    1    3    3    0    0 -0.43811858295E+01  0.15748309902E+02  0.88492823551E+00  0.16370313139E+02  0.51100000000E-03 0.  1.
         12    1    3    3    0    0 -0.18170579290E+01  0.15415440837E+02  0.10961448796E+02  0.19002391308E+02  0.00000000000E+00 0. -1.
</event>
<event>
 7    1  0.2505412E-009  0.4778727E+02  0.7816164E-02  0.1312668E+00
        -11   -1    0    0    0    0  0.00000000000E+00  0.00000000000E+00  0.45593999997E+02  0.45594000000E+02  0.51100000000E-03 0. -1.
         11   -1    0    0    0    0 -0.00000000000E+00 -0.00000000000E+00 -0.45593999997E+02  0.45594000000E+02  0.51100000000E-03 0.  1.
    9900012    2    1    2    0    0 -0.39074860719E+02  0.18691191460E+02  0.27236023778E+01  0.47787269725E+02  0.19999993986E+02 0.  0.
        -12    1    1    2    0    0  0.39074860719E+02 -0.18691191460E+02 -0.27236023778E+01  0.43400730275E+02  0.00000000000E+00 0.  1.
         11    1    3    3    0    0 -0.32803733091E+00  0.49855258301E+01  0.34673293983E+01  0.60815663863E+01  0.51100000000E-03 0. -1.
        -11    1    3    3    0    0 -0.17179766503E+02  0.50913180917E+01 -0.36944054081E+01  0.18295205071E+02  0.51100000000E-03 0.  1.
        -12    1    3    3    0    0 -0.21567056885E+02  0.86143475384E+01  0.29506783876E+01  0.23410498268E+02  0.00000000000E+00 0.  1.
</event>
<event>
 7    1  0.2505412E-009  0.4778727E+02  0.7816164E-02  0.1312668E+00
        -11   -1    0    0    0    0  0.00000000000E+00  0.00000000000E+00  0.45593999997E+02  0.45594000000E+02  0.51100000000E-03 0. -1.
         11   -1    0    0    0    0 -0.00000000000E+00 -0.00000000000E+00 -0.45593999997E+02  0.45594000000E+02  0.51100000000E-03 0.  1.
    9900012    2    1    2    0    0 -0.12067354900E+02  0.28622118835E+02  0.30311328767E+02  0.47787269678E+02  0.19999993768E+02 0.  0.
        -12    1    1    2    0    0  0.12067354900E+02 -0.28622118835E+02 -0.30311328767E+02  0.43400730322E+02  0.00000000000E+00 0.  1.
         11    1    3    3    0    0 -0.61815149009E+01  0.17630814740E+02  0.22479257514E+02  0.29229672826E+02  0.51100000000E-03 0. -1.
        -11    1    3    3    0    0  0.41356809482E+00 -0.21762943741E+01  0.80092342932E+00  0.23555836586E+01  0.51100000000E-03 0.  1.
         12    1    3    3    0    0 -0.62994080941E+01  0.13167598470E+02  0.70311478230E+01  0.16202013193E+02  0.00000000000E+00 0. -1.
</event>
<event>
 7    1  0.2505412E-009  0.4778727E+02  0.7816164E-02  0.1312668E+00
        -11   -1    0    0    0    0  0.00000000000E+00  0.00000000000E+00  0.45593999997E+02  0.45594000000E+02  0.51100000000E-03 0.  1.
         11   -1    0    0    0    0 -0.00000000000E+00 -0.00000000000E+00 -0.45593999997E+02  0.45594000000E+02  0.51100000000E-03 0. -1.
    9900012    2    1    2    0    0 -0.14639666561E+02 -0.15386287079E+02 -0.37849247304E+02  0.47787272027E+02  0.20000004480E+02 0.  0.
        -12    1    1    2    0    0  0.14639666561E+02  0.15386287079E+02  0.37849247304E+02  0.43400727973E+02  0.00000000000E+00 0.  1.
         11    1    3    3    0    0 -0.34337145273E+01  0.14940877532E+01 -0.51718947234E+01  0.63852320992E+01  0.51100000000E-03 0. -1.
        -11    1    3    3    0    0 -0.12531861243E+02 -0.16148538782E+02 -0.19874668038E+02  0.28510090861E+02  0.51100000000E-03 0.  1.
         12    1    3    3    0    0  0.13259092097E+01 -0.73183604978E+00 -0.12802684543E+02  0.12891949067E+02  0.00000000000E+00 0. -1.
</event>
<event>
 7    1  0.2505412E-009  0.4778728E+02  0.7816164E-02  0.1312668E+00
        -11   -1    0    0    0    0  0.00000000000E+00  0.00000000000E+00  0.45593999997E+02  0.45594000000E+02  0.51100000000E-03 0.  1.
         11   -1    0    0    0    0 -0.00000000000E+00 -0.00000000000E+00 -0.45593999997E+02  0.45594000000E+02  0.51100000000E-03 0. -1.
    9900012    2    1    2    0    0 -0.18092389357E+02  0.20953394683E+01 -0.39394132043E+02  0.47787278352E+02  0.20000033320E+02 0.  0.
        -12    1    1    2    0    0  0.18092389357E+02 -0.20953394683E+01  0.39394132043E+02  0.43400721648E+02  0.00000000000E+00 0.  1.
         11    1    3    3    0    0 -0.55412600363E+01  0.42038828498E+01 -0.95524125805E+01  0.11816377625E+02  0.51100000000E-03 0. -1.
        -11    1    3    3    0    0 -0.11589850218E+02  0.50093631552E+01 -0.16051117985E+02  0.20421966999E+02  0.51100000000E-03 0.  1.
         12    1    3    3    0    0 -0.96127910278E+00 -0.71179065367E+01 -0.13790601478E+02  0.15548933728E+02  0.00000000000E+00 0. -1.
</event>
<event>
 7    1  0.2505412E-009  0.4778727E+02  0.7816164E-02  0.1312668E+00
        -11   -1    0    0    0    0  0.00000000000E+00  0.00000000000E+00  0.45593999997E+02  0.45594000000E+02  0.51100000000E-03 0.  1.
         11   -1    0    0    0    0 -0.00000000000E+00 -0.00000000000E+00 -0.45593999997E+02  0.45594000000E+02  0.51100000000E-03 0. -1.
    9900012    2    1    2    0    0  0.40244638733E+02 -0.16214975657E+02  0.10329922911E+01  0.47787268953E+02  0.19999990466E+02 0.  0.
        -12    1    1    2    0    0 -0.40244638733E+02  0.16214975657E+02 -0.10329922911E+01  0.43400731047E+02  0.00000000000E+00 0.  1.
         11    1    3    3    0    0  0.83786646996E+01 -0.66066083155E+01  0.17870188150E+01  0.10818628938E+02  0.51100000000E-03 0. -1.
        -11    1    3    3    0    0  0.29820380653E+02 -0.12771824229E+02  0.16795179086E+01  0.32483770980E+02  0.51100000000E-03 0.  1.
        -12    1    3    3    0    0  0.20455933808E+01  0.31634568881E+01 -0.24335444325E+01  0.44848690357E+01  0.00000000000E+00 0.  1.
</event>
<event>
 7    1  0.2505412E-009  0.4778727E+02  0.7816164E-02  0.1312668E+00
        -11   -1    0    0    0    0  0.00000000000E+00  0.00000000000E+00  0.45593999997E+02  0.45594000000E+02  0.51100000000E-03 0.  1.
         11   -1    0    0    0    0 -0.00000000000E+00 -0.00000000000E+00 -0.45593999997E+02  0.45594000000E+02  0.51100000000E-03 0. -1.
    9900012    2    1    2    0    0  0.14625931037E+02  0.18403774008E+02 -0.36482964124E+02  0.47787269272E+02  0.19999991920E+02 0.  0.
        -12    1    1    2    0    0 -0.14625931037E+02 -0.18403774008E+02  0.36482964124E+02  0.43400730728E+02  0.00000000000E+00 0.  1.
         11    1    3    3    0    0 -0.13152962475E+01  0.49751837221E+01 -0.11658695772E+02  0.12743925795E+02  0.51100000000E-03 0. -1.
        -11    1    3    3    0    0  0.43937060883E+01  0.21105174943E+01 -0.15781842003E+02  0.16517429418E+02  0.51100000000E-03 0.  1.
        -12    1    3    3    0    0  0.11547521197E+02  0.11318072791E+02 -0.90424263482E+01  0.18525914060E+02  0.00000000000E+00 0.  1.
</event>
<event>
 7    1  0.2505412E-009  0.4778727E+02  0.7816164E-02  0.1312668E+00
        -11   -1    0    0    0    0  0.00000000000E+00  0.00000000000E+00  0.45593999997E+02  0.45594000000E+02  0.51100000000E-03 0.  1.
         11   -1    0    0    0    0 -0.00000000000E+00 -0.00000000000E+00 -0.45593999997E+02  0.45594000000E+02  0.51100000000E-03 0. -1.
    9900012    2    1    2    0    0 -0.18383259896E+02 -0.23850478183E+02 -0.31254342751E+02  0.47787268500E+02  0.19999988398E+02 0.  0.
        -12    1    1    2    0    0  0.18383259896E+02  0.23850478183E+02  0.31254342751E+02  0.43400731500E+02  0.00000000000E+00 0.  1.
         11    1    3    3    0    0 -0.65320824451E+01 -0.86878354098E+01 -0.17320780863E+02  0.20448863908E+02  0.51100000000E-03 0. -1.
        -11    1    3    3    0    0 -0.14829396828E+02 -0.11316060740E+02 -0.11214386940E+02  0.21765263969E+02  0.51100000000E-03 0.  1.
        -12    1    3    3    0    0  0.29782193772E+01 -0.38465820335E+01 -0.27191749486E+01  0.55731406227E+01  0.00000000000E+00 0.  1.
</event>
<event>
 7    1  0.2505412E-009  0.4778729E+02  0.7816164E-02  0.1312668E+00
        -11   -1    0    0    0    0  0.00000000000E+00  0.00000000000E+00  0.45593999997E+02  0.45594000000E+02  0.51100000000E-03 0.  1.
         11   -1    0    0    0    0 -0.00000000000E+00 -0.00000000000E+00 -0.45593999997E+02  0.45594000000E+02  0.51100000000E-03 0. -1.
    9900012    2    1    2    0    0  0.42226996114E+02 -0.76825138479E+01  0.64406312468E+01  0.47787286288E+02  0.20000069501E+02 0.  0.
        -12    1    1    2    0    0 -0.42226996114E+02  0.76825138479E+01 -0.64406312468E+01  0.43400713712E+02  0.00000000000E+00 0.  1.
         11    1    3    3    0    0  0.25153620860E+01  0.26951789911E+01  0.25196233922E+00  0.36952024977E+01  0.51100000000E-03 0.  1.
        -11    1    3    3    0    0  0.45775831365E+01 -0.62405732122E+01 -0.15147473043E+01  0.78862843624E+01  0.51100000000E-03 0. -1.
         12    1    3    3    0    0  0.35134050892E+02 -0.41371196268E+01  0.77034162118E+01  0.36205799428E+02  0.00000000000E+00 0. -1.
</event>
<event>
 7    1  0.2505412E-009  0.4778727E+02  0.7816164E-02  0.1312668E+00
        -11   -1    0    0    0    0  0.00000000000E+00  0.00000000000E+00  0.45593999997E+02  0.45594000000E+02  0.51100000000E-03 0.  1.
         11   -1    0    0    0    0 -0.00000000000E+00 -0.00000000000E+00 -0.45593999997E+02  0.45594000000E+02  0.51100000000E-03 0. -1.
    9900012    2    1    2    0    0 -0.32069647238E+02 -0.15250332494E+02 -0.24951717570E+02  0.47787272761E+02  0.20000007827E+02 0.  0.
        -12    1    1    2    0    0  0.32069647238E+02  0.15250332494E+02  0.24951717570E+02  0.43400727239E+02  0.00000000000E+00 0.  1.
         11    1    3    3    0    0 -0.27554283742E+02 -0.18733592035E+02 -0.19693678397E+02  0.38704353658E+02  0.51100000000E-03 0.  1.
        -11    1    3    3    0    0  0.32377077457E+00  0.10817995374E+01 -0.30402030932E+01  0.32431393529E+01  0.51100000000E-03 0. -1.
        -12    1    3    3    0    0 -0.48391342714E+01  0.24014600039E+01 -0.22178360802E+01  0.58397797498E+01  0.00000000000E+00 0.  1.
</event>
<event>
 7    1  0.2505412E-009  0.4778727E+02  0.7816164E-02  0.1312668E+00
        -11   -1    0    0    0    0  0.00000000000E+00  0.00000000000E+00  0.45593999997E+02  0.45594000000E+02  0.51100000000E-03 0.  1.
         11   -1    0    0    0    0 -0.00000000000E+00 -0.00000000000E+00 -0.45593999997E+02  0.45594000000E+02  0.51100000000E-03 0. -1.
    9900012    2    1    2    0    0  0.14847404844E+02  0.27863298119E+02  0.29779432606E+02  0.47787269372E+02  0.19999992376E+02 0.  0.
        -12    1    1    2    0    0 -0.14847404844E+02 -0.27863298119E+02 -0.29779432606E+02  0.43400730628E+02  0.00000000000E+00 0.  1.
         11    1    3    3    0    0  0.12982671899E+02  0.10633409780E+02  0.14653350837E+02  0.22278686321E+02  0.51100000000E-03 0. -1.
        -11    1    3    3    0    0 -0.80716011490E+00  0.13529476929E+01  0.75542205990E+01  0.77167495768E+01  0.51100000000E-03 0.  1.
        -12    1    3    3    0    0  0.26718930604E+01  0.15876940646E+02  0.75718611703E+01  0.17791833475E+02  0.00000000000E+00 0.  1.
</event>
<event>
 7    1  0.2505412E-009  0.4778727E+02  0.7816164E-02  0.1312668E+00
        -11   -1    0    0    0    0  0.00000000000E+00  0.00000000000E+00  0.45593999997E+02  0.45594000000E+02  0.51100000000E-03 0. -1.
         11   -1    0    0    0    0 -0.00000000000E+00 -0.00000000000E+00 -0.45593999997E+02  0.45594000000E+02  0.51100000000E-03 0.  1.
    9900012    2    1    2    0    0  0.30311184126E+02  0.30689780557E+02 -0.47950714402E+01  0.47787271620E+02  0.20000002626E+02 0.  0.
        -12    1    1    2    0    0 -0.30311184126E+02 -0.30689780557E+02  0.47950714402E+01  0.43400728380E+02  0.00000000000E+00 0.  1.
         11    1    3    3    0    0  0.66312366245E+01  0.10306565967E+02 -0.57760843429E+01  0.13548496293E+02  0.51100000000E-03 0. -1.
        -11    1    3    3    0    0  0.16978100818E+01  0.69842935057E+01 -0.36822199466E+01  0.80759927467E+01  0.51100000000E-03 0.  1.
        -12    1    3    3    0    0  0.21982137420E+02  0.13398921084E+02  0.46632328493E+01  0.26162782580E+02  0.00000000000E+00 0.  1.
</event>
<event>
 7    1  0.2505412E-009  0.4778727E+02  0.7816164E-02  0.1312668E+00
        -11   -1    0    0    0    0  0.00000000000E+00  0.00000000000E+00  0.45593999997E+02  0.45594000000E+02  0.51100000000E-03 0. -1.
         11   -1    0    0    0    0 -0.00000000000E+00 -0.00000000000E+00 -0.45593999997E+02  0.45594000000E+02  0.51100000000E-03 0.  1.
    9900012    2    1    2    0    0  0.22005215998E+02 -0.60840167151E+01  0.36910418402E+02  0.47787265247E+02  0.19999973566E+02 0.  0.
        -12    1    1    2    0    0 -0.22005215998E+02  0.60840167151E+01 -0.36910418402E+02  0.43400734753E+02  0.00000000000E+00 0.  1.
         11    1    3    3    0    0  0.19339910305E+01  0.27344966715E+01  0.16090699969E+01  0.37157636992E+01  0.51100000000E-03 0.  1.
        -11    1    3    3    0    0  0.14180811096E+02 -0.57648853554E+00  0.11719818468E+02  0.18406028566E+02  0.51100000000E-03 0. -1.
         12    1    3    3    0    0  0.58904138720E+01 -0.82420248510E+01  0.23581529937E+02  0.25665472982E+02  0.00000000000E+00 0. -1.
</event>
<event>
 7    1  0.2505412E-009  0.4778728E+02  0.7816164E-02  0.1312668E+00
        -11   -1    0    0    0    0  0.00000000000E+00  0.00000000000E+00  0.45593999997E+02  0.45594000000E+02  0.51100000000E-03 0.  1.
         11   -1    0    0    0    0 -0.00000000000E+00 -0.00000000000E+00 -0.45593999997E+02  0.45594000000E+02  0.51100000000E-03 0. -1.
    9900012    2    1    2    0    0 -0.15715048419E+02  0.39497391729E+02  0.87530661022E+01  0.47787275739E+02  0.20000021403E+02 0.  0.
        -12    1    1    2    0    0  0.15715048419E+02 -0.39497391729E+02 -0.87530661022E+01  0.43400724261E+02  0.00000000000E+00 0.  1.
         11    1    3    3    0    0 -0.38549167064E+01  0.34944587951E+01  0.14055041350E+01  0.53895331170E+01  0.51100000000E-03 0. -1.
        -11    1    3    3    0    0  0.42886703478E+01  0.38681751969E+01  0.60632071916E+00  0.58071591834E+01  0.51100000000E-03 0.  1.
         12    1    3    3    0    0 -0.16148802060E+02  0.32134757737E+02  0.67412412481E+01  0.36590583438E+02  0.00000000000E+00 0. -1.
</event>
<event>
 7    1  0.2505412E-009  0.4778727E+02  0.7816164E-02  0.1312668E+00
        -11   -1    0    0    0    0  0.00000000000E+00  0.00000000000E+00  0.45593999997E+02  0.45594000000E+02  0.51100000000E-03 0.  1.
         11   -1    0    0    0    0 -0.00000000000E+00 -0.00000000000E+00 -0.45593999997E+02  0.45594000000E+02  0.51100000000E-03 0. -1.
    9900012    2    1    2    0    0 -0.16379398846E+02  0.85426214548E+01 -0.39272920333E+02  0.47787270060E+02  0.19999995510E+02 0.  0.
        -12    1    1    2    0    0  0.16379398846E+02 -0.85426214548E+01  0.39272920333E+02  0.43400729940E+02  0.00000000000E+00 0.  1.
         11    1    3    3    0    0 -0.59523348404E+01  0.11142589191E+01 -0.16578993074E+01  0.62785741507E+01  0.51100000000E-03 0.  1.
        -11    1    3    3    0    0 -0.69120120331E+01  0.92834942350E+00 -0.65181613013E+01  0.95458980724E+01  0.51100000000E-03 0. -1.
         12    1    3    3    0    0 -0.35150519727E+01  0.65000131122E+01 -0.31096859724E+02  0.31962797836E+02  0.00000000000E+00 0. -1.
</event>
<event>
 7    1  0.2505412E-009  0.4778726E+02  0.7816164E-02  0.1312668E+00
        -11   -1    0    0    0    0  0.00000000000E+00  0.00000000000E+00  0.45593999997E+02  0.45594000000E+02  0.51100000000E-03 0. -1.
         11   -1    0    0    0    0 -0.00000000000E+00 -0.00000000000E+00 -0.45593999997E+02  0.45594000000E+02  0.51100000000E-03 0.  1.
    9900012    2    1    2    0    0 -0.62576516389E+01  0.42808027792E+02  0.34551988194E+01  0.47787264449E+02  0.19999969929E+02 0.  0.
        -12    1    1    2    0    0  0.62576516389E+01 -0.42808027792E+02 -0.34551988194E+01  0.43400735551E+02  0.00000000000E+00 0.  1.
         11    1    3    3    0    0 -0.44343979201E+01  0.13057452069E+02  0.62693894142E+01  0.15148141250E+02  0.51100000000E-03 0. -1.
        -11    1    3    3    0    0  0.12476177563E+01 -0.23659112569E+00 -0.21390349208E+01  0.24875683066E+01  0.51100000000E-03 0.  1.
        -12    1    3    3    0    0 -0.30708714752E+01  0.29987166849E+02 -0.67515567407E+00  0.30151554892E+02  0.00000000000E+00 0.  1.
</event>
<event>
 7    1  0.2505412E-009  0.4778728E+02  0.7816164E-02  0.1312668E+00
        -11   -1    0    0    0    0  0.00000000000E+00  0.00000000000E+00  0.45593999997E+02  0.45594000000E+02  0.51100000000E-03 0.  1.
         11   -1    0    0    0    0 -0.00000000000E+00 -0.00000000000E+00 -0.45593999997E+02  0.45594000000E+02  0.51100000000E-03 0. -1.
    9900012    2    1    2    0    0  0.13365320061E+01  0.25536573002E+02 -0.35067358692E+02  0.47787279683E+02  0.20000039385E+02 0.  0.
        -12    1    1    2    0    0 -0.13365320061E+01 -0.25536573002E+02  0.35067358692E+02  0.43400720317E+02  0.00000000000E+00 0.  1.
         11    1    3    3    0    0 -0.13422631845E+01 -0.26394133397E+00 -0.66858220439E+01  0.68243352899E+01  0.51100000000E-03 0.  1.
        -11    1    3    3    0    0 -0.47833706841E+01  0.17892720546E+02 -0.15900139846E+02  0.24409926895E+02  0.51100000000E-03 0. -1.
         12    1    3    3    0    0  0.74621658746E+01  0.79077937899E+01 -0.12481396801E+02  0.16553017498E+02  0.00000000000E+00 0. -1.
</event>
<event>
 7    1  0.2505412E-009  0.4778727E+02  0.7816164E-02  0.1312668E+00
        -11   -1    0    0    0    0  0.00000000000E+00  0.00000000000E+00  0.45593999997E+02  0.45594000000E+02  0.51100000000E-03 0.  1.
         11   -1    0    0    0    0 -0.00000000000E+00 -0.00000000000E+00 -0.45593999997E+02  0.45594000000E+02  0.51100000000E-03 0. -1.
    9900012    2    1    2    0    0  0.28812242701E+02 -0.11371016596E+02 -0.30400295601E+02  0.47787270508E+02  0.19999997552E+02 0.  0.
        -12    1    1    2    0    0 -0.28812242701E+02  0.11371016596E+02  0.30400295601E+02  0.43400729492E+02  0.00000000000E+00 0.  1.
         11    1    3    3    0    0  0.22699735744E+02 -0.15458774447E+02 -0.17034151854E+02  0.32317395314E+02  0.51100000000E-03 0. -1.
        -11    1    3    3    0    0  0.12893425890E+01  0.21050516684E+01 -0.55449173979E+01  0.60695762660E+01  0.51100000000E-03 0.  1.
         12    1    3    3    0    0  0.48231643672E+01  0.19827061822E+01 -0.78212263492E+01  0.94002989274E+01  0.00000000000E+00 0. -1.
</event>
<event>
 7    1  0.2505412E-009  0.4778727E+02  0.7816164E-02  0.1312668E+00
        -11   -1    0    0    0    0  0.00000000000E+00  0.00000000000E+00  0.45593999997E+02  0.45594000000E+02  0.51100000000E-03 0. -1.
         11   -1    0    0    0    0 -0.00000000000E+00 -0.00000000000E+00 -0.45593999997E+02  0.45594000000E+02  0.51100000000E-03 0.  1.
    9900012    2    1    2    0    0  0.10962886673E+02  0.27444785681E+02  0.31783996244E+02  0.47787267719E+02  0.19999984838E+02 0.  0.
        -12    1    1    2    0    0 -0.10962886673E+02 -0.27444785681E+02 -0.31783996244E+02  0.43400732281E+02  0.00000000000E+00 0.  1.
         11    1    3    3    0    0  0.45414287448E+01  0.75126691713E+00  0.12984235622E+02  0.13776042682E+02  0.51100000000E-03 0.  1.
        -11    1    3    3    0    0  0.15267649259E+01  0.16015152234E+02  0.13983108036E+02  0.21315333045E+02  0.51100000000E-03 0. -1.
        -12    1    3    3    0    0  0.48946930027E+01  0.10678366530E+02  0.48166525860E+01  0.12695891992E+02  0.00000000000E+00 0.  1.
</event>
<event>
 7    1  0.2505412E-009  0.4778727E+02  0.7816164E-02  0.1312668E+00
        -11   -1    0    0    0    0  0.00000000000E+00  0.00000000000E+00  0.45593999997E+02  0.45594000000E+02  0.51100000000E-03 0.  1.
         11   -1    0    0    0    0 -0.00000000000E+00 -0.00000000000E+00 -0.45593999997E+02  0.45594000000E+02  0.51100000000E-03 0. -1.
    9900012    2    1    2    0    0  0.11262169208E+02 -0.16988318439E+02 -0.38316884447E+02  0.47787273596E+02  0.20000011633E+02 0.  0.
        -12    1    1    2    0    0 -0.11262169208E+02  0.16988318439E+02  0.38316884447E+02  0.43400726404E+02  0.00000000000E+00 0.  1.
         11    1    3    3    0    0  0.46433229905E+01  0.12500415024E+01 -0.11891558260E+02  0.12827010964E+02  0.51100000000E-03 0. -1.
        -11    1    3    3    0    0 -0.27357668999E+01 -0.67946650213E+01 -0.13344540573E+02  0.15222636323E+02  0.51100000000E-03 0.  1.
        -12    1    3    3    0    0  0.93546131174E+01 -0.11443694920E+02 -0.13080785614E+02  0.19737626308E+02  0.00000000000E+00 0.  1.
</event>
<event>
 7    1  0.2505412E-009  0.4778729E+02  0.7816164E-02  0.1312668E+00
        -11   -1    0    0    0    0  0.00000000000E+00  0.00000000000E+00  0.45593999997E+02  0.45594000000E+02  0.51100000000E-03 0. -1.
         11   -1    0    0    0    0 -0.00000000000E+00 -0.00000000000E+00 -0.45593999997E+02  0.45594000000E+02  0.51100000000E-03 0.  1.
    9900012    2    1    2    0    0  0.32207259577E+02  0.25504124733E+01  0.28979473564E+02  0.47787285014E+02  0.20000063692E+02 0.  0.
        -12    1    1    2    0    0 -0.32207259577E+02 -0.25504124733E+01 -0.28979473564E+02  0.43400714986E+02  0.00000000000E+00 0.  1.
         11    1    3    3    0    0  0.73392952124E+01  0.22029123003E+01  0.14488341431E+02  0.16389939429E+02  0.51100000000E-03 0. -1.
        -11    1    3    3    0    0  0.65360171769E+01  0.34050735781E+01  0.97408856892E+01  0.12214700196E+02  0.51100000000E-03 0.  1.
        -12    1    3    3    0    0  0.18331947188E+02 -0.30575734050E+01  0.47502464445E+01  0.19182645389E+02  0.00000000000E+00 0.  1.
</event>
<event>
 7    1  0.2505412E-009  0.4778727E+02  0.7816164E-02  0.1312668E+00
        -11   -1    0    0    0    0  0.00000000000E+00  0.00000000000E+00  0.45593999997E+02  0.45594000000E+02  0.51100000000E-03 0.  1.
         11   -1    0    0    0    0 -0.00000000000E+00 -0.00000000000E+00 -0.45593999997E+02  0.45594000000E+02  0.51100000000E-03 0. -1.
    9900012    2    1    2    0    0 -0.20719814491E+02 -0.78065105679E+00 -0.38127458226E+02  0.47787271903E+02  0.20000003912E+02 0.  0.
        -12    1    1    2    0    0  0.20719814491E+02  0.78065105679E+00  0.38127458226E+02  0.43400728097E+02  0.00000000000E+00 0.  1.
         11    1    3    3    0    0 -0.54353816075E+01  0.32111781589E+01 -0.10174381552E+02  0.11973849783E+02  0.51100000000E-03 0. -1.
        -11    1    3    3    0    0 -0.15065929138E+01 -0.66963255625E+01 -0.37211299376E+01  0.78075224316E+01  0.51100000000E-03 0.  1.
        -12    1    3    3    0    0 -0.13777839970E+02  0.27044963468E+01 -0.24231946736E+02  0.28005899688E+02  0.00000000000E+00 0.  1.
</event>
<event>
 7    1  0.2505412E-009  0.4778728E+02  0.7816164E-02  0.1312668E+00
        -11   -1    0    0    0    0  0.00000000000E+00  0.00000000000E+00  0.45593999997E+02  0.45594000000E+02  0.51100000000E-03 0.  1.
         11   -1    0    0    0    0 -0.00000000000E+00 -0.00000000000E+00 -0.45593999997E+02  0.45594000000E+02  0.51100000000E-03 0. -1.
    9900012    2    1    2    0    0 -0.17730588537E+02 -0.39016495509E+02 -0.68528436937E+01  0.47787283896E+02  0.20000058595E+02 0.  0.
        -12    1    1    2    0    0  0.17730588537E+02  0.39016495509E+02  0.68528436937E+01  0.43400716104E+02  0.00000000000E+00 0.  1.
         11    1    3    3    0    0 -0.92933679397E+01 -0.74859630265E+01 -0.47981315658E+01  0.12861897095E+02  0.51100000000E-03 0. -1.
        -11    1    3    3    0    0 -0.36720894706E+01 -0.89870529940E+01  0.48760023752E+01  0.10864012243E+02  0.51100000000E-03 0.  1.
        -12    1    3    3    0    0 -0.47651311269E+01 -0.22543479488E+02 -0.69307145031E+01  0.24061374558E+02  0.00000000000E+00 0.  1.
</event>
<event>
 7    1  0.2505412E-009  0.4778722E+02  0.7816164E-02  0.1312668E+00
        -11   -1    0    0    0    0  0.00000000000E+00  0.00000000000E+00  0.45593999997E+02  0.45594000000E+02  0.51100000000E-03 0.  1.
         11   -1    0    0    0    0 -0.00000000000E+00 -0.00000000000E+00 -0.45593999997E+02  0.45594000000E+02  0.51100000000E-03 0. -1.
    9900012    2    1    2    0    0  0.28944918834E+02 -0.32236824697E+02  0.25702600138E+01  0.47787223171E+02  0.19999781725E+02 0.  0.
        -12    1    1    2    0    0 -0.28944918834E+02  0.32236824697E+02 -0.25702600138E+01  0.43400776829E+02  0.00000000000E+00 0.  1.
         11    1    3    3    0    0  0.31697262944E+01 -0.72033250373E+01  0.29357214444E+01  0.83996141003E+01  0.51100000000E-03 0. -1.
        -11    1    3    3    0    0  0.16471000864E+02 -0.19079386465E+02  0.69408451947E+01  0.26143683551E+02  0.51100000000E-03 0.  1.
         12    1    3    3    0    0  0.93041916751E+01 -0.59541131947E+01 -0.73063066254E+01  0.13243925520E+02  0.00000000000E+00 0. -1.
</event>
<event>
 7    1  0.2505412E-009  0.4778728E+02  0.7816164E-02  0.1312668E+00
        -11   -1    0    0    0    0  0.00000000000E+00  0.00000000000E+00  0.45593999997E+02  0.45594000000E+02  0.51100000000E-03 0.  1.
         11   -1    0    0    0    0 -0.00000000000E+00 -0.00000000000E+00 -0.45593999997E+02  0.45594000000E+02  0.51100000000E-03 0. -1.
    9900012    2    1    2    0    0 -0.83568096597E+01  0.10526211500E+02 -0.41267242083E+02  0.47787278055E+02  0.20000031962E+02 0.  0.
        -12    1    1    2    0    0  0.83568096597E+01 -0.10526211500E+02  0.41267242083E+02  0.43400721945E+02  0.00000000000E+00 0.  1.
         11    1    3    3    0    0 -0.62256025242E+01  0.33879232747E+01 -0.10130746634E+02  0.12363987161E+02  0.51100000000E-03 0. -1.
        -11    1    3    3    0    0 -0.29206765546E+01  0.11733676854E+02 -0.20336036934E+02  0.23659330559E+02  0.51100000000E-03 0.  1.
         12    1    3    3    0    0  0.78946941909E+00 -0.45953886286E+01 -0.10800458515E+02  0.11763960334E+02  0.00000000000E+00 0. -1.
</event>
<event>
 7    1  0.2505412E-009  0.4778727E+02  0.7816164E-02  0.1312668E+00
        -11   -1    0    0    0    0  0.00000000000E+00  0.00000000000E+00  0.45593999997E+02  0.45594000000E+02  0.51100000000E-03 0.  1.
         11   -1    0    0    0    0 -0.00000000000E+00 -0.00000000000E+00 -0.45593999997E+02  0.45594000000E+02  0.51100000000E-03 0. -1.
    9900012    2    1    2    0    0  0.40238761516E+02 -0.12225719210E+01 -0.16216365267E+02  0.47787272899E+02  0.20000008454E+02 0.  0.
        -12    1    1    2    0    0 -0.40238761516E+02  0.12225719210E+01  0.16216365267E+02  0.43400727101E+02  0.00000000000E+00 0.  1.
         11    1    3    3    0    0  0.17808635167E+02  0.33864773582E+01 -0.36170323431E+01  0.18485092336E+02  0.51100000000E-03 0. -1.
        -11    1    3    3    0    0 -0.85979427025E+00 -0.15430647962E+01  0.11266407218E+01  0.20951407422E+01  0.51100000000E-03 0.  1.
         12    1    3    3    0    0  0.23289920619E+02 -0.30659844830E+01 -0.13725973646E+02  0.27207039821E+02  0.00000000000E+00 0. -1.
</event>
<event>
 7    1  0.2505412E-009  0.4778727E+02  0.7816164E-02  0.1312668E+00
        -11   -1    0    0    0    0  0.00000000000E+00  0.00000000000E+00  0.45593999997E+02  0.45594000000E+02  0.51100000000E-03 0. -1.
         11   -1    0    0    0    0 -0.00000000000E+00 -0.00000000000E+00 -0.45593999997E+02  0.45594000000E+02  0.51100000000E-03 0.  1.
    9900012    2    1    2    0    0 -0.23110424538E+02 -0.35988398621E+02  0.73733876716E+01  0.47787269552E+02  0.19999993197E+02 0.  0.
        -12    1    1    2    0    0  0.23110424538E+02  0.35988398621E+02 -0.73733876716E+01  0.43400730448E+02  0.00000000000E+00 0.  1.
         11    1    3    3    0    0  0.13351341679E+00 -0.12933254405E+02  0.49202579373E+00  0.12943298844E+02  0.51100000000E-03 0. -1.
        -11    1    3    3    0    0 -0.12491758344E+02 -0.17148118636E+02  0.76481862586E+01  0.22552089761E+02  0.51100000000E-03 0.  1.
         12    1    3    3    0    0 -0.10752179611E+02 -0.59070255805E+01 -0.76682438074E+00  0.12291880947E+02  0.00000000000E+00 0. -1.
</event>
<event>
 7    1  0.2505412E-009  0.4778727E+02  0.7816164E-02  0.1312668E+00
        -11   -1    0    0    0    0  0.00000000000E+00  0.00000000000E+00  0.45593999997E+02  0.45594000000E+02  0.51100000000E-03 0.  1.
         11   -1    0    0    0    0 -0.00000000000E+00 -0.00000000000E+00 -0.45593999997E+02  0.45594000000E+02  0.51100000000E-03 0. -1.
    9900012    2    1    2    0    0 -0.32734133289E+02  0.27597633284E+02 -0.71042589068E+01  0.47787270286E+02  0.19999996544E+02 0.  0.
        -12    1    1    2    0    0  0.32734133289E+02 -0.27597633284E+02  0.71042589068E+01  0.43400729714E+02  0.00000000000E+00 0.  1.
         11    1    3    3    0    0 -0.18433557483E+02  0.15462419389E+02 -0.38770661010E+01  0.24370352821E+02  0.51100000000E-03 0. -1.
        -11    1    3    3    0    0 -0.32387335011E+00  0.78280376540E+01  0.16369965885E+01  0.80039256337E+01  0.51100000000E-03 0.  1.
        -12    1    3    3    0    0 -0.13976702456E+02  0.43071762409E+01 -0.48641893942E+01  0.15412991831E+02  0.00000000000E+00 0.  1.
</event>
<event>
 7    1  0.2505412E-009  0.4778729E+02  0.7816164E-02  0.1312668E+00
        -11   -1    0    0    0    0  0.00000000000E+00  0.00000000000E+00  0.45593999997E+02  0.45594000000E+02  0.51100000000E-03 0. -1.
         11   -1    0    0    0    0 -0.00000000000E+00 -0.00000000000E+00 -0.45593999997E+02  0.45594000000E+02  0.51100000000E-03 0.  1.
    9900012    2    1    2    0    0  0.37985477905E+02 -0.16823127826E+02  0.12558149292E+02  0.47787294071E+02  0.20000104987E+02 0.  0.
        -12    1    1    2    0    0 -0.37985477905E+02  0.16823127826E+02 -0.12558149292E+02  0.43400705929E+02  0.00000000000E+00 0.  1.
         11    1    3    3    0    0  0.10836672656E+02 -0.98369768232E+01  0.86964229414E+01  0.17024316712E+02  0.51100000000E-03 0. -1.
        -11    1    3    3    0    0  0.75330042828E+01 -0.38678649597E+01 -0.40455916233E+01  0.93847399919E+01  0.51100000000E-03 0.  1.
         12    1    3    3    0    0  0.19615800966E+02 -0.31182860432E+01  0.79073179739E+01  0.21378237367E+02  0.00000000000E+00 0. -1.
</event>
<event>
 7    1  0.2505412E-009  0.4778727E+02  0.7816164E-02  0.1312668E+00
        -11   -1    0    0    0    0  0.00000000000E+00  0.00000000000E+00  0.45593999997E+02  0.45594000000E+02  0.51100000000E-03 0.  1.
         11   -1    0    0    0    0 -0.00000000000E+00 -0.00000000000E+00 -0.45593999997E+02  0.45594000000E+02  0.51100000000E-03 0. -1.
    9900012    2    1    2    0    0  0.89388631016E+00  0.16596986703E+02 -0.40091950730E+02  0.47787268282E+02  0.19999987404E+02 0.  0.
        -12    1    1    2    0    0 -0.89388631016E+00 -0.16596986703E+02  0.40091950730E+02  0.43400731718E+02  0.00000000000E+00 0.  1.
         11    1    3    3    0    0  0.55748491186E+01  0.12079425468E+02 -0.14448111331E+02  0.19640249072E+02  0.51100000000E-03 0. -1.
        -11    1    3    3    0    0 -0.23403948231E+01  0.68485272017E+01 -0.22306958688E+02  0.23451656209E+02  0.51100000000E-03 0.  1.
        -12    1    3    3    0    0 -0.23405679854E+01 -0.23309659665E+01 -0.33368807107E+01  0.46953630007E+01  0.00000000000E+00 0.  1.
</event>
<event>
 7    1  0.2505412E-009  0.4778727E+02  0.7816164E-02  0.1312668E+00
        -11   -1    0    0    0    0  0.00000000000E+00  0.00000000000E+00  0.45593999997E+02  0.45594000000E+02  0.51100000000E-03 0. -1.
         11   -1    0    0    0    0 -0.00000000000E+00 -0.00000000000E+00 -0.45593999997E+02  0.45594000000E+02  0.51100000000E-03 0.  1.
    9900012    2    1    2    0    0 -0.42786061503E+02  0.67801249506E+01 -0.26469481161E+01  0.47787268582E+02  0.19999988774E+02 0.  0.
        -12    1    1    2    0    0  0.42786061503E+02 -0.67801249506E+01  0.26469481161E+01  0.43400731418E+02  0.00000000000E+00 0.  1.
         11    1    3    3    0    0 -0.13738790173E+02  0.36214407442E+01  0.20757682684E+01  0.14358899772E+02  0.51100000000E-03 0. -1.
        -11    1    3    3    0    0 -0.10882377203E+02 -0.19729982304E+00 -0.93907570003E+01  0.14375374016E+02  0.51100000000E-03 0.  1.
        -12    1    3    3    0    0 -0.18164894127E+02  0.33559840294E+01  0.46680406158E+01  0.19052994795E+02  0.00000000000E+00 0.  1.
</event>
<event>
 7    1  0.2505412E-009  0.4778727E+02  0.7816164E-02  0.1312668E+00
        -11   -1    0    0    0    0  0.00000000000E+00  0.00000000000E+00  0.45593999997E+02  0.45594000000E+02  0.51100000000E-03 0. -1.
         11   -1    0    0    0    0 -0.00000000000E+00 -0.00000000000E+00 -0.45593999997E+02  0.45594000000E+02  0.51100000000E-03 0.  1.
    9900012    2    1    2    0    0  0.14781531859E+02 -0.17240751239E+02  0.36984940739E+02  0.47787273867E+02  0.20000012870E+02 0.  0.
        -12    1    1    2    0    0 -0.14781531859E+02  0.17240751239E+02 -0.36984940739E+02  0.43400726133E+02  0.00000000000E+00 0.  1.
         11    1    3    3    0    0  0.79852331602E+01 -0.27907473542E+01  0.66053840544E+01  0.10732349146E+02  0.51100000000E-03 0. -1.
        -11    1    3    3    0    0 -0.42521595671E+00 -0.32528791671E+01  0.19722041357E+02  0.19993022459E+02  0.51100000000E-03 0.  1.
         12    1    3    3    0    0  0.72215146553E+01 -0.11197124718E+02  0.10657515328E+02  0.17061902263E+02  0.00000000000E+00 0. -1.
</event>
<event>
 7    1  0.2505412E-009  0.4778727E+02  0.7816164E-02  0.1312668E+00
        -11   -1    0    0    0    0  0.00000000000E+00  0.00000000000E+00  0.45593999997E+02  0.45594000000E+02  0.51100000000E-03 0.  1.
         11   -1    0    0    0    0 -0.00000000000E+00 -0.00000000000E+00 -0.45593999997E+02  0.45594000000E+02  0.51100000000E-03 0. -1.
    9900012    2    1    2    0    0 -0.35020287548E+02 -0.19061158605E+02 -0.17142789128E+02  0.47787268135E+02  0.19999986734E+02 0.  0.
        -12    1    1    2    0    0  0.35020287548E+02  0.19061158605E+02  0.17142789128E+02  0.43400731865E+02  0.00000000000E+00 0.  1.
         11    1    3    3    0    0 -0.32087177615E+02 -0.15044822942E+02 -0.18750305964E+02  0.40093735654E+02  0.51100000000E-03 0. -1.
        -11    1    3    3    0    0 -0.31684189385E+01  0.28175939987E+00  0.10674576923E+01  0.33552545530E+01  0.51100000000E-03 0.  1.
         12    1    3    3    0    0  0.23530900582E+00 -0.42980950632E+01  0.54005914368E+00  0.43382779278E+01  0.00000000000E+00 0. -1.
</event>
<event>
 7    1  0.2505412E-009  0.4778727E+02  0.7816164E-02  0.1312668E+00
        -11   -1    0    0    0    0  0.00000000000E+00  0.00000000000E+00  0.45593999997E+02  0.45594000000E+02  0.51100000000E-03 0.  1.
         11   -1    0    0    0    0 -0.00000000000E+00 -0.00000000000E+00 -0.45593999997E+02  0.45594000000E+02  0.51100000000E-03 0. -1.
    9900012    2    1    2    0    0  0.10412495771E+02 -0.30466312197E+02 -0.29103386339E+02  0.47787270243E+02  0.19999996344E+02 0.  0.
        -12    1    1    2    0    0 -0.10412495771E+02  0.30466312197E+02  0.29103386339E+02  0.43400729757E+02  0.00000000000E+00 0.  1.
         11    1    3    3    0    0  0.75176042256E+01 -0.11306808130E+02 -0.17269321739E+02  0.21967880120E+02  0.51100000000E-03 0. -1.
        -11    1    3    3    0    0  0.68307231717E+01 -0.16441698780E+02 -0.73449541701E+01  0.19259714168E+02  0.51100000000E-03 0.  1.
         12    1    3    3    0    0 -0.39358316265E+01 -0.27178052867E+01 -0.44891104307E+01  0.65596759544E+01  0.00000000000E+00 0. -1.
</event>
<event>
 7    1  0.2505412E-009  0.4778727E+02  0.7816164E-02  0.1312668E+00
        -11   -1    0    0    0    0  0.00000000000E+00  0.00000000000E+00  0.45593999997E+02  0.45594000000E+02  0.51100000000E-03 0.  1.
         11   -1    0    0    0    0 -0.00000000000E+00 -0.00000000000E+00 -0.45593999997E+02  0.45594000000E+02  0.51100000000E-03 0. -1.
    9900012    2    1    2    0    0 -0.43040384836E+02 -0.35832727276E+01  0.42788844489E+01  0.47787269334E+02  0.19999992199E+02 0.  0.
        -12    1    1    2    0    0  0.43040384836E+02  0.35832727276E+01 -0.42788844489E+01  0.43400730666E+02  0.00000000000E+00 0.  1.
         11    1    3    3    0    0 -0.31316484173E+02 -0.13199151000E+01  0.75715641577E+01  0.32245820519E+02  0.51100000000E-03 0. -1.
        -11    1    3    3    0    0 -0.22297149782E+01 -0.31784412496E+01  0.22722289083E+01  0.44985711214E+01  0.51100000000E-03 0.  1.
        -12    1    3    3    0    0 -0.94941856841E+01  0.91508362197E+00 -0.55649086171E+01  0.11042877694E+02  0.00000000000E+00 0.  1.
</event>
<event>
 7    1  0.2505412E-009  0.4778727E+02  0.7816164E-02  0.1312668E+00
        -11   -1    0    0    0    0  0.00000000000E+00  0.00000000000E+00  0.45593999997E+02  0.45594000000E+02  0.51100000000E-03 0. -1.
         11   -1    0    0    0    0 -0.00000000000E+00 -0.00000000000E+00 -0.45593999997E+02  0.45594000000E+02  0.51100000000E-03 0.  1.
    9900012    2    1    2    0    0  0.66319085926E+01  0.25143122544E+02  0.34748584707E+02  0.47787274638E+02  0.20000016384E+02 0.  0.
        -12    1    1    2    0    0 -0.66319085926E+01 -0.25143122544E+02 -0.34748584707E+02  0.43400725362E+02  0.00000000000E+00 0.  1.
         11    1    3    3    0    0  0.27218622717E+01  0.21052598176E+02  0.17910951297E+02  0.27774495510E+02  0.51100000000E-03 0. -1.
        -11    1    3    3    0    0 -0.13268129659E+01 -0.23690237557E+00 -0.46382225721E+00  0.14253724880E+01  0.51100000000E-03 0.  1.
        -12    1    3    3    0    0  0.52368592868E+01  0.43274267428E+01  0.17301455667E+02  0.18587406640E+02  0.00000000000E+00 0.  1.
</event>
<event>
 7    1  0.2505412E-009  0.4778727E+02  0.7816164E-02  0.1312668E+00
        -11   -1    0    0    0    0  0.00000000000E+00  0.00000000000E+00  0.45593999997E+02  0.45594000000E+02  0.51100000000E-03 0.  1.
         11   -1    0    0    0    0 -0.00000000000E+00 -0.00000000000E+00 -0.45593999997E+02  0.45594000000E+02  0.51100000000E-03 0. -1.
    9900012    2    1    2    0    0  0.37662738219E+02 -0.20007308806E+02 -0.80528864517E+01  0.47787271481E+02  0.20000001990E+02 0.  0.
        -12    1    1    2    0    0 -0.37662738219E+02  0.20007308806E+02  0.80528864517E+01  0.43400728519E+02  0.00000000000E+00 0.  1.
         11    1    3    3    0    0  0.46100898380E+01 -0.35913952027E+01 -0.60915033603E+01  0.84414134638E+01  0.51100000000E-03 0.  1.
        -11    1    3    3    0    0  0.91419606709E+01  0.13589436588E+01 -0.23998522349E+01  0.95488985640E+01  0.51100000000E-03 0. -1.
        -12    1    3    3    0    0  0.23910687710E+02 -0.17774857262E+02  0.43846914355E+00  0.29796959453E+02  0.00000000000E+00 0.  1.
</event>
<event>
 7    1  0.2505412E-009  0.4778727E+02  0.7816164E-02  0.1312668E+00
        -11   -1    0    0    0    0  0.00000000000E+00  0.00000000000E+00  0.45593999997E+02  0.45594000000E+02  0.51100000000E-03 0.  1.
         11   -1    0    0    0    0 -0.00000000000E+00 -0.00000000000E+00 -0.45593999997E+02  0.45594000000E+02  0.51100000000E-03 0. -1.
    9900012    2    1    2    0    0  0.22832887432E+02 -0.60332268567E+01 -0.36412670517E+02  0.47787272483E+02  0.20000006559E+02 0.  0.
        -12    1    1    2    0    0 -0.22832887432E+02  0.60332268567E+01  0.36412670517E+02  0.43400727517E+02  0.00000000000E+00 0.  1.
         11    1    3    3    0    0  0.12113353220E+02  0.26160571671E+01 -0.15004732462E+02  0.19460705995E+02  0.51100000000E-03 0. -1.
        -11    1    3    3    0    0  0.11694849429E+02 -0.90110277937E+01 -0.22440039096E+02  0.26861189101E+02  0.51100000000E-03 0.  1.
         12    1    3    3    0    0 -0.97531521663E+00  0.36174376992E+00  0.10321010401E+01  0.14653773861E+01  0.00000000000E+00 0. -1.
</event>
<event>
 7    1  0.2505412E-009  0.4778727E+02  0.7816164E-02  0.1312668E+00
        -11   -1    0    0    0    0  0.00000000000E+00  0.00000000000E+00  0.45593999997E+02  0.45594000000E+02  0.51100000000E-03 0.  1.
         11   -1    0    0    0    0 -0.00000000000E+00 -0.00000000000E+00 -0.45593999997E+02  0.45594000000E+02  0.51100000000E-03 0. -1.
    9900012    2    1    2    0    0  0.54287950111E+01  0.17799481599E+02 -0.39208798794E+02  0.47787271166E+02  0.20000000555E+02 0.  0.
        -12    1    1    2    0    0 -0.54287950111E+01 -0.17799481599E+02  0.39208798794E+02  0.43400728834E+02  0.00000000000E+00 0.  1.
         11    1    3    3    0    0  0.37712588530E+01  0.10277113650E+02 -0.22849957846E+02  0.25336969672E+02  0.51100000000E-03 0. -1.
        -11    1    3    3    0    0  0.21486609416E+01  0.20922802707E+01 -0.16719294673E+02  0.16986147156E+02  0.51100000000E-03 0.  1.
        -12    1    3    3    0    0 -0.49112478350E+00  0.54300876785E+01  0.36045372545E+00  0.54641543388E+01  0.00000000000E+00 0.  1.
</event>
<event>
 7    1  0.2505412E-009  0.4778725E+02  0.7816164E-02  0.1312668E+00
        -11   -1    0    0    0    0  0.00000000000E+00  0.00000000000E+00  0.45593999997E+02  0.45594000000E+02  0.51100000000E-03 0. -1.
         11   -1    0    0    0    0 -0.00000000000E+00 -0.00000000000E+00 -0.45593999997E+02  0.45594000000E+02  0.51100000000E-03 0.  1.
    9900012    2    1    2    0    0 -0.99883109809E+01 -0.15474377749E+02  0.39298880886E+02  0.47787253902E+02  0.19999921841E+02 0.  0.
        -12    1    1    2    0    0  0.99883109809E+01  0.15474377749E+02 -0.39298880886E+02  0.43400746098E+02  0.00000000000E+00 0.  1.
         11    1    3    3    0    0  0.19167689704E+01 -0.13804694796E+02  0.21897950541E+02  0.25956961299E+02  0.51100000000E-03 0.  1.
        -11    1    3    3    0    0 -0.28258324562E+01  0.14417661924E+01  0.69569777377E+01  0.76461466327E+01  0.51100000000E-03 0. -1.
        -12    1    3    3    0    0 -0.90792474950E+01 -0.31114491452E+01  0.10443952607E+02  0.14184145971E+02  0.00000000000E+00 0.  1.
</event>
<event>
 7    1  0.2505412E-009  0.4778727E+02  0.7816164E-02  0.1312668E+00
        -11   -1    0    0    0    0  0.00000000000E+00  0.00000000000E+00  0.45593999997E+02  0.45594000000E+02  0.51100000000E-03 0.  1.
         11   -1    0    0    0    0 -0.00000000000E+00 -0.00000000000E+00 -0.45593999997E+02  0.45594000000E+02  0.51100000000E-03 0. -1.
    9900012    2    1    2    0    0  0.28596056324E+02  0.27590619301E+02 -0.17454126864E+02  0.47787271259E+02  0.20000000977E+02 0.  0.
        -12    1    1    2    0    0 -0.28596056324E+02 -0.27590619301E+02  0.17454126864E+02  0.43400728741E+02  0.00000000000E+00 0.  1.
         11    1    3    3    0    0  0.10189683838E+02  0.18365886727E+02 -0.83469505440E+01  0.22601040588E+02  0.51100000000E-03 0. -1.
        -11    1    3    3    0    0 -0.99878103558E+00 -0.10566326478E+01 -0.12359317243E+00  0.14592161056E+01  0.51100000000E-03 0.  1.
        -12    1    3    3    0    0  0.19405153522E+02  0.10281365221E+02 -0.89835831478E+01  0.23727014565E+02  0.00000000000E+00 0.  1.
</event>
<event>
 7    1  0.2505412E-009  0.4778727E+02  0.7816164E-02  0.1312668E+00
        -11   -1    0    0    0    0  0.00000000000E+00  0.00000000000E+00  0.45593999997E+02  0.45594000000E+02  0.51100000000E-03 0.  1.
         11   -1    0    0    0    0 -0.00000000000E+00 -0.00000000000E+00 -0.45593999997E+02  0.45594000000E+02  0.51100000000E-03 0. -1.
    9900012    2    1    2    0    0  0.11305250615E+02 -0.18251178695E+02 -0.37718817809E+02  0.47787269221E+02  0.19999991685E+02 0.  0.
        -12    1    1    2    0    0 -0.11305250615E+02  0.18251178695E+02  0.37718817809E+02  0.43400730779E+02  0.00000000000E+00 0.  1.
         11    1    3    3    0    0 -0.15832978543E+01 -0.16705458744E+01 -0.10451010269E+02  0.10701456514E+02  0.51100000000E-03 0. -1.
        -11    1    3    3    0    0  0.31462756265E+01 -0.86172290842E+01 -0.28323681865E+01  0.96009373091E+01  0.51100000000E-03 0.  1.
         12    1    3    3    0    0  0.97422728431E+01 -0.79634037366E+01 -0.24435439353E+02  0.27484875398E+02  0.00000000000E+00 0. -1.
</event>
<event>
 7    1  0.2505412E-009  0.4778726E+02  0.7816164E-02  0.1312668E+00
        -11   -1    0    0    0    0  0.00000000000E+00  0.00000000000E+00  0.45593999997E+02  0.45594000000E+02  0.51100000000E-03 0. -1.
         11   -1    0    0    0    0 -0.00000000000E+00 -0.00000000000E+00 -0.45593999997E+02  0.45594000000E+02  0.51100000000E-03 0.  1.
    9900012    2    1    2    0    0  0.25388172610E+01 -0.19921589566E+01  0.43280590952E+02  0.47787264482E+02  0.19999970079E+02 0.  0.
        -12    1    1    2    0    0 -0.25388172610E+01  0.19921589566E+01 -0.43280590952E+02  0.43400735518E+02  0.00000000000E+00 0.  1.
         11    1    3    3    0    0  0.31101004607E+01 -0.25433690323E+00  0.19261492573E+02  0.19512624337E+02  0.51100000000E-03 0. -1.
        -11    1    3    3    0    0 -0.19323606876E+01 -0.38034049420E+01  0.14070268633E+00  0.42684545783E+01  0.51100000000E-03 0.  1.
        -12    1    3    3    0    0  0.13610774879E+01  0.20655828886E+01  0.23878395693E+02  0.24006185567E+02  0.00000000000E+00 0.  1.
</event>
<event>
 7    1  0.2505412E-009  0.4778727E+02  0.7816164E-02  0.1312668E+00
        -11   -1    0    0    0    0  0.00000000000E+00  0.00000000000E+00  0.45593999997E+02  0.45594000000E+02  0.51100000000E-03 0.  1.
         11   -1    0    0    0    0 -0.00000000000E+00 -0.00000000000E+00 -0.45593999997E+02  0.45594000000E+02  0.51100000000E-03 0. -1.
    9900012    2    1    2    0    0  0.15262463585E+02 -0.10067333836E+02 -0.39361519145E+02  0.47787271957E+02  0.20000004162E+02 0.  0.
        -12    1    1    2    0    0 -0.15262463585E+02  0.10067333836E+02  0.39361519145E+02  0.43400728043E+02  0.00000000000E+00 0.  1.
         11    1    3    3    0    0  0.29322819476E+01 -0.36320294650E+01 -0.29524497773E+02  0.29891234241E+02  0.51100000000E-03 0. -1.
        -11    1    3    3    0    0  0.72427899670E+01 -0.30183388564E+01 -0.86043935332E+01  0.11644911519E+02  0.51100000000E-03 0.  1.
         12    1    3    3    0    0  0.50873916705E+01 -0.34169655146E+01 -0.12326278385E+01  0.62511261965E+01  0.00000000000E+00 0. -1.
</event>
<event>
 7    1  0.2505412E-009  0.4778726E+02  0.7816164E-02  0.1312668E+00
        -11   -1    0    0    0    0  0.00000000000E+00  0.00000000000E+00  0.45593999997E+02  0.45594000000E+02  0.51100000000E-03 0.  1.
         11   -1    0    0    0    0 -0.00000000000E+00 -0.00000000000E+00 -0.45593999997E+02  0.45594000000E+02  0.51100000000E-03 0. -1.
    9900012    2    1    2    0    0  0.60134108633E+01 -0.35497717560E+02 -0.24235818851E+02  0.47787262937E+02  0.19999963037E+02 0.  0.
        -12    1    1    2    0    0 -0.60134108633E+01  0.35497717560E+02  0.24235818851E+02  0.43400737063E+02  0.00000000000E+00 0.  1.
         11    1    3    3    0    0 -0.70313933638E+00 -0.70695635646E+01 -0.87570579064E+01  0.11276488698E+02  0.51100000000E-03 0. -1.
        -11    1    3    3    0    0  0.11562019187E+02 -0.21930070554E+02 -0.10027470400E+02  0.26742446505E+02  0.51100000000E-03 0.  1.
        -12    1    3    3    0    0 -0.48454689875E+01 -0.64980834419E+01 -0.54512905450E+01  0.97683277347E+01  0.00000000000E+00 0.  1.
</event>
<event>
 7    1  0.2505412E-009  0.4778727E+02  0.7816164E-02  0.1312668E+00
        -11   -1    0    0    0    0  0.00000000000E+00  0.00000000000E+00  0.45593999997E+02  0.45594000000E+02  0.51100000000E-03 0.  1.
         11   -1    0    0    0    0 -0.00000000000E+00 -0.00000000000E+00 -0.45593999997E+02  0.45594000000E+02  0.51100000000E-03 0. -1.
    9900012    2    1    2    0    0 -0.21451279705E+02 -0.25656329338E+01 -0.37641515046E+02  0.47787268114E+02  0.19999986637E+02 0.  0.
        -12    1    1    2    0    0  0.21451279705E+02  0.25656329338E+01  0.37641515046E+02  0.43400731886E+02  0.00000000000E+00 0.  1.
         11    1    3    3    0    0 -0.93238331809E+01 -0.29627686048E+01 -0.24235857739E+02  0.26135964945E+02  0.51100000000E-03 0. -1.
        -11    1    3    3    0    0 -0.14317962764E+02 -0.47287268222E+00 -0.12815768553E+02  0.19221643795E+02  0.51100000000E-03 0.  1.
        -12    1    3    3    0    0  0.21905162404E+01  0.87000835316E+00 -0.58988875400E+00  0.24296593745E+01  0.00000000000E+00 0.  1.
</event>
<event>
 7    1  0.2505412E-009  0.4778727E+02  0.7816164E-02  0.1312668E+00
        -11   -1    0    0    0    0  0.00000000000E+00  0.00000000000E+00  0.45593999997E+02  0.45594000000E+02  0.51100000000E-03 0.  1.
         11   -1    0    0    0    0 -0.00000000000E+00 -0.00000000000E+00 -0.45593999997E+02  0.45594000000E+02  0.51100000000E-03 0. -1.
    9900012    2    1    2    0    0  0.29860679824E+02 -0.25293263544E+02 -0.18767356397E+02  0.47787273666E+02  0.20000011952E+02 0.  0.
        -12    1    1    2    0    0 -0.29860679824E+02  0.25293263544E+02  0.18767356397E+02  0.43400726334E+02  0.00000000000E+00 0.  1.
         11    1    3    3    0    0  0.82632081487E+01 -0.12393128087E+02 -0.11027879039E+02  0.18533330760E+02  0.51100000000E-03 0. -1.
        -11    1    3    3    0    0 -0.11647807095E+00 -0.45626683453E+00  0.22561490909E+01  0.23047680028E+01  0.51100000000E-03 0.  1.
        -12    1    3    3    0    0  0.21713949746E+02 -0.12443868622E+02 -0.99956264486E+01  0.26949174903E+02  0.00000000000E+00 0.  1.
</event>
<event>
 7    1  0.2505412E-009  0.4778727E+02  0.7816164E-02  0.1312668E+00
        -11   -1    0    0    0    0  0.00000000000E+00  0.00000000000E+00  0.45593999997E+02  0.45594000000E+02  0.51100000000E-03 0.  1.
         11   -1    0    0    0    0 -0.00000000000E+00 -0.00000000000E+00 -0.45593999997E+02  0.45594000000E+02  0.51100000000E-03 0. -1.
    9900012    2    1    2    0    0  0.17051256325E+02 -0.16628697336E+02 -0.36281740624E+02  0.47787267057E+02  0.19999981817E+02 0.  0.
        -12    1    1    2    0    0 -0.17051256325E+02  0.16628697336E+02  0.36281740624E+02  0.43400732943E+02  0.00000000000E+00 0.  1.
         11    1    3    3    0    0  0.14554515398E+02 -0.82832236106E+01 -0.26578426662E+02  0.31414303684E+02  0.51100000000E-03 0. -1.
        -11    1    3    3    0    0 -0.82643525078E-01 -0.74030616895E+01 -0.11060572183E+02  0.13309711101E+02  0.51100000000E-03 0.  1.
         12    1    3    3    0    0  0.25793844524E+01 -0.94241203550E+00  0.13572582212E+01  0.30632522712E+01  0.00000000000E+00 0. -1.
</event>
<event>
 7    1  0.2505412E-009  0.4778728E+02  0.7816164E-02  0.1312668E+00
        -11   -1    0    0    0    0  0.00000000000E+00  0.00000000000E+00  0.45593999997E+02  0.45594000000E+02  0.51100000000E-03 0. -1.
         11   -1    0    0    0    0 -0.00000000000E+00 -0.00000000000E+00 -0.45593999997E+02  0.45594000000E+02  0.51100000000E-03 0.  1.
    9900012    2    1    2    0    0 -0.73645198019E+01 -0.40132777245E+02 -0.14790094485E+02  0.47787275857E+02  0.20000021942E+02 0.  0.
        -12    1    1    2    0    0  0.73645198019E+01  0.40132777245E+02  0.14790094485E+02  0.43400724143E+02  0.00000000000E+00 0.  1.
         11    1    3    3    0    0  0.30797476243E+01 -0.38924151806E+01  0.10713245400E+01  0.50777433864E+01  0.51100000000E-03 0. -1.
        -11    1    3    3    0    0  0.15506540593E+01 -0.64831123634E+01 -0.64455650094E+01  0.92725715138E+01  0.51100000000E-03 0.  1.
         12    1    3    3    0    0 -0.11994921485E+02 -0.29757249701E+02 -0.94158540152E+01  0.33436960957E+02  0.00000000000E+00 0. -1.
</event>
<event>
 7    1  0.2505412E-009  0.4778728E+02  0.7816164E-02  0.1312668E+00
        -11   -1    0    0    0    0  0.00000000000E+00  0.00000000000E+00  0.45593999997E+02  0.45594000000E+02  0.51100000000E-03 0.  1.
         11   -1    0    0    0    0 -0.00000000000E+00 -0.00000000000E+00 -0.45593999997E+02  0.45594000000E+02  0.51100000000E-03 0. -1.
    9900012    2    1    2    0    0 -0.33121876372E+02 -0.13456933190E+02 -0.24606402700E+02  0.47787276514E+02  0.20000024939E+02 0.  0.
        -12    1    1    2    0    0  0.33121876372E+02  0.13456933190E+02  0.24606402700E+02  0.43400723486E+02  0.00000000000E+00 0.  1.
         11    1    3    3    0    0  0.15063332775E+01 -0.47844831148E+00 -0.25562821921E+01  0.30054170487E+01  0.51100000000E-03 0. -1.
        -11    1    3    3    0    0 -0.16394490634E+02 -0.92932882202E+01 -0.48806191376E+01  0.19467022693E+02  0.51100000000E-03 0.  1.
         12    1    3    3    0    0 -0.18233719015E+02 -0.36851966583E+01 -0.17169501370E+02  0.25314836773E+02  0.00000000000E+00 0. -1.
</event>
<event>
 7    1  0.2505412E-009  0.4778728E+02  0.7816164E-02  0.1312668E+00
        -11   -1    0    0    0    0  0.00000000000E+00  0.00000000000E+00  0.45593999997E+02  0.45594000000E+02  0.51100000000E-03 0.  1.
         11   -1    0    0    0    0 -0.00000000000E+00 -0.00000000000E+00 -0.45593999997E+02  0.45594000000E+02  0.51100000000E-03 0. -1.
    9900012    2    1    2    0    0  0.38578599767E+02 -0.15673838712E+02 -0.12232945575E+02  0.47787279529E+02  0.20000038686E+02 0.  0.
        -12    1    1    2    0    0 -0.38578599767E+02  0.15673838712E+02  0.12232945575E+02  0.43400720471E+02  0.00000000000E+00 0.  1.
         11    1    3    3    0    0  0.21237873858E+02 -0.12731248614E+02 -0.89649123706E+01  0.26334419138E+02  0.51100000000E-03 0. -1.
        -11    1    3    3    0    0  0.18445616936E+02 -0.47641504582E+01 -0.32249585732E+01  0.19321963456E+02  0.51100000000E-03 0.  1.
        -12    1    3    3    0    0 -0.11048910266E+01  0.18215603599E+01 -0.43074630909E-01  0.21308969354E+01  0.00000000000E+00 0.  1.
</event>
<event>
 7    1  0.2505412E-009  0.4778723E+02  0.7816164E-02  0.1312668E+00
        -11   -1    0    0    0    0  0.00000000000E+00  0.00000000000E+00  0.45593999997E+02  0.45594000000E+02  0.51100000000E-03 0.  1.
         11   -1    0    0    0    0 -0.00000000000E+00 -0.00000000000E+00 -0.45593999997E+02  0.45594000000E+02  0.51100000000E-03 0. -1.
    9900012    2    1    2    0    0  0.30538986240E+02  0.26493963740E+02 -0.15781858771E+02  0.47787229713E+02  0.19999811554E+02 0.  0.
        -12    1    1    2    0    0 -0.30538986240E+02 -0.26493963740E+02  0.15781858771E+02  0.43400770287E+02  0.00000000000E+00 0.  1.
         11    1    3    3    0    0  0.15623803549E+02  0.92836432636E+01 -0.67686162207E+01  0.19393386383E+02  0.51100000000E-03 0. -1.
        -11    1    3    3    0    0  0.16260952281E+02  0.10929930465E+02 -0.34454026358E+01  0.19893535348E+02  0.51100000000E-03 0.  1.
        -12    1    3    3    0    0 -0.13457695904E+01  0.62803900114E+01 -0.55678399143E+01  0.85003079825E+01  0.00000000000E+00 0.  1.
</event>
<event>
 7    1  0.2505412E-009  0.4778727E+02  0.7816164E-02  0.1312668E+00
        -11   -1    0    0    0    0  0.00000000000E+00  0.00000000000E+00  0.45593999997E+02  0.45594000000E+02  0.51100000000E-03 0.  1.
         11   -1    0    0    0    0 -0.00000000000E+00 -0.00000000000E+00 -0.45593999997E+02  0.45594000000E+02  0.51100000000E-03 0. -1.
    9900012    2    1    2    0    0  0.18512620317E+02 -0.15344849479E+02 -0.36130899745E+02  0.47787269212E+02  0.19999991643E+02 0.  0.
        -12    1    1    2    0    0 -0.18512620317E+02  0.15344849479E+02  0.36130899745E+02  0.43400730788E+02  0.00000000000E+00 0.  1.
         11    1    3    3    0    0  0.89031454327E+01 -0.94603088416E+01 -0.16041386895E+02  0.20641936337E+02  0.51100000000E-03 0. -1.
        -11    1    3    3    0    0  0.19735438284E+01  0.26554984626E+01 -0.13562929303E+02  0.13960644644E+02  0.51100000000E-03 0.  1.
         12    1    3    3    0    0  0.76359310562E+01 -0.85400391004E+01 -0.65265835468E+01  0.13184688230E+02  0.00000000000E+00 0. -1.
</event>
<event>
 7    1  0.2505412E-009  0.4778727E+02  0.7816164E-02  0.1312668E+00
        -11   -1    0    0    0    0  0.00000000000E+00  0.00000000000E+00  0.45593999997E+02  0.45594000000E+02  0.51100000000E-03 0. -1.
         11   -1    0    0    0    0 -0.00000000000E+00 -0.00000000000E+00 -0.45593999997E+02  0.45594000000E+02  0.51100000000E-03 0.  1.
    9900012    2    1    2    0    0  0.16609247097E+02 -0.12132566137E+02  0.38217238441E+02  0.47787267700E+02  0.19999984750E+02 0.  0.
        -12    1    1    2    0    0 -0.16609247097E+02  0.12132566137E+02 -0.38217238441E+02  0.43400732300E+02  0.00000000000E+00 0.  1.
         11    1    3    3    0    0  0.79152517324E+01 -0.46318387744E+01  0.11772849181E+02  0.14923307895E+02  0.51100000000E-03 0. -1.
        -11    1    3    3    0    0 -0.27345708498E+01 -0.57131281614E+01  0.36700629996E+01  0.73203192419E+01  0.51100000000E-03 0.  1.
        -12    1    3    3    0    0  0.11428566214E+02 -0.17875992008E+01  0.22774326260E+02  0.25543640563E+02  0.00000000000E+00 0.  1.
</event>
<event>
 7    1  0.2505412E-009  0.4778727E+02  0.7816164E-02  0.1312668E+00
        -11   -1    0    0    0    0  0.00000000000E+00  0.00000000000E+00  0.45593999997E+02  0.45594000000E+02  0.51100000000E-03 0.  1.
         11   -1    0    0    0    0 -0.00000000000E+00 -0.00000000000E+00 -0.45593999997E+02  0.45594000000E+02  0.51100000000E-03 0. -1.
    9900012    2    1    2    0    0  0.23560802469E+02 -0.36414044711E+02  0.15903424447E+01  0.47787271270E+02  0.20000001027E+02 0.  0.
        -12    1    1    2    0    0 -0.23560802469E+02  0.36414044711E+02 -0.15903424447E+01  0.43400728730E+02  0.00000000000E+00 0.  1.
         11    1    3    3    0    0  0.16669337907E+01  0.14327973138E+01  0.10841509136E+01  0.24509100085E+01  0.51100000000E-03 0. -1.
        -11    1    3    3    0    0 -0.91641156667E+00 -0.50835273993E+00  0.11778020511E+01  0.15765311924E+01  0.51100000000E-03 0.  1.
         12    1    3    3    0    0  0.22810280245E+02 -0.37338489285E+02 -0.67161052004E+00  0.43759830069E+02  0.00000000000E+00 0. -1.
</event>
<event>
 7    1  0.2505412E-009  0.4778727E+02  0.7816164E-02  0.1312668E+00
        -11   -1    0    0    0    0  0.00000000000E+00  0.00000000000E+00  0.45593999997E+02  0.45594000000E+02  0.51100000000E-03 0.  1.
         11   -1    0    0    0    0 -0.00000000000E+00 -0.00000000000E+00 -0.45593999997E+02  0.45594000000E+02  0.51100000000E-03 0. -1.
    9900012    2    1    2    0    0 -0.16251611637E+02 -0.61735435886E+01 -0.39766766200E+02  0.47787271720E+02  0.20000003082E+02 0.  0.
        -12    1    1    2    0    0  0.16251611637E+02  0.61735435886E+01  0.39766766200E+02  0.43400728280E+02  0.00000000000E+00 0.  1.
         11    1    3    3    0    0  0.91893059484E+00 -0.12035677443E+01 -0.55463098327E+00  0.16126452003E+01  0.51100000000E-03 0.  1.
        -11    1    3    3    0    0  0.13663612518E+00 -0.32971829778E+01 -0.21706395726E-01  0.33000843093E+01  0.51100000000E-03 0. -1.
         12    1    3    3    0    0 -0.17307178357E+02 -0.16727928664E+01 -0.39190428821E+02  0.42874542211E+02  0.00000000000E+00 0. -1.
</event>
<event>
 7    1  0.2505412E-009  0.4778727E+02  0.7816164E-02  0.1312668E+00
        -11   -1    0    0    0    0  0.00000000000E+00  0.00000000000E+00  0.45593999997E+02  0.45594000000E+02  0.51100000000E-03 0.  1.
         11   -1    0    0    0    0 -0.00000000000E+00 -0.00000000000E+00 -0.45593999997E+02  0.45594000000E+02  0.51100000000E-03 0. -1.
    9900012    2    1    2    0    0  0.37871098221E+02 -0.17991914901E+02 -0.11211358439E+02  0.47787266823E+02  0.19999980753E+02 0.  0.
        -12    1    1    2    0    0 -0.37871098221E+02  0.17991914901E+02  0.11211358439E+02  0.43400733177E+02  0.00000000000E+00 0.  1.
         11    1    3    3    0    0  0.64798959959E+01 -0.15281664692E+01 -0.82823304310E+01  0.10626445431E+02  0.51100000000E-03 0.  1.
        -11    1    3    3    0    0  0.97383663515E+01 -0.10792978601E+02 -0.26465773102E+01  0.14775944572E+02  0.51100000000E-03 0. -1.
         12    1    3    3    0    0  0.21652835874E+02 -0.56707698309E+01 -0.28245069742E+00  0.22384876820E+02  0.00000000000E+00 0. -1.
</event>
<event>
 7    1  0.2505412E-009  0.4778727E+02  0.7816164E-02  0.1312668E+00
        -11   -1    0    0    0    0  0.00000000000E+00  0.00000000000E+00  0.45593999997E+02  0.45594000000E+02  0.51100000000E-03 0.  1.
         11   -1    0    0    0    0 -0.00000000000E+00 -0.00000000000E+00 -0.45593999997E+02  0.45594000000E+02  0.51100000000E-03 0. -1.
    9900012    2    1    2    0    0  0.31604174818E+02  0.25661485321E+02  0.15042852607E+02  0.47787272939E+02  0.20000008638E+02 0.  0.
        -12    1    1    2    0    0 -0.31604174818E+02 -0.25661485321E+02 -0.15042852607E+02  0.43400727061E+02  0.00000000000E+00 0.  1.
         11    1    3    3    0    0  0.15470574413E+02  0.68421750520E+01 -0.67636856357E+00  0.16929604449E+02  0.51100000000E-03 0. -1.
        -11    1    3    3    0    0  0.11366295841E+02  0.65361428844E+01  0.10020369816E+02  0.16502171265E+02  0.51100000000E-03 0.  1.
         12    1    3    3    0    0  0.47673045650E+01  0.12283167385E+02  0.56988513552E+01  0.14355497225E+02  0.00000000000E+00 0. -1.
</event>
<event>
 7    1  0.2505412E-009  0.4778727E+02  0.7816164E-02  0.1312668E+00
        -11   -1    0    0    0    0  0.00000000000E+00  0.00000000000E+00  0.45593999997E+02  0.45594000000E+02  0.51100000000E-03 0.  1.
         11   -1    0    0    0    0 -0.00000000000E+00 -0.00000000000E+00 -0.45593999997E+02  0.45594000000E+02  0.51100000000E-03 0. -1.
    9900012    2    1    2    0    0 -0.38482355390E+02 -0.37086633128E+01 -0.19722511227E+02  0.47787270640E+02  0.19999998154E+02 0.  0.
        -12    1    1    2    0    0  0.38482355390E+02  0.37086633128E+01  0.19722511227E+02  0.43400729360E+02  0.00000000000E+00 0.  1.
         11    1    3    3    0    0 -0.10002098307E+02 -0.57714335818E+01 -0.99483683486E+01  0.15242094646E+02  0.51100000000E-03 0. -1.
        -11    1    3    3    0    0 -0.27637000558E+02  0.14292045351E+01 -0.11937146928E+02  0.30138711029E+02  0.51100000000E-03 0.  1.
         12    1    3    3    0    0 -0.84325652463E+00  0.63356573391E+00  0.21630040499E+01  0.24064649645E+01  0.00000000000E+00 0. -1.
</event>
<event>
 7    1  0.2505412E-009  0.4778727E+02  0.7816164E-02  0.1312668E+00
        -11   -1    0    0    0    0  0.00000000000E+00  0.00000000000E+00  0.45593999997E+02  0.45594000000E+02  0.51100000000E-03 0.  1.
         11   -1    0    0    0    0 -0.00000000000E+00 -0.00000000000E+00 -0.45593999997E+02  0.45594000000E+02  0.51100000000E-03 0. -1.
    9900012    2    1    2    0    0 -0.13438456766E+01 -0.10050153877E+02 -0.42199664923E+02  0.47787271507E+02  0.20000002107E+02 0.  0.
        -12    1    1    2    0    0  0.13438456766E+01  0.10050153877E+02  0.42199664923E+02  0.43400728493E+02  0.00000000000E+00 0.  1.
         11    1    3    3    0    0 -0.34215972071E+01  0.18474771767E+01 -0.17087033120E+02  0.17523903688E+02  0.51100000000E-03 0. -1.
        -11    1    3    3    0    0 -0.18627376673E+01  0.14967972514E+01 -0.14689351146E+01  0.28049891731E+01  0.51100000000E-03 0.  1.
         12    1    3    3    0    0  0.39404891978E+01 -0.13394428305E+02 -0.23643696688E+02  0.27458378646E+02  0.00000000000E+00 0. -1.
</event>
<event>
 7    1  0.2505412E-009  0.4778727E+02  0.7816164E-02  0.1312668E+00
        -11   -1    0    0    0    0  0.00000000000E+00  0.00000000000E+00  0.45593999997E+02  0.45594000000E+02  0.51100000000E-03 0. -1.
         11   -1    0    0    0    0 -0.00000000000E+00 -0.00000000000E+00 -0.45593999997E+02  0.45594000000E+02  0.51100000000E-03 0.  1.
    9900012    2    1    2    0    0  0.19801149543E+02 -0.30139971129E+02  0.24147870551E+02  0.47787273796E+02  0.20000012544E+02 0.  0.
        -12    1    1    2    0    0 -0.19801149543E+02  0.30139971129E+02 -0.24147870551E+02  0.43400726204E+02  0.00000000000E+00 0.  1.
         11    1    3    3    0    0 -0.23774676582E+01 -0.37012988397E+00  0.52471239873E+00  0.24626554690E+01  0.51100000000E-03 0. -1.
        -11    1    3    3    0    0  0.84532698407E+01 -0.14297928170E+02  0.16598149935E+02  0.23481633301E+02  0.51100000000E-03 0.  1.
        -12    1    3    3    0    0  0.13725347361E+02 -0.15471913075E+02  0.70250082178E+01  0.21842985026E+02  0.00000000000E+00 0.  1.
</event>
<event>
 7    1  0.2505412E-009  0.4778727E+02  0.7816164E-02  0.1312668E+00
        -11   -1    0    0    0    0  0.00000000000E+00  0.00000000000E+00  0.45593999997E+02  0.45594000000E+02  0.51100000000E-03 0.  1.
         11   -1    0    0    0    0 -0.00000000000E+00 -0.00000000000E+00 -0.45593999997E+02  0.45594000000E+02  0.51100000000E-03 0. -1.
    9900012    2    1    2    0    0 -0.23181725797E+02  0.73864471313E+01 -0.35939826030E+02  0.47787272964E+02  0.20000008753E+02 0.  0.
        -12    1    1    2    0    0  0.23181725797E+02 -0.73864471313E+01  0.35939826030E+02  0.43400727036E+02  0.00000000000E+00 0.  1.
         11    1    3    3    0    0 -0.57522914885E+01  0.27024053402E+01 -0.12737978874E+01  0.64818526141E+01  0.51100000000E-03 0. -1.
        -11    1    3    3    0    0 -0.56593264990E+01 -0.20951495817E+01 -0.27746767228E+01  0.66420222349E+01  0.51100000000E-03 0.  1.
         12    1    3    3    0    0 -0.11770107810E+02  0.67791913728E+01 -0.31891351420E+02  0.34663398115E+02  0.00000000000E+00 0. -1.
</event>
<event>
 7    1  0.2505412E-009  0.4778729E+02  0.7816164E-02  0.1312668E+00
        -11   -1    0    0    0    0  0.00000000000E+00  0.00000000000E+00  0.45593999997E+02  0.45594000000E+02  0.51100000000E-03 0. -1.
         11   -1    0    0    0    0 -0.00000000000E+00 -0.00000000000E+00 -0.45593999997E+02  0.45594000000E+02  0.51100000000E-03 0.  1.
    9900012    2    1    2    0    0  0.32112244786E+02  0.22208703072E+02  0.18952549179E+02  0.47787287129E+02  0.20000073335E+02 0.  0.
        -12    1    1    2    0    0 -0.32112244786E+02 -0.22208703072E+02 -0.18952549179E+02  0.43400712871E+02  0.00000000000E+00 0.  1.
         11    1    3    3    0    0  0.95511585529E+01  0.15230941807E+02  0.14964219800E+02  0.23390897643E+02  0.51100000000E-03 0. -1.
        -11    1    3    3    0    0  0.40664162881E+01 -0.45522239264E+00  0.12952632907E+00  0.40938668989E+01  0.51100000000E-03 0.  1.
         12    1    3    3    0    0  0.18494669945E+02  0.74329836572E+01  0.38588030493E+01  0.20302522587E+02  0.00000000000E+00 0. -1.
</event>
<event>
 7    1  0.2505412E-009  0.4778727E+02  0.7816164E-02  0.1312668E+00
        -11   -1    0    0    0    0  0.00000000000E+00  0.00000000000E+00  0.45593999997E+02  0.45594000000E+02  0.51100000000E-03 0.  1.
         11   -1    0    0    0    0 -0.00000000000E+00 -0.00000000000E+00 -0.45593999997E+02  0.45594000000E+02  0.51100000000E-03 0. -1.
    9900012    2    1    2    0    0  0.17746512018E+02  0.11224323451E+02 -0.37982883386E+02  0.47787267794E+02  0.19999985179E+02 0.  0.
        -12    1    1    2    0    0 -0.17746512018E+02 -0.11224323451E+02  0.37982883386E+02  0.43400732206E+02  0.00000000000E+00 0.  1.
         11    1    3    3    0    0  0.76634058828E+01 -0.79708766556E+00 -0.22409307665E+02  0.23696839636E+02  0.51100000000E-03 0. -1.
        -11    1    3    3    0    0  0.25067548928E+01  0.24061445454E+01  0.87822105913E+00  0.35839397534E+01  0.51100000000E-03 0.  1.
        -12    1    3    3    0    0  0.75763512427E+01  0.96152665712E+01 -0.16451796780E+02  0.20506488404E+02  0.00000000000E+00 0.  1.
</event>
<event>
 7    1  0.2505412E-009  0.4778727E+02  0.7816164E-02  0.1312668E+00
        -11   -1    0    0    0    0  0.00000000000E+00  0.00000000000E+00  0.45593999997E+02  0.45594000000E+02  0.51100000000E-03 0.  1.
         11   -1    0    0    0    0 -0.00000000000E+00 -0.00000000000E+00 -0.45593999997E+02  0.45594000000E+02  0.51100000000E-03 0. -1.
    9900012    2    1    2    0    0 -0.26335795488E+01 -0.36349659596E+02 -0.23566706777E+02  0.47787272330E+02  0.20000005860E+02 0.  0.
        -12    1    1    2    0    0  0.26335795488E+01  0.36349659596E+02  0.23566706777E+02  0.43400727670E+02  0.00000000000E+00 0.  1.
         11    1    3    3    0    0 -0.76128416931E+01 -0.14236297281E+02 -0.12592964408E+02  0.20474625071E+02  0.51100000000E-03 0. -1.
        -11    1    3    3    0    0  0.35334904269E+01 -0.44519011542E+01 -0.72374864457E+01  0.92025099183E+01  0.51100000000E-03 0.  1.
         12    1    3    3    0    0  0.14457717174E+01 -0.17661461161E+02 -0.37362559229E+01  0.18110137341E+02  0.00000000000E+00 0. -1.
</event>
<event>
 7    1  0.2505412E-009  0.4778728E+02  0.7816164E-02  0.1312668E+00
        -11   -1    0    0    0    0  0.00000000000E+00  0.00000000000E+00  0.45593999997E+02  0.45594000000E+02  0.51100000000E-03 0.  1.
         11   -1    0    0    0    0 -0.00000000000E+00 -0.00000000000E+00 -0.45593999997E+02  0.45594000000E+02  0.51100000000E-03 0. -1.
    9900012    2    1    2    0    0 -0.38318545910E+01 -0.25837750520E+02 -0.34660501863E+02  0.47787275917E+02  0.20000022215E+02 0.  0.
        -12    1    1    2    0    0  0.38318545910E+01  0.25837750520E+02  0.34660501863E+02  0.43400724083E+02  0.00000000000E+00 0.  1.
         11    1    3    3    0    0  0.63935572060E+01 -0.75835313261E+01 -0.85496429549E+01  0.13095186751E+02  0.51100000000E-03 0. -1.
        -11    1    3    3    0    0 -0.37328214672E+01 -0.14449076373E+02 -0.14179015659E+02  0.20585292066E+02  0.51100000000E-03 0.  1.
        -12    1    3    3    0    0 -0.64925903298E+01 -0.38051428206E+01 -0.11931843249E+02  0.14106797099E+02  0.00000000000E+00 0.  1.
</event>
<event>
 7    1  0.2505412E-009  0.4778724E+02  0.7816164E-02  0.1312668E+00
        -11   -1    0    0    0    0  0.00000000000E+00  0.00000000000E+00  0.45593999997E+02  0.45594000000E+02  0.51100000000E-03 0. -1.
         11   -1    0    0    0    0 -0.00000000000E+00 -0.00000000000E+00 -0.45593999997E+02  0.45594000000E+02  0.51100000000E-03 0.  1.
    9900012    2    1    2    0    0 -0.28174566490E+02  0.32121929215E+02 -0.76158419264E+01  0.47787244458E+02  0.19999878781E+02 0.  0.
        -12    1    1    2    0    0  0.28174566490E+02 -0.32121929215E+02  0.76158419264E+01  0.43400755542E+02  0.00000000000E+00 0.  1.
         11    1    3    3    0    0 -0.15742351736E+02  0.13667893935E+02  0.99709671469E+00  0.20871683328E+02  0.51100000000E-03 0. -1.
        -11    1    3    3    0    0 -0.86835037217E+00 -0.18954924790E+01 -0.50387972248E+00  0.21449520140E+01  0.51100000000E-03 0.  1.
        -12    1    3    3    0    0 -0.11563864381E+02  0.20349527759E+02 -0.81090589186E+01  0.24770609116E+02  0.00000000000E+00 0.  1.
</event>
<event>
 7    1  0.2505412E-009  0.4778727E+02  0.7816164E-02  0.1312668E+00
        -11   -1    0    0    0    0  0.00000000000E+00  0.00000000000E+00  0.45593999997E+02  0.45594000000E+02  0.51100000000E-03 0. -1.
         11   -1    0    0    0    0 -0.00000000000E+00 -0.00000000000E+00 -0.45593999997E+02  0.45594000000E+02  0.51100000000E-03 0.  1.
    9900012    2    1    2    0    0  0.20000496987E+02  0.21231978722E+02  0.32137302094E+02  0.47787274360E+02  0.20000015118E+02 0.  0.
        -12    1    1    2    0    0 -0.20000496987E+02 -0.21231978722E+02 -0.32137302094E+02  0.43400725640E+02  0.00000000000E+00 0.  1.
         11    1    3    3    0    0  0.83965962965E+01  0.95748273030E+01  0.15234208152E+02  0.19856012831E+02  0.51100000000E-03 0. -1.
        -11    1    3    3    0    0  0.29299314446E+01  0.10171238491E+02  0.22234434905E+01  0.10815835240E+02  0.51100000000E-03 0.  1.
        -12    1    3    3    0    0  0.86739692455E+01  0.14859129277E+01  0.14679650451E+02  0.17115426289E+02  0.00000000000E+00 0.  1.
</event>
<event>
 7    1  0.2505412E-009  0.4778727E+02  0.7816164E-02  0.1312668E+00
        -11   -1    0    0    0    0  0.00000000000E+00  0.00000000000E+00  0.45593999997E+02  0.45594000000E+02  0.51100000000E-03 0.  1.
         11   -1    0    0    0    0 -0.00000000000E+00 -0.00000000000E+00 -0.45593999997E+02  0.45594000000E+02  0.51100000000E-03 0. -1.
    9900012    2    1    2    0    0  0.15172345702E+02  0.22256962972E+02 -0.34030146815E+02  0.47787269970E+02  0.19999995103E+02 0.  0.
        -12    1    1    2    0    0 -0.15172345702E+02 -0.22256962972E+02  0.34030146815E+02  0.43400730030E+02  0.00000000000E+00 0.  1.
         11    1    3    3    0    0  0.39279337170E+01  0.80390544324E+01 -0.64047842063E+01  0.11003468564E+02  0.51100000000E-03 0. -1.
        -11    1    3    3    0    0  0.15081103447E+02  0.11979181483E+02 -0.18855546021E+02  0.26953146128E+02  0.51100000000E-03 0.  1.
        -12    1    3    3    0    0 -0.38366914625E+01  0.22387270565E+01 -0.87698165877E+01  0.98306552780E+01  0.00000000000E+00 0.  1.
</event>
<event>
 7    1  0.2505412E-009  0.4778730E+02  0.7816164E-02  0.1312668E+00
        -11   -1    0    0    0    0  0.00000000000E+00  0.00000000000E+00  0.45593999997E+02  0.45594000000E+02  0.51100000000E-03 0. -1.
         11   -1    0    0    0    0 -0.00000000000E+00 -0.00000000000E+00 -0.45593999997E+02  0.45594000000E+02  0.51100000000E-03 0.  1.
    9900012    2    1    2    0    0  0.41389481406E+02 -0.12522044150E+02 -0.37054358144E+01  0.47787297064E+02  0.20000118633E+02 0.  0.
        -12    1    1    2    0    0 -0.41389481406E+02  0.12522044150E+02  0.37054358144E+01  0.43400702936E+02  0.00000000000E+00 0.  1.
         11    1    3    3    0    0  0.14575805356E+02 -0.17977596487E+01 -0.53637612868E+00  0.14696045085E+02  0.51100000000E-03 0. -1.
        -11    1    3    3    0    0  0.10287121278E+02 -0.11633637581E+02 -0.52867836583E+01  0.16404769710E+02  0.51100000000E-03 0.  1.
        -12    1    3    3    0    0  0.16526554772E+02  0.90935307917E+00  0.21177239726E+01  0.16686482268E+02  0.00000000000E+00 0.  1.
</event>
<event>
 7    1  0.2505412E-009  0.4778727E+02  0.7816164E-02  0.1312668E+00
        -11   -1    0    0    0    0  0.00000000000E+00  0.00000000000E+00  0.45593999997E+02  0.45594000000E+02  0.51100000000E-03 0.  1.
         11   -1    0    0    0    0 -0.00000000000E+00 -0.00000000000E+00 -0.45593999997E+02  0.45594000000E+02  0.51100000000E-03 0. -1.
    9900012    2    1    2    0    0 -0.30942364482E+02  0.22263823313E+02 -0.20748869468E+02  0.47787270370E+02  0.19999996923E+02 0.  0.
        -12    1    1    2    0    0  0.30942364482E+02 -0.22263823313E+02  0.20748869468E+02  0.43400729630E+02  0.00000000000E+00 0.  1.
         11    1    3    3    0    0 -0.14736027688E+02  0.83928646620E+01 -0.16363108236E+02  0.23565695421E+02  0.51100000000E-03 0.  1.
        -11    1    3    3    0    0 -0.13235712705E+02  0.13661267116E+02 -0.69903817723E+01  0.20265234951E+02  0.51100000000E-03 0. -1.
        -12    1    3    3    0    0 -0.29706240897E+01  0.20969153440E+00  0.26046205404E+01  0.39563399982E+01  0.00000000000E+00 0.  1.
</event>
<event>
 7    1  0.2505412E-009  0.4778728E+02  0.7816164E-02  0.1312668E+00
        -11   -1    0    0    0    0  0.00000000000E+00  0.00000000000E+00  0.45593999997E+02  0.45594000000E+02  0.51100000000E-03 0.  1.
         11   -1    0    0    0    0 -0.00000000000E+00 -0.00000000000E+00 -0.45593999997E+02  0.45594000000E+02  0.51100000000E-03 0. -1.
    9900012    2    1    2    0    0  0.88559555235E+01 -0.26866304888E+02 -0.32914978445E+02  0.47787284654E+02  0.20000062050E+02 0.  0.
        -12    1    1    2    0    0 -0.88559555235E+01  0.26866304888E+02  0.32914978445E+02  0.43400715346E+02  0.00000000000E+00 0.  1.
         11    1    3    3    0    0  0.65333209815E+01 -0.19754481796E+02 -0.25971679856E+02  0.33278401237E+02  0.51100000000E-03 0. -1.
        -11    1    3    3    0    0 -0.14964097352E+01 -0.84679035859E+01 -0.39074895025E+01  0.94452690649E+01  0.51100000000E-03 0.  1.
        -12    1    3    3    0    0  0.38190442771E+01  0.13560804939E+01 -0.30358090858E+01  0.50636143516E+01  0.00000000000E+00 0.  1.
</event>
<event>
 7    1  0.2505412E-009  0.4778727E+02  0.7816164E-02  0.1312668E+00
        -11   -1    0    0    0    0  0.00000000000E+00  0.00000000000E+00  0.45593999997E+02  0.45594000000E+02  0.51100000000E-03 0. -1.
         11   -1    0    0    0    0 -0.00000000000E+00 -0.00000000000E+00 -0.45593999997E+02  0.45594000000E+02  0.51100000000E-03 0.  1.
    9900012    2    1    2    0    0  0.16926776729E+02  0.10579751544E+02  0.38537988416E+02  0.47787268851E+02  0.19999989999E+02 0.  0.
        -12    1    1    2    0    0 -0.16926776729E+02 -0.10579751544E+02 -0.38537988416E+02  0.43400731149E+02  0.00000000000E+00 0.  1.
         11    1    3    3    0    0  0.75313814918E+01  0.27175972419E+00  0.11060252197E+02  0.13383749080E+02  0.51100000000E-03 0. -1.
        -11    1    3    3    0    0  0.65569817933E+01 -0.17019930864E+01  0.39660009945E+01  0.78498378871E+01  0.51100000000E-03 0.  1.
         12    1    3    3    0    0  0.28384134439E+01  0.12009984906E+02  0.23511735224E+02  0.26553681884E+02  0.00000000000E+00 0. -1.
</event>
<event>
 7    1  0.2505412E-009  0.4778727E+02  0.7816164E-02  0.1312668E+00
        -11   -1    0    0    0    0  0.00000000000E+00  0.00000000000E+00  0.45593999997E+02  0.45594000000E+02  0.51100000000E-03 0.  1.
         11   -1    0    0    0    0 -0.00000000000E+00 -0.00000000000E+00 -0.45593999997E+02  0.45594000000E+02  0.51100000000E-03 0. -1.
    9900012    2    1    2    0    0 -0.11881268640E+02 -0.30694757693E+02 -0.28289411574E+02  0.47787268422E+02  0.19999988042E+02 0.  0.
        -12    1    1    2    0    0  0.11881268640E+02  0.30694757693E+02  0.28289411574E+02  0.43400731578E+02  0.00000000000E+00 0.  1.
         11    1    3    3    0    0 -0.66900167621E+00  0.10557164645E+01 -0.58104172419E+00  0.13782997652E+01  0.51100000000E-03 0. -1.
        -11    1    3    3    0    0 -0.55113738543E+01 -0.52454219783E+01  0.48507605406E-01  0.76086823262E+01  0.51100000000E-03 0.  1.
         12    1    3    3    0    0 -0.57008931095E+01 -0.26505052179E+02 -0.27756877455E+02  0.38800286330E+02  0.00000000000E+00 0. -1.
</event>
<event>
 7    1  0.2505412E-009  0.4778727E+02  0.7816164E-02  0.1312668E+00
        -11   -1    0    0    0    0  0.00000000000E+00  0.00000000000E+00  0.45593999997E+02  0.45594000000E+02  0.51100000000E-03 0.  1.
         11   -1    0    0    0    0 -0.00000000000E+00 -0.00000000000E+00 -0.45593999997E+02  0.45594000000E+02  0.51100000000E-03 0. -1.
    9900012    2    1    2    0    0  0.24400742394E+01  0.59913715145E+01 -0.42915882371E+02  0.47787268962E+02  0.19999990506E+02 0.  0.
        -12    1    1    2    0    0 -0.24400742394E+01 -0.59913715145E+01  0.42915882371E+02  0.43400731038E+02  0.00000000000E+00 0.  1.
         11    1    3    3    0    0  0.67710418173E+01  0.10058212484E+01 -0.25720527493E+02  0.26615864037E+02  0.51100000000E-03 0. -1.
        -11    1    3    3    0    0  0.92624746473E+00  0.12467665184E+01  0.10127997234E+01  0.18542180719E+01  0.51100000000E-03 0.  1.
        -12    1    3    3    0    0 -0.52572150427E+01  0.37387837478E+01 -0.18208154602E+02  0.19317186853E+02  0.00000000000E+00 0.  1.
</event>
<event>
 7    1  0.2505412E-009  0.4778727E+02  0.7816164E-02  0.1312668E+00
        -11   -1    0    0    0    0  0.00000000000E+00  0.00000000000E+00  0.45593999997E+02  0.45594000000E+02  0.51100000000E-03 0. -1.
         11   -1    0    0    0    0 -0.00000000000E+00 -0.00000000000E+00 -0.45593999997E+02  0.45594000000E+02  0.51100000000E-03 0.  1.
    9900012    2    1    2    0    0  0.40532612651E+02 -0.87580121895E+01  0.12807336960E+02  0.47787270216E+02  0.19999996221E+02 0.  0.
        -12    1    1    2    0    0 -0.40532612651E+02  0.87580121895E+01 -0.12807336960E+02  0.43400729784E+02  0.00000000000E+00 0.  1.
         11    1    3    3    0    0  0.22494884300E+02 -0.55820072095E+01  0.22891792400E+01  0.23289889781E+02  0.51100000000E-03 0.  1.
        -11    1    3    3    0    0 -0.27536250848E+00 -0.28701101326E+01 -0.76779385363E+00  0.29837668050E+01  0.51100000000E-03 0. -1.
         12    1    3    3    0    0  0.18313090859E+02 -0.30589484740E+00  0.11285951573E+02  0.21513613629E+02  0.00000000000E+00 0. -1.
</event>
<event>
 7    1  0.2505412E-009  0.4778727E+02  0.7816164E-02  0.1312668E+00
        -11   -1    0    0    0    0  0.00000000000E+00  0.00000000000E+00  0.45593999997E+02  0.45594000000E+02  0.51100000000E-03 0.  1.
         11   -1    0    0    0    0 -0.00000000000E+00 -0.00000000000E+00 -0.45593999997E+02  0.45594000000E+02  0.51100000000E-03 0. -1.
    9900012    2    1    2    0    0 -0.36025417555E+02  0.19116001901E+02 -0.14844893694E+02  0.47787272962E+02  0.20000008741E+02 0.  0.
        -12    1    1    2    0    0  0.36025417555E+02 -0.19116001901E+02  0.14844893694E+02  0.43400727038E+02  0.00000000000E+00 0.  1.
         11    1    3    3    0    0 -0.46102640425E+01  0.46480369568E+01 -0.53706947623E+01  0.84677709336E+01  0.51100000000E-03 0. -1.
        -11    1    3    3    0    0  0.12075326322E+01  0.33201006212E+01  0.11878237665E+00  0.35348709604E+01  0.51100000000E-03 0.  1.
        -12    1    3    3    0    0 -0.32622686145E+02  0.11147864323E+02 -0.95929813081E+01  0.35784631068E+02  0.00000000000E+00 0.  1.
</event>
<event>
 7    1  0.2505412E-009  0.4778728E+02  0.7816164E-02  0.1312668E+00
        -11   -1    0    0    0    0  0.00000000000E+00  0.00000000000E+00  0.45593999997E+02  0.45594000000E+02  0.51100000000E-03 0.  1.
         11   -1    0    0    0    0 -0.00000000000E+00 -0.00000000000E+00 -0.45593999997E+02  0.45594000000E+02  0.51100000000E-03 0. -1.
    9900012    2    1    2    0    0 -0.32154453681E+02  0.24133403023E+02 -0.16349079254E+02  0.47787280818E+02  0.20000044563E+02 0.  0.
        -12    1    1    2    0    0  0.32154453681E+02 -0.24133403023E+02  0.16349079254E+02  0.43400719182E+02  0.00000000000E+00 0.  1.
         11    1    3    3    0    0 -0.64758759927E+01  0.80891842434E+01 -0.42344400174E+01  0.11193853408E+02  0.51100000000E-03 0. -1.
        -11    1    3    3    0    0 -0.57905382941E+01 -0.34008849978E+01 -0.23748441590E+01  0.71229374239E+01  0.51100000000E-03 0.  1.
        -12    1    3    3    0    0 -0.19888039394E+02  0.19445103778E+02 -0.97397950781E+01  0.29470489986E+02  0.00000000000E+00 0.  1.
</event>
<event>
 7    1  0.2505412E-009  0.4778727E+02  0.7816164E-02  0.1312668E+00
        -11   -1    0    0    0    0  0.00000000000E+00  0.00000000000E+00  0.45593999997E+02  0.45594000000E+02  0.51100000000E-03 0.  1.
         11   -1    0    0    0    0 -0.00000000000E+00 -0.00000000000E+00 -0.45593999997E+02  0.45594000000E+02  0.51100000000E-03 0. -1.
    9900012    2    1    2    0    0 -0.22988587821E+02  0.25240065194E+02 -0.26797147111E+02  0.47787272422E+02  0.20000006282E+02 0.  0.
        -12    1    1    2    0    0  0.22988587821E+02 -0.25240065194E+02  0.26797147111E+02  0.43400727578E+02  0.00000000000E+00 0.  1.
         11    1    3    3    0    0 -0.19483608632E+02  0.15841078694E+02 -0.15435266646E+02  0.29475383564E+02  0.51100000000E-03 0. -1.
        -11    1    3    3    0    0 -0.27042930789E+01  0.11497629721E+02 -0.79888723507E+01  0.14259409944E+02  0.51100000000E-03 0.  1.
        -12    1    3    3    0    0 -0.80068610909E+00 -0.20986432208E+01 -0.33730081146E+01  0.40524789147E+01  0.00000000000E+00 0.  1.
</event>
<event>
 7    1  0.2505412E-009  0.4778727E+02  0.7816164E-02  0.1312668E+00
        -11   -1    0    0    0    0  0.00000000000E+00  0.00000000000E+00  0.45593999997E+02  0.45594000000E+02  0.51100000000E-03 0. -1.
         11   -1    0    0    0    0 -0.00000000000E+00 -0.00000000000E+00 -0.45593999997E+02  0.45594000000E+02  0.51100000000E-03 0.  1.
    9900012    2    1    2    0    0  0.39786230278E+02 -0.36094868376E+01  0.16960261746E+02  0.47787274275E+02  0.20000014730E+02 0.  0.
        -12    1    1    2    0    0 -0.39786230278E+02  0.36094868376E+01 -0.16960261746E+02  0.43400725725E+02  0.00000000000E+00 0.  1.
         11    1    3    3    0    0  0.18206124296E+02  0.38957461472E+01  0.70097326046E+01  0.19894123539E+02  0.51100000000E-03 0. -1.
        -11    1    3    3    0    0  0.17662462591E+02 -0.16352484132E+01  0.30037947094E+01  0.17990536542E+02  0.51100000000E-03 0.  1.
         12    1    3    3    0    0  0.39176433906E+01 -0.58699845717E+01  0.69467344318E+01  0.99026141939E+01  0.00000000000E+00 0. -1.
</event>
<event>
 7    1  0.2505412E-009  0.4778727E+02  0.7816164E-02  0.1312668E+00
        -11   -1    0    0    0    0  0.00000000000E+00  0.00000000000E+00  0.45593999997E+02  0.45594000000E+02  0.51100000000E-03 0. -1.
         11   -1    0    0    0    0 -0.00000000000E+00 -0.00000000000E+00 -0.45593999997E+02  0.45594000000E+02  0.51100000000E-03 0.  1.
    9900012    2    1    2    0    0  0.26611553961E+02 -0.25456762906E+02  0.22965229303E+02  0.47787270296E+02  0.19999996589E+02 0.  0.
        -12    1    1    2    0    0 -0.26611553961E+02  0.25456762906E+02 -0.22965229303E+02  0.43400729704E+02  0.00000000000E+00 0.  1.
         11    1    3    3    0    0  0.24944391040E+01 -0.86402990524E+01  0.14387456482E+02  0.16966905977E+02  0.51100000000E-03 0. -1.
        -11    1    3    3    0    0  0.64844212605E+01 -0.28002292452E+01  0.16368023665E+01  0.72503879315E+01  0.51100000000E-03 0.  1.
         12    1    3    3    0    0  0.17632693597E+02 -0.14016234608E+02  0.69409704548E+01  0.23569976388E+02  0.00000000000E+00 0. -1.
</event>
<event>
 7    1  0.2505412E-009  0.4778726E+02  0.7816164E-02  0.1312668E+00
        -11   -1    0    0    0    0  0.00000000000E+00  0.00000000000E+00  0.45593999997E+02  0.45594000000E+02  0.51100000000E-03 0.  1.
         11   -1    0    0    0    0 -0.00000000000E+00 -0.00000000000E+00 -0.45593999997E+02  0.45594000000E+02  0.51100000000E-03 0. -1.
    9900012    2    1    2    0    0  0.42759300551E+01 -0.31675535259E+01 -0.43073278976E+02  0.47787258821E+02  0.19999944267E+02 0.  0.
        -12    1    1    2    0    0 -0.42759300551E+01  0.31675535259E+01  0.43073278976E+02  0.43400741179E+02  0.00000000000E+00 0.  1.
         11    1    3    3    0    0  0.30313646066E+01 -0.51903881432E+01 -0.66366442800E+01  0.89540129560E+01  0.51100000000E-03 0. -1.
        -11    1    3    3    0    0 -0.38257681671E+01  0.45207738187E+01 -0.86862502625E+01  0.10513079562E+02  0.51100000000E-03 0.  1.
         12    1    3    3    0    0  0.50703336156E+01 -0.24979392014E+01 -0.27750384433E+02  0.28320166303E+02  0.00000000000E+00 0. -1.
</event>
<event>
 7    1  0.2505412E-009  0.4778728E+02  0.7816164E-02  0.1312668E+00
        -11   -1    0    0    0    0  0.00000000000E+00  0.00000000000E+00  0.45593999997E+02  0.45594000000E+02  0.51100000000E-03 0.  1.
         11   -1    0    0    0    0 -0.00000000000E+00 -0.00000000000E+00 -0.45593999997E+02  0.45594000000E+02  0.51100000000E-03 0. -1.
    9900012    2    1    2    0    0  0.16416914377E+02 -0.39403072324E+02 -0.78425538337E+01  0.47787276079E+02  0.20000022956E+02 0.  0.
        -12    1    1    2    0    0 -0.16416914377E+02  0.39403072324E+02  0.78425538337E+01  0.43400723921E+02  0.00000000000E+00 0.  1.
         11    1    3    3    0    0  0.38405742008E+01 -0.71483385880E+01 -0.60862734873E+01  0.10143543759E+02  0.51100000000E-03 0. -1.
        -11    1    3    3    0    0 -0.22154320767E+01 -0.79587992359E+01  0.30297022344E+01  0.87994159155E+01  0.51100000000E-03 0.  1.
        -12    1    3    3    0    0  0.14791772253E+02 -0.24295934500E+02 -0.47859825807E+01  0.28844316405E+02  0.00000000000E+00 0.  1.
</event>
<event>
 7    1  0.2505412E-009  0.4778727E+02  0.7816164E-02  0.1312668E+00
        -11   -1    0    0    0    0  0.00000000000E+00  0.00000000000E+00  0.45593999997E+02  0.45594000000E+02  0.51100000000E-03 0.  1.
         11   -1    0    0    0    0 -0.00000000000E+00 -0.00000000000E+00 -0.45593999997E+02  0.45594000000E+02  0.51100000000E-03 0. -1.
    9900012    2    1    2    0    0 -0.18231746598E+02  0.24467241167E+02 -0.30863907892E+02  0.47787270920E+02  0.19999999431E+02 0.  0.
        -12    1    1    2    0    0  0.18231746598E+02 -0.24467241167E+02  0.30863907892E+02  0.43400729080E+02  0.00000000000E+00 0.  1.
         11    1    3    3    0    0 -0.62879455876E+01  0.18026829023E+02 -0.10359860554E+02  0.21721683528E+02  0.51100000000E-03 0. -1.
        -11    1    3    3    0    0 -0.37751588216E+00 -0.14900942954E+01 -0.46577341491E+01  0.49048330161E+01  0.51100000000E-03 0.  1.
        -12    1    3    3    0    0 -0.11566285128E+02  0.79305064402E+01 -0.15846313189E+02  0.21160754376E+02  0.00000000000E+00 0.  1.
</event>
<event>
 7    1  0.2505412E-009  0.4778727E+02  0.7816164E-02  0.1312668E+00
        -11   -1    0    0    0    0  0.00000000000E+00  0.00000000000E+00  0.45593999997E+02  0.45594000000E+02  0.51100000000E-03 0.  1.
         11   -1    0    0    0    0 -0.00000000000E+00 -0.00000000000E+00 -0.45593999997E+02  0.45594000000E+02  0.51100000000E-03 0. -1.
    9900012    2    1    2    0    0  0.30690185362E+02 -0.24108389969E+02 -0.18987401960E+02  0.47787269849E+02  0.19999994551E+02 0.  0.
        -12    1    1    2    0    0 -0.30690185362E+02  0.24108389969E+02  0.18987401960E+02  0.43400730151E+02  0.00000000000E+00 0.  1.
         11    1    3    3    0    0  0.23079611446E+02 -0.14744952498E+02 -0.13860333129E+02  0.30695128658E+02  0.51100000000E-03 0. -1.
        -11    1    3    3    0    0  0.28396749225E+01  0.15653102607E+01 -0.39485780351E+01  0.51093266326E+01  0.51100000000E-03 0.  1.
        -12    1    3    3    0    0  0.47708989933E+01 -0.10928747732E+02 -0.11784907962E+01  0.11982814559E+02  0.00000000000E+00 0.  1.
</event>
<event>
 7    1  0.2505412E-009  0.4778730E+02  0.7816164E-02  0.1312668E+00
        -11   -1    0    0    0    0  0.00000000000E+00  0.00000000000E+00  0.45593999997E+02  0.45594000000E+02  0.51100000000E-03 0. -1.
         11   -1    0    0    0    0 -0.00000000000E+00 -0.00000000000E+00 -0.45593999997E+02  0.45594000000E+02  0.51100000000E-03 0.  1.
    9900012    2    1    2    0    0 -0.12742810966E+02 -0.38517710118E+02  0.15415159611E+02  0.47787304500E+02  0.20000152537E+02 0.  0.
        -12    1    1    2    0    0  0.12742810966E+02  0.38517710118E+02 -0.15415159611E+02  0.43400695500E+02  0.00000000000E+00 0.  1.
         11    1    3    3    0    0  0.24941035980E+01 -0.18476692685E+02  0.95515629419E+01  0.20948534083E+02  0.51100000000E-03 0. -1.
        -11    1    3    3    0    0 -0.61219364157E+01 -0.36729524622E+01  0.35137558666E+01  0.79570827455E+01  0.51100000000E-03 0.  1.
         12    1    3    3    0    0 -0.91149781485E+01 -0.16368064970E+02  0.23498408029E+01  0.18881687671E+02  0.00000000000E+00 0. -1.
</event>
<event>
 7    1  0.2505412E-009  0.4778728E+02  0.7816164E-02  0.1312668E+00
        -11   -1    0    0    0    0  0.00000000000E+00  0.00000000000E+00  0.45593999997E+02  0.45594000000E+02  0.51100000000E-03 0.  1.
         11   -1    0    0    0    0 -0.00000000000E+00 -0.00000000000E+00 -0.45593999997E+02  0.45594000000E+02  0.51100000000E-03 0. -1.
    9900012    2    1    2    0    0 -0.32128496407E+02  0.98537137265E+01 -0.27464283793E+02  0.47787276045E+02  0.20000022797E+02 0.  0.
        -12    1    1    2    0    0  0.32128496407E+02 -0.98537137265E+01  0.27464283793E+02  0.43400723955E+02  0.00000000000E+00 0.  1.
         11    1    3    3    0    0 -0.14213718469E+02  0.68845588196E+01 -0.22685789846E+02  0.27641852399E+02  0.51100000000E-03 0. -1.
        -11    1    3    3    0    0 -0.77483258229E+01 -0.23227111134E+01 -0.24292051412E+01  0.84458615815E+01  0.51100000000E-03 0.  1.
         12    1    3    3    0    0 -0.10166452115E+02  0.52918660204E+01 -0.23492888053E+01  0.11699562064E+02  0.00000000000E+00 0. -1.
</event>
<event>
 7    1  0.2505412E-009  0.4778727E+02  0.7816164E-02  0.1312668E+00
        -11   -1    0    0    0    0  0.00000000000E+00  0.00000000000E+00  0.45593999997E+02  0.45594000000E+02  0.51100000000E-03 0.  1.
         11   -1    0    0    0    0 -0.00000000000E+00 -0.00000000000E+00 -0.45593999997E+02  0.45594000000E+02  0.51100000000E-03 0. -1.
    9900012    2    1    2    0    0  0.15731183796E+02 -0.72252502548E-01 -0.40449323968E+02  0.47787272201E+02  0.20000005271E+02 0.  0.
        -12    1    1    2    0    0 -0.15731183796E+02  0.72252502548E-01  0.40449323968E+02  0.43400727799E+02  0.00000000000E+00 0.  1.
         11    1    3    3    0    0  0.97567359165E+01  0.44495109733E+00 -0.23473180103E+02  0.25424044951E+02  0.51100000000E-03 0. -1.
        -11    1    3    3    0    0  0.50640791369E+01 -0.14154830160E+01  0.80404091473E-01  0.52587978429E+01  0.51100000000E-03 0.  1.
         12    1    3    3    0    0  0.91036874215E+00  0.89827941607E+00 -0.17056547956E+02  0.17104429407E+02  0.00000000000E+00 0. -1.
</event>
<event>
 7    1  0.2505412E-009  0.4778727E+02  0.7816164E-02  0.1312668E+00
        -11   -1    0    0    0    0  0.00000000000E+00  0.00000000000E+00  0.45593999997E+02  0.45594000000E+02  0.51100000000E-03 0. -1.
         11   -1    0    0    0    0 -0.00000000000E+00 -0.00000000000E+00 -0.45593999997E+02  0.45594000000E+02  0.51100000000E-03 0.  1.
    9900012    2    1    2    0    0  0.20673643795E+00 -0.35707782236E+02  0.24668497797E+02  0.47787271484E+02  0.20000002004E+02 0.  0.
        -12    1    1    2    0    0 -0.20673643795E+00  0.35707782236E+02 -0.24668497797E+02  0.43400728516E+02  0.00000000000E+00 0.  1.
         11    1    3    3    0    0  0.43437675722E+01 -0.16740257942E+02  0.16643329854E+02  0.24002187016E+02  0.51100000000E-03 0. -1.
        -11    1    3    3    0    0 -0.22373913354E+01  0.81091096566E+00  0.17302164812E+01  0.29423028252E+01  0.51100000000E-03 0.  1.
        -12    1    3    3    0    0 -0.18996397988E+01 -0.19778435260E+02  0.62949514621E+01  0.20842781643E+02  0.00000000000E+00 0.  1.
</event>
<event>
 7    1  0.2505412E-009  0.4778721E+02  0.7816164E-02  0.1312668E+00
        -11   -1    0    0    0    0  0.00000000000E+00  0.00000000000E+00  0.45593999997E+02  0.45594000000E+02  0.51100000000E-03 0.  1.
         11   -1    0    0    0    0 -0.00000000000E+00 -0.00000000000E+00 -0.45593999997E+02  0.45594000000E+02  0.51100000000E-03 0. -1.
    9900012    2    1    2    0    0 -0.24027074233E+02 -0.84956462840E+01 -0.35130497320E+02  0.47787214939E+02  0.19999744190E+02 0.  0.
        -12    1    1    2    0    0  0.24027074233E+02  0.84956462840E+01  0.35130497320E+02  0.43400785061E+02  0.00000000000E+00 0.  1.
         11    1    3    3    0    0 -0.81100689171E+01  0.41766662342E+00 -0.74384465867E+01  0.11012635976E+02  0.51100000000E-03 0. -1.
        -11    1    3    3    0    0 -0.77498367738E+01 -0.12914387377E+02 -0.18299955078E+02  0.23700838117E+02  0.51100000000E-03 0.  1.
        -12    1    3    3    0    0 -0.81671685426E+01  0.40010744695E+01 -0.93920956554E+01  0.13073740846E+02  0.00000000000E+00 0.  1.
</event>
<event>
 7    1  0.3360930E-009  0.4778727E+02  0.7816164E-02  0.1312668E+00
        -11   -1    0    0    0    0  0.00000000000E+00  0.00000000000E+00  0.45593999997E+02  0.45594000000E+02  0.51100000000E-03 0. -1.
         11   -1    0    0    0    0 -0.00000000000E+00 -0.00000000000E+00 -0.45593999997E+02  0.45594000000E+02  0.51100000000E-03 0.  1.
    9900012    2    1    2    0    0  0.23234461039E+02  0.39906424973E+01  0.36439790912E+02  0.47787265340E+02  0.19999973993E+02 0.  0.
        -12    1    1    2    0    0 -0.23234461039E+02 -0.39906424973E+01 -0.36439790912E+02  0.43400734660E+02  0.00000000000E+00 0.  1.
         11    1    3    3    0    0  0.20191133173E+02  0.31136981154E+01  0.20347369627E+02  0.28833876357E+02  0.51100000000E-03 0. -1.
        -11    1    3    3    0    0  0.25495032487E+01 -0.40453076499E+01  0.10160181066E+02  0.11229147802E+02  0.51100000000E-03 0.  1.
        -12    1    3    3    0    0  0.49382461686E+00  0.49222520317E+01  0.59322402189E+01  0.77242411816E+01  0.00000000000E+00 0.  1.
</event>
<event>
 7    1  0.2505412E-009  0.4778727E+02  0.7816164E-02  0.1312668E+00
        -11   -1    0    0    0    0  0.00000000000E+00  0.00000000000E+00  0.45593999997E+02  0.45594000000E+02  0.51100000000E-03 0. -1.
         11   -1    0    0    0    0 -0.00000000000E+00 -0.00000000000E+00 -0.45593999997E+02  0.45594000000E+02  0.51100000000E-03 0.  1.
    9900012    2    1    2    0    0  0.23650195923E+02  0.13374669405E+01  0.36366230163E+02  0.47787270959E+02  0.19999999611E+02 0.  0.
        -12    1    1    2    0    0 -0.23650195923E+02 -0.13374669405E+01 -0.36366230163E+02  0.43400729041E+02  0.00000000000E+00 0.  1.
         11    1    3    3    0    0  0.16744815321E+02  0.33467709106E+01  0.22995480434E+02  0.28642308502E+02  0.51100000000E-03 0. -1.
        -11    1    3    3    0    0  0.66826284092E+01 -0.33502016663E+01  0.20616499319E+01  0.77544680258E+01  0.51100000000E-03 0.  1.
         12    1    3    3    0    0  0.22275219285E+00  0.13408976962E+01  0.11309099797E+02  0.11390494432E+02  0.00000000000E+00 0. -1.
</event>
<event>
 7    1  0.2505412E-009  0.4778727E+02  0.7816164E-02  0.1312668E+00
        -11   -1    0    0    0    0  0.00000000000E+00  0.00000000000E+00  0.45593999997E+02  0.45594000000E+02  0.51100000000E-03 0.  1.
         11   -1    0    0    0    0 -0.00000000000E+00 -0.00000000000E+00 -0.45593999997E+02  0.45594000000E+02  0.51100000000E-03 0. -1.
    9900012    2    1    2    0    0  0.19276052154E+01 -0.43101693070E+02 -0.47065641364E+01  0.47787270129E+02  0.19999995828E+02 0.  0.
        -12    1    1    2    0    0 -0.19276052154E+01  0.43101693070E+02  0.47065641364E+01  0.43400729871E+02  0.00000000000E+00 0.  1.
         11    1    3    3    0    0  0.92882227259E+01 -0.21037412357E+02 -0.49363035865E+01  0.23520435656E+02  0.51100000000E-03 0. -1.
        -11    1    3    3    0    0 -0.29851325058E+01 -0.12144875733E+02  0.34201506862E+01  0.12965587284E+02  0.51100000000E-03 0.  1.
        -12    1    3    3    0    0 -0.43754850047E+01 -0.99194049795E+01 -0.31904112361E+01  0.11301247189E+02  0.00000000000E+00 0.  1.
</event>
<event>
 7    1  0.2505412E-009  0.4778727E+02  0.7816164E-02  0.1312668E+00
        -11   -1    0    0    0    0  0.00000000000E+00  0.00000000000E+00  0.45593999997E+02  0.45594000000E+02  0.51100000000E-03 0.  1.
         11   -1    0    0    0    0 -0.00000000000E+00 -0.00000000000E+00 -0.45593999997E+02  0.45594000000E+02  0.51100000000E-03 0. -1.
    9900012    2    1    2    0    0 -0.41550849463E+02 -0.12396732335E+02  0.18631084048E+01  0.47787271474E+02  0.20000001958E+02 0.  0.
        -12    1    1    2    0    0  0.41550849463E+02  0.12396732335E+02 -0.18631084048E+01  0.43400728526E+02  0.00000000000E+00 0.  1.
         11    1    3    3    0    0 -0.87849280916E+01  0.76541168499E+00 -0.10396805739E+01  0.88792878419E+01  0.51100000000E-03 0. -1.
        -11    1    3    3    0    0 -0.21515819605E+01  0.30786230339E+01  0.19671191979E+01  0.42399036449E+01  0.51100000000E-03 0.  1.
         12    1    3    3    0    0 -0.30614339411E+02 -0.16240767054E+02  0.93566978083E+00  0.34668079987E+02  0.00000000000E+00 0. -1.
</event>
<event>
 7    1  0.2505412E-009  0.4778727E+02  0.7816164E-02  0.1312668E+00
        -11   -1    0    0    0    0  0.00000000000E+00  0.00000000000E+00  0.45593999997E+02  0.45594000000E+02  0.51100000000E-03 0.  1.
         11   -1    0    0    0    0 -0.00000000000E+00 -0.00000000000E+00 -0.45593999997E+02  0.45594000000E+02  0.51100000000E-03 0. -1.
    9900012    2    1    2    0    0  0.13570008058E+02  0.22454933433E+02 -0.34572451471E+02  0.47787267807E+02  0.19999985240E+02 0.  0.
        -12    1    1    2    0    0 -0.13570008058E+02 -0.22454933433E+02  0.34572451471E+02  0.43400732193E+02  0.00000000000E+00 0.  1.
         11    1    3    3    0    0  0.48176374479E+01  0.10507397153E+02 -0.86830415092E+01  0.14457186297E+02  0.51100000000E-03 0. -1.
        -11    1    3    3    0    0 -0.28888582614E+01  0.22720879201E+01 -0.12804080084E+02  0.13321124301E+02  0.51100000000E-03 0.  1.
         12    1    3    3    0    0  0.11641228872E+02  0.96754483593E+01 -0.13085329877E+02  0.20008957209E+02  0.00000000000E+00 0. -1.
</event>
<event>
 7    1  0.2505412E-009  0.4778727E+02  0.7816164E-02  0.1312668E+00
        -11   -1    0    0    0    0  0.00000000000E+00  0.00000000000E+00  0.45593999997E+02  0.45594000000E+02  0.51100000000E-03 0.  1.
         11   -1    0    0    0    0 -0.00000000000E+00 -0.00000000000E+00 -0.45593999997E+02  0.45594000000E+02  0.51100000000E-03 0. -1.
    9900012    2    1    2    0    0  0.36975624597E+01 -0.37513452487E+02  0.21510288813E+02  0.47787267167E+02  0.19999982319E+02 0.  0.
        -12    1    1    2    0    0 -0.36975624597E+01  0.37513452487E+02 -0.21510288813E+02  0.43400732833E+02  0.00000000000E+00 0.  1.
         11    1    3    3    0    0 -0.56997076798E+01 -0.11090291792E+02  0.38338742287E+01  0.13045299212E+02  0.51100000000E-03 0. -1.
        -11    1    3    3    0    0  0.33366980164E+01 -0.22300393115E+02  0.14005396479E+02  0.26544155996E+02  0.51100000000E-03 0.  1.
        -12    1    3    3    0    0  0.60605721231E+01 -0.41227675798E+01  0.36710181058E+01  0.81978119586E+01  0.00000000000E+00 0.  1.
</event>
<event>
 7    1  0.2505412E-009  0.4778728E+02  0.7816164E-02  0.1312668E+00
        -11   -1    0    0    0    0  0.00000000000E+00  0.00000000000E+00  0.45593999997E+02  0.45594000000E+02  0.51100000000E-03 0. -1.
         11   -1    0    0    0    0 -0.00000000000E+00 -0.00000000000E+00 -0.45593999997E+02  0.45594000000E+02  0.51100000000E-03 0.  1.
    9900012    2    1    2    0    0  0.12270284289E+02  0.13827045944E+02  0.39266724067E+02  0.47787277713E+02  0.20000030404E+02 0.  0.
        -12    1    1    2    0    0 -0.12270284289E+02 -0.13827045944E+02 -0.39266724067E+02  0.43400722287E+02  0.00000000000E+00 0.  1.
         11    1    3    3    0    0  0.14946455177E+02  0.83961792923E+01  0.29914390068E+02  0.34478443736E+02  0.51100000000E-03 0. -1.
        -11    1    3    3    0    0 -0.32201624449E+00 -0.17872233824E+01  0.12464657222E+01  0.22026209247E+01  0.51100000000E-03 0.  1.
         12    1    3    3    0    0 -0.23541546438E+01  0.72180900340E+01  0.81058682769E+01  0.11106213052E+02  0.00000000000E+00 0. -1.
</event>
<event>
 7    1  0.2505412E-009  0.4778727E+02  0.7816164E-02  0.1312668E+00
        -11   -1    0    0    0    0  0.00000000000E+00  0.00000000000E+00  0.45593999997E+02  0.45594000000E+02  0.51100000000E-03 0.  1.
         11   -1    0    0    0    0 -0.00000000000E+00 -0.00000000000E+00 -0.45593999997E+02  0.45594000000E+02  0.51100000000E-03 0. -1.
    9900012    2    1    2    0    0 -0.15827177676E+01  0.43245970791E+02 -0.33021878516E+01  0.47787269249E+02  0.19999991812E+02 0.  0.
        -12    1    1    2    0    0  0.15827177676E+01 -0.43245970791E+02  0.33021878516E+01  0.43400730751E+02  0.00000000000E+00 0.  1.
         11    1    3    3    0    0 -0.23524868997E+00  0.32124127282E+01 -0.41232526142E+01  0.52322222683E+01  0.51100000000E-03 0. -1.
        -11    1    3    3    0    0 -0.40710987536E+01  0.22505398805E+02  0.67599492151E+01  0.23848767978E+02  0.51100000000E-03 0.  1.
        -12    1    3    3    0    0  0.27236296759E+01  0.17528159257E+02 -0.59388844524E+01  0.18706279002E+02  0.00000000000E+00 0.  1.
</event>
<event>
 7    1  0.2505412E-009  0.4778727E+02  0.7816164E-02  0.1312668E+00
        -11   -1    0    0    0    0  0.00000000000E+00  0.00000000000E+00  0.45593999997E+02  0.45594000000E+02  0.51100000000E-03 0. -1.
         11   -1    0    0    0    0 -0.00000000000E+00 -0.00000000000E+00 -0.45593999997E+02  0.45594000000E+02  0.51100000000E-03 0.  1.
    9900012    2    1    2    0    0  0.14280847873E+02 -0.10090968160E+02  0.39722195542E+02  0.47787273358E+02  0.20000010547E+02 0.  0.
        -12    1    1    2    0    0 -0.14280847873E+02  0.10090968160E+02 -0.39722195542E+02  0.43400726642E+02  0.00000000000E+00 0.  1.
         11    1    3    3    0    0  0.65186587178E+00  0.17511978520E+01 -0.10927979402E+01  0.21646779509E+01  0.51100000000E-03 0.  1.
        -11    1    3    3    0    0  0.45203587032E+01 -0.87296812768E+01  0.13796157319E+02  0.16940334561E+02  0.51100000000E-03 0. -1.
        -12    1    3    3    0    0  0.91086232977E+01 -0.31124847347E+01  0.27018836164E+02  0.28682260846E+02  0.00000000000E+00 0.  1.
</event>
<event>
 7    1  0.2505412E-009  0.4778727E+02  0.7816164E-02  0.1312668E+00
        -11   -1    0    0    0    0  0.00000000000E+00  0.00000000000E+00  0.45593999997E+02  0.45594000000E+02  0.51100000000E-03 0.  1.
         11   -1    0    0    0    0 -0.00000000000E+00 -0.00000000000E+00 -0.45593999997E+02  0.45594000000E+02  0.51100000000E-03 0. -1.
    9900012    2    1    2    0    0 -0.20651154214E+02 -0.21838516743E+02 -0.31308659644E+02  0.47787272441E+02  0.20000006367E+02 0.  0.
        -12    1    1    2    0    0  0.20651154214E+02  0.21838516743E+02  0.31308659644E+02  0.43400727559E+02  0.00000000000E+00 0.  1.
         11    1    3    3    0    0 -0.10117153034E+02 -0.72538428056E+01 -0.21770693593E+02  0.25078638734E+02  0.51100000000E-03 0. -1.
        -11    1    3    3    0    0  0.18079830579E+01 -0.34602973092E+01 -0.10114989345E+01  0.40330621817E+01  0.51100000000E-03 0.  1.
        -12    1    3    3    0    0 -0.12341984238E+02 -0.11124376628E+02 -0.85264671170E+01  0.18675571525E+02  0.00000000000E+00 0.  1.
</event>
<event>
 7    1  0.2574106E-009  0.4778727E+02  0.7816164E-02  0.1312668E+00
        -11   -1    0    0    0    0  0.00000000000E+00  0.00000000000E+00  0.45593999997E+02  0.45594000000E+02  0.51100000000E-03 0.  1.
         11   -1    0    0    0    0 -0.00000000000E+00 -0.00000000000E+00 -0.45593999997E+02  0.45594000000E+02  0.51100000000E-03 0. -1.
    9900012    2    1    2    0    0 -0.32263909091E+02 -0.28704866467E+02 -0.43236732377E+01  0.47787270294E+02  0.19999996580E+02 0.  0.
        -12    1    1    2    0    0  0.32263909091E+02  0.28704866467E+02  0.43236732377E+01  0.43400729706E+02  0.00000000000E+00 0.  1.
         11    1    3    3    0    0 -0.13914703521E+02 -0.86267177718E+01  0.41822260537E+01  0.16897640327E+02  0.51100000000E-03 0. -1.
        -11    1    3    3    0    0 -0.48082110062E+01 -0.13678968986E+02 -0.23125846071E+01  0.14682681411E+02  0.51100000000E-03 0.  1.
        -12    1    3    3    0    0 -0.13540994564E+02 -0.63991797094E+01 -0.61933146843E+01  0.16206948556E+02  0.00000000000E+00 0.  1.
</event>
<event>
 7    1  0.2505412E-009  0.4778727E+02  0.7816164E-02  0.1312668E+00
        -11   -1    0    0    0    0  0.00000000000E+00  0.00000000000E+00  0.45593999997E+02  0.45594000000E+02  0.51100000000E-03 0.  1.
         11   -1    0    0    0    0 -0.00000000000E+00 -0.00000000000E+00 -0.45593999997E+02  0.45594000000E+02  0.51100000000E-03 0. -1.
    9900012    2    1    2    0    0 -0.12906632719E+02 -0.98060320722E+01 -0.40260199338E+02  0.47787273234E+02  0.20000009981E+02 0.  0.
        -12    1    1    2    0    0  0.12906632719E+02  0.98060320722E+01  0.40260199338E+02  0.43400726766E+02  0.00000000000E+00 0.  1.
         11    1    3    3    0    0  0.22954730647E+01 -0.65049201214E+00 -0.98615034848E+01  0.10146013389E+02  0.51100000000E-03 0. -1.
        -11    1    3    3    0    0 -0.14808514537E+02 -0.63393692134E+01 -0.15095400926E+02  0.22076023967E+02  0.51100000000E-03 0.  1.
        -12    1    3    3    0    0 -0.39359124677E+00 -0.28161708467E+01 -0.15303294927E+02  0.15565235878E+02  0.00000000000E+00 0.  1.
</event>
<event>
 7    1  0.2505412E-009  0.4778727E+02  0.7816164E-02  0.1312668E+00
        -11   -1    0    0    0    0  0.00000000000E+00  0.00000000000E+00  0.45593999997E+02  0.45594000000E+02  0.51100000000E-03 0. -1.
         11   -1    0    0    0    0 -0.00000000000E+00 -0.00000000000E+00 -0.45593999997E+02  0.45594000000E+02  0.51100000000E-03 0.  1.
    9900012    2    1    2    0    0  0.27883388161E+02 -0.28223612078E+02  0.17594537311E+02  0.47787270084E+02  0.19999995621E+02 0.  0.
        -12    1    1    2    0    0 -0.27883388161E+02  0.28223612078E+02 -0.17594537311E+02  0.43400729916E+02  0.00000000000E+00 0.  1.
         11    1    3    3    0    0  0.24351800051E+01 -0.24555943973E+01 -0.19531523942E+01  0.39717565431E+01  0.51100000000E-03 0. -1.
        -11    1    3    3    0    0  0.45068030004E+00 -0.73803075049E+01  0.51528690780E+00  0.74119884281E+01  0.51100000000E-03 0.  1.
         12    1    3    3    0    0  0.24997527856E+02 -0.18387710175E+02  0.19032402797E+02  0.36403525113E+02  0.00000000000E+00 0. -1.
</event>
<event>
 7    1  0.2505412E-009  0.4778727E+02  0.7816164E-02  0.1312668E+00
        -11   -1    0    0    0    0  0.00000000000E+00  0.00000000000E+00  0.45593999997E+02  0.45594000000E+02  0.51100000000E-03 0.  1.
         11   -1    0    0    0    0 -0.00000000000E+00 -0.00000000000E+00 -0.45593999997E+02  0.45594000000E+02  0.51100000000E-03 0. -1.
    9900012    2    1    2    0    0  0.38253991452E+02 -0.11927569206E+02 -0.16672984607E+02  0.47787272070E+02  0.20000004674E+02 0.  0.
        -12    1    1    2    0    0 -0.38253991452E+02  0.11927569206E+02  0.16672984607E+02  0.43400727930E+02  0.00000000000E+00 0.  1.
         11    1    3    3    0    0  0.76650618478E+01 -0.85952004034E+01 -0.84329644163E+01  0.14273945923E+02  0.51100000000E-03 0. -1.
        -11    1    3    3    0    0  0.20565599960E+02 -0.20663883592E+01 -0.10466236798E+02  0.23167994637E+02  0.51100000000E-03 0.  1.
        -12    1    3    3    0    0  0.10023329645E+02 -0.12659804436E+01  0.22262166072E+01  0.10345331509E+02  0.00000000000E+00 0.  1.
</event>
<event>
 7    1  0.2505412E-009  0.4778727E+02  0.7816164E-02  0.1312668E+00
        -11   -1    0    0    0    0  0.00000000000E+00  0.00000000000E+00  0.45593999997E+02  0.45594000000E+02  0.51100000000E-03 0.  1.
         11   -1    0    0    0    0 -0.00000000000E+00 -0.00000000000E+00 -0.45593999997E+02  0.45594000000E+02  0.51100000000E-03 0. -1.
    9900012    2    1    2    0    0 -0.32806564174E+02  0.27356720600E+02 -0.76787109626E+01  0.47787269396E+02  0.19999992484E+02 0.  0.
        -12    1    1    2    0    0  0.32806564174E+02 -0.27356720600E+02  0.76787109626E+01  0.43400730604E+02  0.00000000000E+00 0.  1.
         11    1    3    3    0    0 -0.60315200930E+01  0.53713368621E+01  0.46465966904E+01  0.93177977754E+01  0.51100000000E-03 0. -1.
        -11    1    3    3    0    0 -0.10163332210E+02  0.15278041047E+02 -0.43418678159E+01  0.18856396163E+02  0.51100000000E-03 0.  1.
        -12    1    3    3    0    0 -0.16611711872E+02  0.67073426905E+01 -0.79834398372E+01  0.19613075458E+02  0.00000000000E+00 0.  1.
</event>
<event>
 7    1  0.2505412E-009  0.4778727E+02  0.7816164E-02  0.1312668E+00
        -11   -1    0    0    0    0  0.00000000000E+00  0.00000000000E+00  0.45593999997E+02  0.45594000000E+02  0.51100000000E-03 0. -1.
         11   -1    0    0    0    0 -0.00000000000E+00 -0.00000000000E+00 -0.45593999997E+02  0.45594000000E+02  0.51100000000E-03 0.  1.
    9900012    2    1    2    0    0 -0.17500331368E+01 -0.35511891262E+02  0.24889077386E+02  0.47787271779E+02  0.20000003350E+02 0.  0.
        -12    1    1    2    0    0  0.17500331368E+01  0.35511891262E+02 -0.24889077386E+02  0.43400728221E+02  0.00000000000E+00 0.  1.
         11    1    3    3    0    0 -0.76844922415E+01 -0.19840374714E+02  0.17808972820E+02  0.27746196189E+02  0.51100000000E-03 0. -1.
        -11    1    3    3    0    0  0.43266467231E+01 -0.27435820031E+01  0.43718945356E+01  0.67350260701E+01  0.51100000000E-03 0.  1.
        -12    1    3    3    0    0  0.16078123816E+01 -0.12927934545E+02  0.27082100301E+01  0.13306049520E+02  0.00000000000E+00 0.  1.
</event>
<event>
 7    1  0.2505412E-009  0.4778727E+02  0.7816164E-02  0.1312668E+00
        -11   -1    0    0    0    0  0.00000000000E+00  0.00000000000E+00  0.45593999997E+02  0.45594000000E+02  0.51100000000E-03 0.  1.
         11   -1    0    0    0    0 -0.00000000000E+00 -0.00000000000E+00 -0.45593999997E+02  0.45594000000E+02  0.51100000000E-03 0. -1.
    9900012    2    1    2    0    0 -0.40948962348E+02 -0.38025404044E+00 -0.14375711895E+02  0.47787271861E+02  0.20000003721E+02 0.  0.
        -12    1    1    2    0    0  0.40948962348E+02  0.38025404044E+00  0.14375711895E+02  0.43400728139E+02  0.00000000000E+00 0.  1.
         11    1    3    3    0    0 -0.96156041695E+01 -0.13736119108E+01  0.20366128474E+01  0.99244367788E+01  0.51100000000E-03 0. -1.
        -11    1    3    3    0    0 -0.12947566951E+01 -0.47954552133E+00 -0.58134629826E+01  0.59751745512E+01  0.51100000000E-03 0.  1.
         12    1    3    3    0    0 -0.30038601484E+02  0.14729033917E+01 -0.10598861760E+02  0.31887660531E+02  0.00000000000E+00 0. -1.
</event>
<event>
 7    1  0.2505412E-009  0.4778727E+02  0.7816164E-02  0.1312668E+00
        -11   -1    0    0    0    0  0.00000000000E+00  0.00000000000E+00  0.45593999997E+02  0.45594000000E+02  0.51100000000E-03 0. -1.
         11   -1    0    0    0    0 -0.00000000000E+00 -0.00000000000E+00 -0.45593999997E+02  0.45594000000E+02  0.51100000000E-03 0.  1.
    9900012    2    1    2    0    0  0.29815476375E+01 -0.41178147127E+02  0.13382601358E+02  0.47787269059E+02  0.19999990949E+02 0.  0.
        -12    1    1    2    0    0 -0.29815476375E+01  0.41178147127E+02 -0.13382601358E+02  0.43400730941E+02  0.00000000000E+00 0.  1.
         11    1    3    3    0    0 -0.38177890637E+01 -0.24657861482E+02  0.14968704352E+02  0.29097212176E+02  0.51100000000E-03 0. -1.
        -11    1    3    3    0    0  0.52596729712E+00 -0.13312687106E+01 -0.17434248205E+01  0.22557589285E+01  0.51100000000E-03 0.  1.
        -12    1    3    3    0    0  0.62733694040E+01 -0.15189016934E+02  0.15732182668E+00  0.16434297955E+02  0.00000000000E+00 0.  1.
</event>
<event>
 7    1  0.2505412E-009  0.4778727E+02  0.7816164E-02  0.1312668E+00
        -11   -1    0    0    0    0  0.00000000000E+00  0.00000000000E+00  0.45593999997E+02  0.45594000000E+02  0.51100000000E-03 0.  1.
         11   -1    0    0    0    0 -0.00000000000E+00 -0.00000000000E+00 -0.45593999997E+02  0.45594000000E+02  0.51100000000E-03 0. -1.
    9900012    2    1    2    0    0  0.34352782779E+01 -0.35509548373E+02 -0.24716273965E+02  0.47787270038E+02  0.19999995412E+02 0.  0.
        -12    1    1    2    0    0 -0.34352782779E+01  0.35509548373E+02  0.24716273965E+02  0.43400729962E+02  0.00000000000E+00 0.  1.
         11    1    3    3    0    0 -0.62780278705E+00 -0.12903827435E+02 -0.19054840603E+02  0.23021508410E+02  0.51100000000E-03 0. -1.
        -11    1    3    3    0    0 -0.82997208880E+00 -0.13822993220E+02 -0.48763916396E+01  0.14681389271E+02  0.51100000000E-03 0.  1.
         12    1    3    3    0    0  0.48930531538E+01 -0.87827277181E+01 -0.78504172218E+00  0.10084372357E+02  0.00000000000E+00 0. -1.
</event>
<event>
 7    1  0.2505412E-009  0.4778727E+02  0.7816164E-02  0.1312668E+00
        -11   -1    0    0    0    0  0.00000000000E+00  0.00000000000E+00  0.45593999997E+02  0.45594000000E+02  0.51100000000E-03 0.  1.
         11   -1    0    0    0    0 -0.00000000000E+00 -0.00000000000E+00 -0.45593999997E+02  0.45594000000E+02  0.51100000000E-03 0. -1.
    9900012    2    1    2    0    0  0.80045050849E+01 -0.32005217355E+02  0.28199597702E+02  0.47787270166E+02  0.19999995993E+02 0.  0.
        -12    1    1    2    0    0 -0.80045050849E+01  0.32005217355E+02 -0.28199597702E+02  0.43400729834E+02  0.00000000000E+00 0.  1.
         11    1    3    3    0    0  0.59693191447E+01 -0.10484724661E+02  0.58010466567E+01  0.13387096953E+02  0.51100000000E-03 0. -1.
        -11    1    3    3    0    0  0.71996199962E+01 -0.51167955652E+01  0.88870721994E+01  0.12529811550E+02  0.51100000000E-03 0.  1.
        -12    1    3    3    0    0 -0.51644340560E+01 -0.16403697129E+02  0.13511478846E+02  0.21870361662E+02  0.00000000000E+00 0.  1.
</event>
<event>
 7    1  0.2505412E-009  0.4778728E+02  0.7816164E-02  0.1312668E+00
        -11   -1    0    0    0    0  0.00000000000E+00  0.00000000000E+00  0.45593999997E+02  0.45594000000E+02  0.51100000000E-03 0.  1.
         11   -1    0    0    0    0 -0.00000000000E+00 -0.00000000000E+00 -0.45593999997E+02  0.45594000000E+02  0.51100000000E-03 0. -1.
    9900012    2    1    2    0    0  0.27625380889E+02  0.30165908625E+02 -0.14507882330E+02  0.47787281548E+02  0.20000047889E+02 0.  0.
        -12    1    1    2    0    0 -0.27625380889E+02 -0.30165908625E+02  0.14507882330E+02  0.43400718452E+02  0.00000000000E+00 0.  1.
         11    1    3    3    0    0  0.18149010025E+02  0.25707351909E+02 -0.15316256184E+02  0.34997745796E+02  0.51100000000E-03 0. -1.
        -11    1    3    3    0    0  0.94617233974E+01  0.34562195540E+01 -0.15827326774E+01  0.10196798823E+02  0.51100000000E-03 0.  1.
         12    1    3    3    0    0  0.14647466891E-01  0.10023371620E+01  0.23911065314E+01  0.25927369282E+01  0.00000000000E+00 0. -1.
</event>
<event>
 7    1  0.2505412E-009  0.4778727E+02  0.7816164E-02  0.1312668E+00
        -11   -1    0    0    0    0  0.00000000000E+00  0.00000000000E+00  0.45593999997E+02  0.45594000000E+02  0.51100000000E-03 0.  1.
         11   -1    0    0    0    0 -0.00000000000E+00 -0.00000000000E+00 -0.45593999997E+02  0.45594000000E+02  0.51100000000E-03 0. -1.
    9900012    2    1    2    0    0  0.15240935578E+02  0.26130980921E+02 -0.31120876989E+02  0.47787271138E+02  0.20000000427E+02 0.  0.
        -12    1    1    2    0    0 -0.15240935578E+02 -0.26130980921E+02  0.31120876989E+02  0.43400728862E+02  0.00000000000E+00 0.  1.
         11    1    3    3    0    0  0.12865154173E+00  0.96986775263E+01 -0.10912130304E+02  0.14599845376E+02  0.51100000000E-03 0.  1.
        -11    1    3    3    0    0  0.16125220690E+02  0.16421131332E+02 -0.21534861483E+02  0.31518669957E+02  0.51100000000E-03 0. -1.
         12    1    3    3    0    0 -0.10129366536E+01  0.11172061998E-01  0.13261147977E+01  0.16687558047E+01  0.00000000000E+00 0. -1.
</event>
<event>
 7    1  0.2505412E-009  0.4778727E+02  0.7816164E-02  0.1312668E+00
        -11   -1    0    0    0    0  0.00000000000E+00  0.00000000000E+00  0.45593999997E+02  0.45594000000E+02  0.51100000000E-03 0. -1.
         11   -1    0    0    0    0 -0.00000000000E+00 -0.00000000000E+00 -0.45593999997E+02  0.45594000000E+02  0.51100000000E-03 0.  1.
    9900012    2    1    2    0    0 -0.61307136388E+01 -0.41810362834E+02  0.98960059048E+01  0.47787273935E+02  0.20000013181E+02 0.  0.
        -12    1    1    2    0    0  0.61307136388E+01  0.41810362834E+02 -0.98960059048E+01  0.43400726065E+02  0.00000000000E+00 0.  1.
         11    1    3    3    0    0 -0.30805839146E+01 -0.14698921299E+02  0.58823574043E+00  0.15029780643E+02  0.51100000000E-03 0. -1.
        -11    1    3    3    0    0  0.40844932863E+01 -0.10155396362E+01  0.23625413359E+01  0.48265938283E+01  0.51100000000E-03 0.  1.
        -12    1    3    3    0    0 -0.71346230105E+01 -0.26095901899E+02  0.69452288285E+01  0.27930899464E+02  0.00000000000E+00 0.  1.
</event>
<event>
 7    1  0.2505412E-009  0.4778727E+02  0.7816164E-02  0.1312668E+00
        -11   -1    0    0    0    0  0.00000000000E+00  0.00000000000E+00  0.45593999997E+02  0.45594000000E+02  0.51100000000E-03 0.  1.
         11   -1    0    0    0    0 -0.00000000000E+00 -0.00000000000E+00 -0.45593999997E+02  0.45594000000E+02  0.51100000000E-03 0. -1.
    9900012    2    1    2    0    0  0.11611984950E+02 -0.31117352772E+02 -0.27937343940E+02  0.47787273918E+02  0.20000013101E+02 0.  0.
        -12    1    1    2    0    0 -0.11611984950E+02  0.31117352772E+02  0.27937343940E+02  0.43400726082E+02  0.00000000000E+00 0.  1.
         11    1    3    3    0    0  0.63555668760E+01 -0.13477968034E+02 -0.13047262982E+02  0.19806057766E+02  0.51100000000E-03 0. -1.
        -11    1    3    3    0    0 -0.25750686968E+01  0.32360350218E+00  0.97057647324E+00  0.27708693530E+01  0.51100000000E-03 0.  1.
        -12    1    3    3    0    0  0.78314867712E+01 -0.17962988240E+02 -0.15860657432E+02  0.25210346799E+02  0.00000000000E+00 0.  1.
</event>
<event>
 7    1  0.2505412E-009  0.4778727E+02  0.7816164E-02  0.1312668E+00
        -11   -1    0    0    0    0  0.00000000000E+00  0.00000000000E+00  0.45593999997E+02  0.45594000000E+02  0.51100000000E-03 0.  1.
         11   -1    0    0    0    0 -0.00000000000E+00 -0.00000000000E+00 -0.45593999997E+02  0.45594000000E+02  0.51100000000E-03 0. -1.
    9900012    2    1    2    0    0  0.84666009969E+01  0.40203659859E-02 -0.42566892199E+02  0.47787266595E+02  0.19999979714E+02 0.  0.
        -12    1    1    2    0    0 -0.84666009969E+01 -0.40203659859E-02  0.42566892199E+02  0.43400733405E+02  0.00000000000E+00 0.  1.
         11    1    3    3    0    0  0.63116583490E+01  0.81398682119E+00 -0.47720147656E+01  0.79543529494E+01  0.51100000000E-03 0.  1.
        -11    1    3    3    0    0  0.65990178598E+01 -0.25026939657E-01 -0.30869073119E+02  0.31566554112E+02  0.51100000000E-03 0. -1.
         12    1    3    3    0    0 -0.44440752119E+01 -0.78493951555E+00 -0.69258043145E+01  0.82663595334E+01  0.00000000000E+00 0. -1.
</event>
<event>
 7    1  0.2505412E-009  0.4778727E+02  0.7816164E-02  0.1312668E+00
        -11   -1    0    0    0    0  0.00000000000E+00  0.00000000000E+00  0.45593999997E+02  0.45594000000E+02  0.51100000000E-03 0. -1.
         11   -1    0    0    0    0 -0.00000000000E+00 -0.00000000000E+00 -0.45593999997E+02  0.45594000000E+02  0.51100000000E-03 0.  1.
    9900012    2    1    2    0    0  0.28611916679E+01  0.18711533962E+02  0.39055289355E+02  0.47787267891E+02  0.19999985623E+02 0.  0.
        -12    1    1    2    0    0 -0.28611916679E+01 -0.18711533962E+02 -0.39055289355E+02  0.43400732109E+02  0.00000000000E+00 0.  1.
         11    1    3    3    0    0 -0.51660906914E+00  0.11443764058E+02  0.11384067980E+02  0.16150034823E+02  0.51100000000E-03 0. -1.
        -11    1    3    3    0    0  0.79066892206E+01  0.51964546516E+01  0.12549158242E+02  0.15716241543E+02  0.51100000000E-03 0.  1.
         12    1    3    3    0    0 -0.45288884836E+01  0.20713152532E+01  0.15122063133E+02  0.15920991526E+02  0.00000000000E+00 0. -1.
</event>
<event>
 7    1  0.2505412E-009  0.4778727E+02  0.7816164E-02  0.1312668E+00
        -11   -1    0    0    0    0  0.00000000000E+00  0.00000000000E+00  0.45593999997E+02  0.45594000000E+02  0.51100000000E-03 0.  1.
         11   -1    0    0    0    0 -0.00000000000E+00 -0.00000000000E+00 -0.45593999997E+02  0.45594000000E+02  0.51100000000E-03 0. -1.
    9900012    2    1    2    0    0 -0.40591900629E+02  0.15108918551E+01  0.15285229210E+02  0.47787269328E+02  0.19999992174E+02 0.  0.
        -12    1    1    2    0    0  0.40591900629E+02 -0.15108918551E+01 -0.15285229210E+02  0.43400730672E+02  0.00000000000E+00 0.  1.
         11    1    3    3    0    0 -0.38329255022E+02  0.16628915387E+01  0.12260013405E+02  0.40276605216E+02  0.51100000000E-03 0. -1.
        -11    1    3    3    0    0 -0.34409972803E+01 -0.10046427275E+01 -0.57247780229E+00  0.36300826971E+01  0.51100000000E-03 0.  1.
        -12    1    3    3    0    0  0.11783516733E+01  0.85264304398E+00  0.35976936068E+01  0.38805814145E+01  0.00000000000E+00 0.  1.
</event>
<event>
 7    1  0.2505412E-009  0.4778727E+02  0.7816164E-02  0.1312668E+00
        -11   -1    0    0    0    0  0.00000000000E+00  0.00000000000E+00  0.45593999997E+02  0.45594000000E+02  0.51100000000E-03 0.  1.
         11   -1    0    0    0    0 -0.00000000000E+00 -0.00000000000E+00 -0.45593999997E+02  0.45594000000E+02  0.51100000000E-03 0. -1.
    9900012    2    1    2    0    0  0.31508542229E+02  0.11873950778E+02 -0.27383294523E+02  0.47787265451E+02  0.19999974495E+02 0.  0.
        -12    1    1    2    0    0 -0.31508542229E+02 -0.11873950778E+02  0.27383294523E+02  0.43400734549E+02  0.00000000000E+00 0.  1.
         11    1    3    3    0    0  0.11699957512E+02  0.41696338609E+01 -0.17237482527E+02  0.21246309243E+02  0.51100000000E-03 0. -1.
        -11    1    3    3    0    0  0.19135400788E+02  0.25686482307E+01 -0.85985013086E+01  0.21135177834E+02  0.51100000000E-03 0.  1.
         12    1    3    3    0    0  0.67318392924E+00  0.51356686868E+01 -0.15473106875E+01  0.54057783738E+01  0.00000000000E+00 0. -1.
</event>
<event>
 7    1  0.2505412E-009  0.4778728E+02  0.7816164E-02  0.1312668E+00
        -11   -1    0    0    0    0  0.00000000000E+00  0.00000000000E+00  0.45593999997E+02  0.45594000000E+02  0.51100000000E-03 0. -1.
         11   -1    0    0    0    0 -0.00000000000E+00 -0.00000000000E+00 -0.45593999997E+02  0.45594000000E+02  0.51100000000E-03 0.  1.
    9900012    2    1    2    0    0 -0.29532594045E+02  0.75250841621E+01  0.30900190694E+02  0.47787276646E+02  0.20000025540E+02 0.  0.
        -12    1    1    2    0    0  0.29532594045E+02 -0.75250841621E+01 -0.30900190694E+02  0.43400723354E+02  0.00000000000E+00 0.  1.
         11    1    3    3    0    0 -0.14880681787E+02  0.28209122014E+01  0.23419328080E+02  0.27890090787E+02  0.51100000000E-03 0. -1.
        -11    1    3    3    0    0 -0.77793953127E+00  0.44948644276E+01  0.18258139140E+01  0.49135112544E+01  0.51100000000E-03 0.  1.
        -12    1    3    3    0    0 -0.13873972727E+02  0.20930753312E+00  0.56550487002E+01  0.14983674605E+02  0.00000000000E+00 0.  1.
</event>
<event>
 7    1  0.2505412E-009  0.4778727E+02  0.7816164E-02  0.1312668E+00
        -11   -1    0    0    0    0  0.00000000000E+00  0.00000000000E+00  0.45593999997E+02  0.45594000000E+02  0.51100000000E-03 0. -1.
         11   -1    0    0    0    0 -0.00000000000E+00 -0.00000000000E+00 -0.45593999997E+02  0.45594000000E+02  0.51100000000E-03 0.  1.
    9900012    2    1    2    0    0  0.42941516163E+02 -0.57913226965E+01  0.24718136493E+01  0.47787273144E+02  0.20000009571E+02 0.  0.
        -12    1    1    2    0    0 -0.42941516163E+02  0.57913226965E+01 -0.24718136493E+01  0.43400726856E+02  0.00000000000E+00 0.  1.
         11    1    3    3    0    0  0.10278945452E+02  0.30844281481E+01 -0.54608688533E+00  0.10745632962E+02  0.51100000000E-03 0.  1.
        -11    1    3    3    0    0  0.55537916769E+01 -0.63317760269E+01  0.49083182520E+01  0.97482089621E+01  0.51100000000E-03 0. -1.
         12    1    3    3    0    0  0.27108779034E+02 -0.25439748177E+01 -0.18904177173E+01  0.27293431220E+02  0.00000000000E+00 0. -1.
</event>
<event>
 7    1  0.2505412E-009  0.4778727E+02  0.7816164E-02  0.1312668E+00
        -11   -1    0    0    0    0  0.00000000000E+00  0.00000000000E+00  0.45593999997E+02  0.45594000000E+02  0.51100000000E-03 0.  1.
         11   -1    0    0    0    0 -0.00000000000E+00 -0.00000000000E+00 -0.45593999997E+02  0.45594000000E+02  0.51100000000E-03 0. -1.
    9900012    2    1    2    0    0 -0.27611206846E+02 -0.27642576938E+02  0.18897951388E+02  0.47787269938E+02  0.19999994956E+02 0.  0.
        -12    1    1    2    0    0  0.27611206846E+02  0.27642576938E+02 -0.18897951388E+02  0.43400730062E+02  0.00000000000E+00 0.  1.
         11    1    3    3    0    0 -0.11046921178E+01 -0.50380974722E+00 -0.17743083549E+01  0.21499626360E+01  0.51100000000E-03 0. -1.
        -11    1    3    3    0    0 -0.21637972739E+02 -0.13482829383E+02  0.17123028079E+02  0.30711343886E+02  0.51100000000E-03 0.  1.
        -12    1    3    3    0    0 -0.48685419889E+01 -0.13655937807E+02  0.35492316638E+01  0.14925963416E+02  0.00000000000E+00 0.  1.
</event>
<event>
 7    1  0.4773967E-009  0.4778727E+02  0.7816164E-02  0.1312668E+00
        -11   -1    0    0    0    0  0.00000000000E+00  0.00000000000E+00  0.45593999997E+02  0.45594000000E+02  0.51100000000E-03 0. -1.
         11   -1    0    0    0    0 -0.00000000000E+00 -0.00000000000E+00 -0.45593999997E+02  0.45594000000E+02  0.51100000000E-03 0.  1.
    9900012    2    1    2    0    0  0.16366751073E+02 -0.39069111921E+02  0.94528947264E+01  0.47787271139E+02  0.20000000429E+02 0.  0.
        -12    1    1    2    0    0 -0.16366751073E+02  0.39069111921E+02 -0.94528947264E+01  0.43400728861E+02  0.00000000000E+00 0.  1.
         11    1    3    3    0    0  0.12681155117E+02 -0.21513093483E+02  0.59925630578E+01  0.25681427113E+02  0.51100000000E-03 0. -1.
        -11    1    3    3    0    0 -0.51939332483E+00 -0.13734726610E+02  0.69869048852E+01  0.15418473485E+02  0.51100000000E-03 0.  1.
        -12    1    3    3    0    0  0.42049892811E+01 -0.38212918282E+01 -0.35265732166E+01  0.66873705402E+01  0.00000000000E+00 0.  1.
</event>
<event>
 7    1  0.2505412E-009  0.4778727E+02  0.7816164E-02  0.1312668E+00
        -11   -1    0    0    0    0  0.00000000000E+00  0.00000000000E+00  0.45593999997E+02  0.45594000000E+02  0.51100000000E-03 0. -1.
         11   -1    0    0    0    0 -0.00000000000E+00 -0.00000000000E+00 -0.45593999997E+02  0.45594000000E+02  0.51100000000E-03 0.  1.
    9900012    2    1    2    0    0 -0.13938448183E+02  0.13727411228E+02  0.38741464618E+02  0.47787271463E+02  0.20000001909E+02 0.  0.
        -12    1    1    2    0    0  0.13938448183E+02 -0.13727411228E+02 -0.38741464618E+02  0.43400728537E+02  0.00000000000E+00 0.  1.
         11    1    3    3    0    0 -0.85729162897E+01  0.12614693968E+02  0.24125974358E+02  0.28542740524E+02  0.51100000000E-03 0. -1.
        -11    1    3    3    0    0 -0.67096616631E+01  0.52511176507E+00  0.27201841807E+01  0.72591118077E+01  0.51100000000E-03 0.  1.
         12    1    3    3    0    0  0.13441297694E+01  0.58760549574E+00  0.11895306079E+02  0.11985419132E+02  0.00000000000E+00 0. -1.
</event>
<event>
 7    1  0.2505412E-009  0.4778727E+02  0.7816164E-02  0.1312668E+00
        -11   -1    0    0    0    0  0.00000000000E+00  0.00000000000E+00  0.45593999997E+02  0.45594000000E+02  0.51100000000E-03 0. -1.
         11   -1    0    0    0    0 -0.00000000000E+00 -0.00000000000E+00 -0.45593999997E+02  0.45594000000E+02  0.51100000000E-03 0.  1.
    9900012    2    1    2    0    0  0.77698298584E+01 -0.54515050357E+01  0.42350136998E+02  0.47787271124E+02  0.20000000364E+02 0.  0.
        -12    1    1    2    0    0 -0.77698298584E+01  0.54515050357E+01 -0.42350136998E+02  0.43400728876E+02  0.00000000000E+00 0.  1.
         11    1    3    3    0    0  0.56911182268E+01 -0.25792292587E+01  0.96033551952E+01  0.11457123614E+02  0.51100000000E-03 0. -1.
        -11    1    3    3    0    0 -0.23047734721E+01 -0.59428070817E+01  0.29251580828E+02  0.29938001235E+02  0.51100000000E-03 0.  1.
        -12    1    3    3    0    0  0.43834851036E+01  0.30705313048E+01  0.34952009752E+01  0.63921462752E+01  0.00000000000E+00 0.  1.
</event>
<event>
 7    1  0.2505412E-009  0.4778728E+02  0.7816164E-02  0.1312668E+00
        -11   -1    0    0    0    0  0.00000000000E+00  0.00000000000E+00  0.45593999997E+02  0.45594000000E+02  0.51100000000E-03 0.  1.
         11   -1    0    0    0    0 -0.00000000000E+00 -0.00000000000E+00 -0.45593999997E+02  0.45594000000E+02  0.51100000000E-03 0. -1.
    9900012    2    1    2    0    0 -0.13957422089E+02  0.25829733552E+02 -0.31963073173E+02  0.47787276349E+02  0.20000024184E+02 0.  0.
        -12    1    1    2    0    0  0.13957422089E+02 -0.25829733552E+02  0.31963073173E+02  0.43400723651E+02  0.00000000000E+00 0.  1.
         11    1    3    3    0    0 -0.16303906033E+02  0.18936581494E+02 -0.15785578037E+02  0.29556656523E+02  0.51100000000E-03 0. -1.
        -11    1    3    3    0    0 -0.36991572710E+00  0.11112713913E+01 -0.44901942406E+00  0.12543446315E+01  0.51100000000E-03 0.  1.
        -12    1    3    3    0    0  0.27163996712E+01  0.57818806673E+01 -0.15728475712E+02  0.16976275194E+02  0.00000000000E+00 0.  1.
</event>
<event>
 7    1  0.2505412E-009  0.4778727E+02  0.7816164E-02  0.1312668E+00
        -11   -1    0    0    0    0  0.00000000000E+00  0.00000000000E+00  0.45593999997E+02  0.45594000000E+02  0.51100000000E-03 0.  1.
         11   -1    0    0    0    0 -0.00000000000E+00 -0.00000000000E+00 -0.45593999997E+02  0.45594000000E+02  0.51100000000E-03 0. -1.
    9900012    2    1    2    0    0  0.17267116104E+02  0.14274557737E+01 -0.39792370251E+02  0.47787266610E+02  0.19999979784E+02 0.  0.
        -12    1    1    2    0    0 -0.17267116104E+02 -0.14274557737E+01  0.39792370251E+02  0.43400733390E+02  0.00000000000E+00 0.  1.
         11    1    3    3    0    0  0.97855756327E+01  0.13912503244E+01 -0.10869295966E+02  0.14691312501E+02  0.51100000000E-03 0. -1.
        -11    1    3    3    0    0  0.19928134163E+01 -0.68886359052E+01 -0.11334310057E+02  0.13412352317E+02  0.51100000000E-03 0.  1.
         12    1    3    3    0    0  0.54887270547E+01  0.69248413544E+01 -0.17588764228E+02  0.19683601793E+02  0.00000000000E+00 0. -1.
</event>
<event>
 7    1  0.2505412E-009  0.4778727E+02  0.7816164E-02  0.1312668E+00
        -11   -1    0    0    0    0  0.00000000000E+00  0.00000000000E+00  0.45593999997E+02  0.45594000000E+02  0.51100000000E-03 0.  1.
         11   -1    0    0    0    0 -0.00000000000E+00 -0.00000000000E+00 -0.45593999997E+02  0.45594000000E+02  0.51100000000E-03 0. -1.
    9900012    2    1    2    0    0  0.16476033076E+02 -0.25527223254E+02 -0.30992324000E+02  0.47787274892E+02  0.20000017542E+02 0.  0.
        -12    1    1    2    0    0 -0.16476033076E+02  0.25527223254E+02  0.30992324000E+02  0.43400725108E+02  0.00000000000E+00 0.  1.
         11    1    3    3    0    0  0.23649764451E+01 -0.45675398479E+01 -0.52473796273E+01  0.73478246483E+01  0.51100000000E-03 0. -1.
        -11    1    3    3    0    0 -0.74224991121E+00 -0.14187995458E+02 -0.79068300914E+01  0.16259400739E+02  0.51100000000E-03 0.  1.
        -12    1    3    3    0    0  0.14853306542E+02 -0.67716879478E+01 -0.17838114281E+02  0.24180049504E+02  0.00000000000E+00 0.  1.
</event>
<event>
 7    1  0.2505412E-009  0.4778727E+02  0.7816164E-02  0.1312668E+00
        -11   -1    0    0    0    0  0.00000000000E+00  0.00000000000E+00  0.45593999997E+02  0.45594000000E+02  0.51100000000E-03 0.  1.
         11   -1    0    0    0    0 -0.00000000000E+00 -0.00000000000E+00 -0.45593999997E+02  0.45594000000E+02  0.51100000000E-03 0. -1.
    9900012    2    1    2    0    0 -0.26366745614E+02  0.71229871707E+01 -0.33729531332E+02  0.47787268389E+02  0.19999987893E+02 0.  0.
        -12    1    1    2    0    0  0.26366745614E+02 -0.71229871707E+01  0.33729531332E+02  0.43400731611E+02  0.00000000000E+00 0.  1.
         11    1    3    3    0    0 -0.14199504481E+02  0.68887276416E+01 -0.18541353620E+02  0.24348763631E+02  0.51100000000E-03 0. -1.
        -11    1    3    3    0    0 -0.17955689068E+01  0.41805564702E+01  0.95749774367E-01  0.45508557854E+01  0.51100000000E-03 0.  1.
        -12    1    3    3    0    0 -0.10371672225E+02 -0.39462969411E+01 -0.15283927486E+02  0.18887648972E+02  0.00000000000E+00 0.  1.
</event>
<event>
 7    1  0.2505412E-009  0.4778727E+02  0.7816164E-02  0.1312668E+00
        -11   -1    0    0    0    0  0.00000000000E+00  0.00000000000E+00  0.45593999997E+02  0.45594000000E+02  0.51100000000E-03 0. -1.
         11   -1    0    0    0    0 -0.00000000000E+00 -0.00000000000E+00 -0.45593999997E+02  0.45594000000E+02  0.51100000000E-03 0.  1.
    9900012    2    1    2    0    0  0.29950909782E+01 -0.67381163094E+01  0.42769738142E+02  0.47787270950E+02  0.19999999568E+02 0.  0.
        -12    1    1    2    0    0 -0.29950909782E+01  0.67381163094E+01 -0.42769738142E+02  0.43400729050E+02  0.00000000000E+00 0.  1.
         11    1    3    3    0    0  0.41190370150E+01 -0.23311990251E+01  0.11131614630E+02  0.12096024113E+02  0.51100000000E-03 0. -1.
        -11    1    3    3    0    0  0.67824219700E+01 -0.44273953465E+01  0.11583555458E+02  0.14134420209E+02  0.51100000000E-03 0.  1.
         12    1    3    3    0    0 -0.79063680068E+01  0.20478062166E-01  0.20054568054E+02  0.21556826627E+02  0.00000000000E+00 0. -1.
</event>
<event>
 7    1  0.2505412E-009  0.4778727E+02  0.7816164E-02  0.1312668E+00
        -11   -1    0    0    0    0  0.00000000000E+00  0.00000000000E+00  0.45593999997E+02  0.45594000000E+02  0.51100000000E-03 0. -1.
         11   -1    0    0    0    0 -0.00000000000E+00 -0.00000000000E+00 -0.45593999997E+02  0.45594000000E+02  0.51100000000E-03 0.  1.
    9900012    2    1    2    0    0 -0.39922251982E+02 -0.17354387243E+01  0.16935909615E+02  0.47787274368E+02  0.20000015155E+02 0.  0.
        -12    1    1    2    0    0  0.39922251982E+02  0.17354387243E+01 -0.16935909615E+02  0.43400725632E+02  0.00000000000E+00 0.  1.
         11    1    3    3    0    0 -0.19560953120E+02  0.45428479581E+01  0.43194851019E+01  0.20540844830E+02  0.51100000000E-03 0.  1.
        -11    1    3    3    0    0 -0.55398046823E+01 -0.11942803270E+00  0.93479645740E+01  0.10866836748E+02  0.51100000000E-03 0. -1.
         12    1    3    3    0    0 -0.14821494180E+02 -0.61588586497E+01  0.32684599388E+01  0.16379592790E+02  0.00000000000E+00 0. -1.
</event>
<event>
 7    1  0.2505412E-009  0.4778727E+02  0.7816164E-02  0.1312668E+00
        -11   -1    0    0    0    0  0.00000000000E+00  0.00000000000E+00  0.45593999997E+02  0.45594000000E+02  0.51100000000E-03 0.  1.
         11   -1    0    0    0    0 -0.00000000000E+00 -0.00000000000E+00 -0.45593999997E+02  0.45594000000E+02  0.51100000000E-03 0. -1.
    9900012    2    1    2    0    0 -0.25618721976E+02 -0.47290831864E+01 -0.34712249302E+02  0.47787269648E+02  0.19999993632E+02 0.  0.
        -12    1    1    2    0    0  0.25618721976E+02  0.47290831864E+01  0.34712249302E+02  0.43400730352E+02  0.00000000000E+00 0.  1.
         11    1    3    3    0    0 -0.22491534700E+01 -0.44140768743E+01 -0.48648296580E+01  0.69432941639E+01  0.51100000000E-03 0. -1.
        -11    1    3    3    0    0 -0.17299403260E+02  0.99340020721E+00 -0.29986294822E+02  0.34632846758E+02  0.51100000000E-03 0.  1.
        -12    1    3    3    0    0 -0.60701652465E+01 -0.13084065193E+01  0.13887517799E+00  0.62111287263E+01  0.00000000000E+00 0.  1.
</event>
<event>
 7    1  0.2505412E-009  0.4778726E+02  0.7816164E-02  0.1312668E+00
        -11   -1    0    0    0    0  0.00000000000E+00  0.00000000000E+00  0.45593999997E+02  0.45594000000E+02  0.51100000000E-03 0.  1.
         11   -1    0    0    0    0 -0.00000000000E+00 -0.00000000000E+00 -0.45593999997E+02  0.45594000000E+02  0.51100000000E-03 0. -1.
    9900012    2    1    2    0    0  0.31617218897E+02 -0.24632831648E+02 -0.16649301585E+02  0.47787260732E+02  0.19999952980E+02 0.  0.
        -12    1    1    2    0    0 -0.31617218897E+02  0.24632831648E+02  0.16649301585E+02  0.43400739268E+02  0.00000000000E+00 0.  1.
         11    1    3    3    0    0  0.11716141083E+02 -0.50512681151E+01 -0.15277337505E+01  0.12849795411E+02  0.51100000000E-03 0. -1.
        -11    1    3    3    0    0  0.42082075715E+00  0.15989942573E+01  0.10200696393E+01  0.19427853908E+01  0.51100000000E-03 0.  1.
        -12    1    3    3    0    0  0.19480257057E+02 -0.21180557790E+02 -0.16141637474E+02  0.32994679930E+02  0.00000000000E+00 0.  1.
</event>
<event>
 7    1  0.2505412E-009  0.4778726E+02  0.7816164E-02  0.1312668E+00
        -11   -1    0    0    0    0  0.00000000000E+00  0.00000000000E+00  0.45593999997E+02  0.45594000000E+02  0.51100000000E-03 0.  1.
         11   -1    0    0    0    0 -0.00000000000E+00 -0.00000000000E+00 -0.45593999997E+02  0.45594000000E+02  0.51100000000E-03 0. -1.
    9900012    2    1    2    0    0  0.16896775536E+02  0.39521961082E+02 -0.60114578619E+01  0.47787262024E+02  0.19999958871E+02 0.  0.
        -12    1    1    2    0    0 -0.16896775536E+02 -0.39521961082E+02  0.60114578619E+01  0.43400737976E+02  0.00000000000E+00 0.  1.
         11    1    3    3    0    0 -0.13072104796E+01  0.69022721089E+01  0.24501037731E+01  0.74399709853E+01  0.51100000000E-03 0.  1.
        -11    1    3    3    0    0  0.23124847072E+00  0.67499735093E+01 -0.54964830903E+01  0.87078668372E+01  0.51100000000E-03 0. -1.
        -12    1    3    3    0    0  0.17972737545E+02  0.25869715464E+02 -0.29650785446E+01  0.31639424201E+02  0.00000000000E+00 0.  1.
</event>
<event>
 7    1  0.2505412E-009  0.4778727E+02  0.7816164E-02  0.1312668E+00
        -11   -1    0    0    0    0  0.00000000000E+00  0.00000000000E+00  0.45593999997E+02  0.45594000000E+02  0.51100000000E-03 0. -1.
         11   -1    0    0    0    0 -0.00000000000E+00 -0.00000000000E+00 -0.45593999997E+02  0.45594000000E+02  0.51100000000E-03 0.  1.
    9900012    2    1    2    0    0 -0.30035604975E+02 -0.82342378338E+01  0.30227191846E+02  0.47787269985E+02  0.19999995169E+02 0.  0.
        -12    1    1    2    0    0  0.30035604975E+02  0.82342378338E+01 -0.30227191846E+02  0.43400730015E+02  0.00000000000E+00 0.  1.
         11    1    3    3    0    0 -0.56817293601E+01  0.81317529414E+00 -0.11263981195E+01  0.58491089548E+01  0.51100000000E-03 0.  1.
        -11    1    3    3    0    0 -0.20109988051E+02 -0.31306919712E+01  0.20658863613E+02  0.29000025822E+02  0.51100000000E-03 0. -1.
        -12    1    3    3    0    0 -0.42438875639E+01 -0.59167211567E+01  0.10694726353E+02  0.12938135208E+02  0.00000000000E+00 0.  1.
</event>
<event>
 7    1  0.2505412E-009  0.4778727E+02  0.7816164E-02  0.1312668E+00
        -11   -1    0    0    0    0  0.00000000000E+00  0.00000000000E+00  0.45593999997E+02  0.45594000000E+02  0.51100000000E-03 0.  1.
         11   -1    0    0    0    0 -0.00000000000E+00 -0.00000000000E+00 -0.45593999997E+02  0.45594000000E+02  0.51100000000E-03 0. -1.
    9900012    2    1    2    0    0  0.36628490187E+02 -0.77989613415E+01 -0.21935203183E+02  0.47787271549E+02  0.20000002301E+02 0.  0.
        -12    1    1    2    0    0 -0.36628490187E+02  0.77989613415E+01  0.21935203183E+02  0.43400728451E+02  0.00000000000E+00 0.  1.
         11    1    3    3    0    0  0.29455785842E+01 -0.20025142720E+01  0.13276622115E+01  0.38012082045E+01  0.51100000000E-03 0. -1.
        -11    1    3    3    0    0  0.59339801084E+01 -0.33758599414E+01  0.11794114684E+01  0.69281716162E+01  0.51100000000E-03 0.  1.
         12    1    3    3    0    0  0.27748931495E+02 -0.24205871281E+01 -0.24442276862E+02  0.37057891728E+02  0.00000000000E+00 0. -1.
</event>
<event>
 7    1  0.2505412E-009  0.4778728E+02  0.7816164E-02  0.1312668E+00
        -11   -1    0    0    0    0  0.00000000000E+00  0.00000000000E+00  0.45593999997E+02  0.45594000000E+02  0.51100000000E-03 0. -1.
         11   -1    0    0    0    0 -0.00000000000E+00 -0.00000000000E+00 -0.45593999997E+02  0.45594000000E+02  0.51100000000E-03 0.  1.
    9900012    2    1    2    0    0 -0.29109434189E+02 -0.96198905208E+01  0.30720048127E+02  0.47787276396E+02  0.20000024400E+02 0.  0.
        -12    1    1    2    0    0  0.29109434189E+02  0.96198905208E+01 -0.30720048127E+02  0.43400723604E+02  0.00000000000E+00 0.  1.
         11    1    3    3    0    0 -0.10647035066E+02 -0.19861345043E+01  0.10978538824E+02  0.15421815747E+02  0.51100000000E-03 0. -1.
        -11    1    3    3    0    0 -0.32589536285E+01  0.46862568423E+00 -0.25700792977E+01  0.41768045971E+01  0.51100000000E-03 0.  1.
        -12    1    3    3    0    0 -0.15203445494E+02 -0.81023817008E+01  0.22311588601E+02  0.28188656052E+02  0.00000000000E+00 0.  1.
</event>
<event>
 7    1  0.2505412E-009  0.4778728E+02  0.7816164E-02  0.1312668E+00
        -11   -1    0    0    0    0  0.00000000000E+00  0.00000000000E+00  0.45593999997E+02  0.45594000000E+02  0.51100000000E-03 0. -1.
         11   -1    0    0    0    0 -0.00000000000E+00 -0.00000000000E+00 -0.45593999997E+02  0.45594000000E+02  0.51100000000E-03 0.  1.
    9900012    2    1    2    0    0 -0.26148233830E+02  0.34542731091E+02 -0.25868391904E+01  0.47787284100E+02  0.20000059526E+02 0.  0.
        -12    1    1    2    0    0  0.26148233830E+02 -0.34542731091E+02  0.25868391904E+01  0.43400715900E+02  0.00000000000E+00 0.  1.
         11    1    3    3    0    0 -0.10514193389E+02  0.21550778759E+02 -0.40211251580E+01  0.24313654097E+02  0.51100000000E-03 0. -1.
        -11    1    3    3    0    0 -0.92647908917E+01  0.12234486541E+02  0.49929619732E+01  0.16138422497E+02  0.51100000000E-03 0.  1.
        -12    1    3    3    0    0 -0.63692495490E+01  0.75746579098E+00 -0.35586760055E+01  0.73352075058E+01  0.00000000000E+00 0.  1.
</event>
<event>
 7    1  0.2505412E-009  0.4778727E+02  0.7816164E-02  0.1312668E+00
        -11   -1    0    0    0    0  0.00000000000E+00  0.00000000000E+00  0.45593999997E+02  0.45594000000E+02  0.51100000000E-03 0.  1.
         11   -1    0    0    0    0 -0.00000000000E+00 -0.00000000000E+00 -0.45593999997E+02  0.45594000000E+02  0.51100000000E-03 0. -1.
    9900012    2    1    2    0    0 -0.40330389726E+02  0.13693398982E+02 -0.83410939891E+01  0.47787270052E+02  0.19999995474E+02 0.  0.
        -12    1    1    2    0    0  0.40330389726E+02 -0.13693398982E+02  0.83410939891E+01  0.43400729948E+02  0.00000000000E+00 0.  1.
         11    1    3    3    0    0 -0.13030852816E+02  0.42550091532E+00 -0.10515176032E+02  0.16749719502E+02  0.51100000000E-03 0. -1.
        -11    1    3    3    0    0 -0.44240937954E+01  0.45934169920E+01  0.15573078837E+01  0.65648529061E+01  0.51100000000E-03 0.  1.
         12    1    3    3    0    0 -0.22875443115E+02  0.86744810745E+01  0.61677415954E+00  0.24472697644E+02  0.00000000000E+00 0. -1.
</event>
<event>
 7    1  0.2505412E-009  0.4778727E+02  0.7816164E-02  0.1312668E+00
        -11   -1    0    0    0    0  0.00000000000E+00  0.00000000000E+00  0.45593999997E+02  0.45594000000E+02  0.51100000000E-03 0. -1.
         11   -1    0    0    0    0 -0.00000000000E+00 -0.00000000000E+00 -0.45593999997E+02  0.45594000000E+02  0.51100000000E-03 0.  1.
    9900012    2    1    2    0    0 -0.12115482716E+02  0.14526565496E+02  0.39061709185E+02  0.47787272460E+02  0.20000006455E+02 0.  0.
        -12    1    1    2    0    0  0.12115482716E+02 -0.14526565496E+02 -0.39061709185E+02  0.43400727540E+02  0.00000000000E+00 0.  1.
         11    1    3    3    0    0 -0.94403979224E+01  0.71802932471E+01  0.15186045852E+02  0.19268983183E+02  0.51100000000E-03 0. -1.
        -11    1    3    3    0    0 -0.70629606237E+01  0.30349153908E+01  0.19524685597E+02  0.20983552419E+02  0.51100000000E-03 0.  1.
         12    1    3    3    0    0  0.43878758298E+01  0.43113568583E+01  0.43509777360E+01  0.75347368578E+01  0.00000000000E+00 0. -1.
</event>
<event>
 7    1  0.2505412E-009  0.4778726E+02  0.7816164E-02  0.1312668E+00
        -11   -1    0    0    0    0  0.00000000000E+00  0.00000000000E+00  0.45593999997E+02  0.45594000000E+02  0.51100000000E-03 0. -1.
         11   -1    0    0    0    0 -0.00000000000E+00 -0.00000000000E+00 -0.45593999997E+02  0.45594000000E+02  0.51100000000E-03 0.  1.
    9900012    2    1    2    0    0 -0.39985860905E+02  0.16798333320E+02  0.16033974845E+01  0.47787263161E+02  0.19999964056E+02 0.  0.
        -12    1    1    2    0    0  0.39985860905E+02 -0.16798333320E+02 -0.16033974845E+01  0.43400736839E+02  0.00000000000E+00 0.  1.
         11    1    3    3    0    0 -0.73488811137E+01  0.66136825193E+01  0.56983718757E+01  0.11411322990E+02  0.51100000000E-03 0. -1.
        -11    1    3    3    0    0 -0.22691282928E+02  0.12537391082E+02 -0.29267460201E+01  0.26089199654E+02  0.51100000000E-03 0.  1.
         12    1    3    3    0    0 -0.99456968635E+01 -0.23527402810E+01 -0.11682283711E+01  0.10286740517E+02  0.00000000000E+00 0. -1.
</event>
<event>
 7    1  0.2505412E-009  0.4778727E+02  0.7816164E-02  0.1312668E+00
        -11   -1    0    0    0    0  0.00000000000E+00  0.00000000000E+00  0.45593999997E+02  0.45594000000E+02  0.51100000000E-03 0. -1.
         11   -1    0    0    0    0 -0.00000000000E+00 -0.00000000000E+00 -0.45593999997E+02  0.45594000000E+02  0.51100000000E-03 0.  1.
    9900012    2    1    2    0    0 -0.71457633601E+01  0.21948823373E+02  0.36753372380E+02  0.47787272325E+02  0.20000005839E+02 0.  0.
        -12    1    1    2    0    0  0.71457633601E+01 -0.21948823373E+02 -0.36753372380E+02  0.43400727675E+02  0.00000000000E+00 0.  1.
         11    1    3    3    0    0 -0.12585486567E+02  0.18211038498E+02  0.21877096026E+02  0.31123041723E+02  0.51100000000E-03 0. -1.
        -11    1    3    3    0    0  0.30428721073E+01  0.40762128640E+01  0.98898234548E+01  0.11121294448E+02  0.51100000000E-03 0.  1.
         12    1    3    3    0    0  0.23968510994E+01 -0.33842798907E+00  0.49864528987E+01  0.55429361540E+01  0.00000000000E+00 0. -1.
</event>
<event>
 7    1  0.2505412E-009  0.4778727E+02  0.7816164E-02  0.1312668E+00
        -11   -1    0    0    0    0  0.00000000000E+00  0.00000000000E+00  0.45593999997E+02  0.45594000000E+02  0.51100000000E-03 0.  1.
         11   -1    0    0    0    0 -0.00000000000E+00 -0.00000000000E+00 -0.45593999997E+02  0.45594000000E+02  0.51100000000E-03 0. -1.
    9900012    2    1    2    0    0  0.93649827200E+01 -0.24003209570E+02 -0.34925153276E+02  0.47787270716E+02  0.19999998502E+02 0.  0.
        -12    1    1    2    0    0 -0.93649827200E+01  0.24003209570E+02  0.34925153276E+02  0.43400729284E+02  0.00000000000E+00 0.  1.
         11    1    3    3    0    0  0.75144251073E+01 -0.26317561388E+02 -0.27013275469E+02  0.38455138459E+02  0.51100000000E-03 0. -1.
        -11    1    3    3    0    0 -0.28849486060E+00  0.81962127592E+00  0.12897316134E+00  0.87843193134E+00  0.51100000000E-03 0.  1.
         12    1    3    3    0    0  0.21390524733E+01  0.14947305423E+01 -0.80408509692E+01  0.84537003251E+01  0.00000000000E+00 0. -1.
</event>
<event>
 7    1  0.2505412E-009  0.4778726E+02  0.7816164E-02  0.1312668E+00
        -11   -1    0    0    0    0  0.00000000000E+00  0.00000000000E+00  0.45593999997E+02  0.45594000000E+02  0.51100000000E-03 0. -1.
         11   -1    0    0    0    0 -0.00000000000E+00 -0.00000000000E+00 -0.45593999997E+02  0.45594000000E+02  0.51100000000E-03 0.  1.
    9900012    2    1    2    0    0 -0.21458779568E+02  0.36850350140E+02 -0.80744593153E+01  0.47787257850E+02  0.19999939839E+02 0.  0.
        -12    1    1    2    0    0  0.21458779568E+02 -0.36850350140E+02  0.80744593153E+01  0.43400742150E+02  0.00000000000E+00 0.  1.
         11    1    3    3    0    0  0.78985724949E+00  0.11100534696E+01 -0.31639671844E+01  0.34448195576E+01  0.51100000000E-03 0. -1.
        -11    1    3    3    0    0  0.17491385433E+01  0.26399670680E+01 -0.68765483168E+00  0.32406451815E+01  0.51100000000E-03 0.  1.
         12    1    3    3    0    0 -0.23997775361E+02  0.33100329602E+02 -0.42228372992E+01  0.41101793111E+02  0.00000000000E+00 0. -1.
</event>
<event>
 7    1  0.2505412E-009  0.4778727E+02  0.7816164E-02  0.1312668E+00
        -11   -1    0    0    0    0  0.00000000000E+00  0.00000000000E+00  0.45593999997E+02  0.45594000000E+02  0.51100000000E-03 0.  1.
         11   -1    0    0    0    0 -0.00000000000E+00 -0.00000000000E+00 -0.45593999997E+02  0.45594000000E+02  0.51100000000E-03 0. -1.
    9900012    2    1    2    0    0 -0.12031330483E+02 -0.36783218639E+02 -0.19643451105E+02  0.47787271228E+02  0.20000000836E+02 0.  0.
        -12    1    1    2    0    0  0.12031330483E+02  0.36783218639E+02  0.19643451105E+02  0.43400728772E+02  0.00000000000E+00 0.  1.
         11    1    3    3    0    0 -0.49438257398E+01 -0.27028563037E+02 -0.99514308356E+01  0.29223545451E+02  0.51100000000E-03 0. -1.
        -11    1    3    3    0    0 -0.48686541236E+01 -0.11037865736E+02 -0.46905520489E+01  0.12943707033E+02  0.51100000000E-03 0.  1.
        -12    1    3    3    0    0 -0.22188506192E+01  0.12832101337E+01 -0.50014682201E+01  0.56200187433E+01  0.00000000000E+00 0.  1.
</event>
<event>
 7    1  0.2505412E-009  0.4778727E+02  0.7816164E-02  0.1312668E+00
        -11   -1    0    0    0    0  0.00000000000E+00  0.00000000000E+00  0.45593999997E+02  0.45594000000E+02  0.51100000000E-03 0.  1.
         11   -1    0    0    0    0 -0.00000000000E+00 -0.00000000000E+00 -0.45593999997E+02  0.45594000000E+02  0.51100000000E-03 0. -1.
    9900012    2    1    2    0    0 -0.30273406705E+02 -0.24274050699E+02 -0.19440028812E+02  0.47787269464E+02  0.19999992792E+02 0.  0.
        -12    1    1    2    0    0  0.30273406705E+02  0.24274050699E+02  0.19440028812E+02  0.43400730536E+02  0.00000000000E+00 0.  1.
         11    1    3    3    0    0 -0.11013465062E+02 -0.31960874923E+01 -0.86684753731E+01  0.14375460114E+02  0.51100000000E-03 0. -1.
        -11    1    3    3    0    0  0.19726186174E+01 -0.36533658097E+01 -0.11483597816E+01  0.43077878776E+01  0.51100000000E-03 0.  1.
         12    1    3    3    0    0 -0.21232560261E+02 -0.17424597397E+02 -0.96231936570E+01  0.29104021472E+02  0.00000000000E+00 0. -1.
</event>
<event>
 7    1  0.2505412E-009  0.4778727E+02  0.7816164E-02  0.1312668E+00
        -11   -1    0    0    0    0  0.00000000000E+00  0.00000000000E+00  0.45593999997E+02  0.45594000000E+02  0.51100000000E-03 0. -1.
         11   -1    0    0    0    0 -0.00000000000E+00 -0.00000000000E+00 -0.45593999997E+02  0.45594000000E+02  0.51100000000E-03 0.  1.
    9900012    2    1    2    0    0  0.18775487390E+02 -0.32098088833E+02  0.22378946404E+02  0.47787268720E+02  0.19999989404E+02 0.  0.
        -12    1    1    2    0    0 -0.18775487390E+02  0.32098088833E+02 -0.22378946404E+02  0.43400731280E+02  0.00000000000E+00 0.  1.
         11    1    3    3    0    0 -0.20792427222E+01 -0.44895400501E+01  0.68038372976E+01  0.84125752533E+01  0.51100000000E-03 0. -1.
        -11    1    3    3    0    0  0.10263313517E+02 -0.21716441688E+02  0.11021120264E+02  0.26427344477E+02  0.51100000000E-03 0.  1.
        -12    1    3    3    0    0  0.10591416595E+02 -0.58921070948E+01  0.45539888416E+01  0.12947348991E+02  0.00000000000E+00 0.  1.
</event>
<event>
 7    1  0.2505412E-009  0.4778727E+02  0.7816164E-02  0.1312668E+00
        -11   -1    0    0    0    0  0.00000000000E+00  0.00000000000E+00  0.45593999997E+02  0.45594000000E+02  0.51100000000E-03 0. -1.
         11   -1    0    0    0    0 -0.00000000000E+00 -0.00000000000E+00 -0.45593999997E+02  0.45594000000E+02  0.51100000000E-03 0.  1.
    9900012    2    1    2    0    0  0.42864626665E+02 -0.10495724865E+01 -0.67190350430E+01  0.47787271280E+02  0.20000001072E+02 0.  0.
        -12    1    1    2    0    0 -0.42864626665E+02  0.10495724865E+01  0.67190350430E+01  0.43400728720E+02  0.00000000000E+00 0.  1.
         11    1    3    3    0    0  0.13110493051E+02 -0.31680574914E+00  0.61822635143E+01  0.14498474966E+02  0.51100000000E-03 0.  1.
        -11    1    3    3    0    0  0.87441504430E+01 -0.35498048424E+01 -0.48764802681E+01  0.10622680521E+02  0.51100000000E-03 0. -1.
        -12    1    3    3    0    0  0.21009983171E+02  0.28170381050E+01 -0.80248182892E+01  0.22666115792E+02  0.00000000000E+00 0.  1.
</event>
<event>
 7    1  0.2505412E-009  0.4778725E+02  0.7816164E-02  0.1312668E+00
        -11   -1    0    0    0    0  0.00000000000E+00  0.00000000000E+00  0.45593999997E+02  0.45594000000E+02  0.51100000000E-03 0.  1.
         11   -1    0    0    0    0 -0.00000000000E+00 -0.00000000000E+00 -0.45593999997E+02  0.45594000000E+02  0.51100000000E-03 0. -1.
    9900012    2    1    2    0    0  0.15823058314E+02 -0.14515367213E+02  0.37716845762E+02  0.47787245237E+02  0.19999882332E+02 0.  0.
        -12    1    1    2    0    0 -0.15823058314E+02  0.14515367213E+02 -0.37716845762E+02  0.43400754763E+02  0.00000000000E+00 0.  1.
         11    1    3    3    0    0  0.48152072050E+01 -0.85588405926E+00  0.16530676823E+02  0.17238968485E+02  0.51100000000E-03 0. -1.
        -11    1    3    3    0    0  0.26245289990E+01 -0.83473073805E+01  0.20432694341E+01  0.89855797372E+01  0.51100000000E-03 0.  1.
        -12    1    3    3    0    0  0.83833221104E+01 -0.53121757733E+01  0.19142899505E+02  0.21562697014E+02  0.00000000000E+00 0.  1.
</event>
<event>
 7    1  0.2505412E-009  0.4778726E+02  0.7816164E-02  0.1312668E+00
        -11   -1    0    0    0    0  0.00000000000E+00  0.00000000000E+00  0.45593999997E+02  0.45594000000E+02  0.51100000000E-03 0. -1.
         11   -1    0    0    0    0 -0.00000000000E+00 -0.00000000000E+00 -0.45593999997E+02  0.45594000000E+02  0.51100000000E-03 0.  1.
    9900012    2    1    2    0    0  0.41175412309E+02  0.10618294050E+02  0.86868388051E+01  0.47787263650E+02  0.19999966284E+02 0.  0.
        -12    1    1    2    0    0 -0.41175412309E+02 -0.10618294050E+02 -0.86868388051E+01  0.43400736350E+02  0.00000000000E+00 0.  1.
         11    1    3    3    0    0  0.43427239678E+00 -0.14783938307E+01 -0.23410079851E+01  0.28025987013E+01  0.51100000000E-03 0. -1.
        -11    1    3    3    0    0  0.21937101585E+02  0.47454639121E+01  0.10632965260E+01  0.22469678535E+02  0.51100000000E-03 0.  1.
         12    1    3    3    0    0  0.18804038327E+02  0.73512239687E+01  0.99645502643E+01  0.22514986414E+02  0.00000000000E+00 0. -1.
</event>
<event>
 7    1  0.2505412E-009  0.4778727E+02  0.7816164E-02  0.1312668E+00
        -11   -1    0    0    0    0  0.00000000000E+00  0.00000000000E+00  0.45593999997E+02  0.45594000000E+02  0.51100000000E-03 0. -1.
         11   -1    0    0    0    0 -0.00000000000E+00 -0.00000000000E+00 -0.45593999997E+02  0.45594000000E+02  0.51100000000E-03 0.  1.
    9900012    2    1    2    0    0 -0.12187300876E+02  0.17369647331E+02  0.37860116721E+02  0.47787269716E+02  0.19999993943E+02 0.  0.
        -12    1    1    2    0    0  0.12187300876E+02 -0.17369647331E+02 -0.37860116721E+02  0.43400730284E+02  0.00000000000E+00 0.  1.
         11    1    3    3    0    0 -0.77765033912E+01  0.70023987869E+01  0.22730158683E+02  0.25023343258E+02  0.51100000000E-03 0. -1.
        -11    1    3    3    0    0 -0.82494456112E+01  0.33675108662E+01  0.66566145874E+01  0.11122230008E+02  0.51100000000E-03 0.  1.
        -12    1    3    3    0    0  0.38386481270E+01  0.69997376782E+01  0.84733434508E+01  0.11641696450E+02  0.00000000000E+00 0.  1.
</event>
<event>
 7    1  0.2505412E-009  0.4778727E+02  0.7816164E-02  0.1312668E+00
        -11   -1    0    0    0    0  0.00000000000E+00  0.00000000000E+00  0.45593999997E+02  0.45594000000E+02  0.51100000000E-03 0.  1.
         11   -1    0    0    0    0 -0.00000000000E+00 -0.00000000000E+00 -0.45593999997E+02  0.45594000000E+02  0.51100000000E-03 0. -1.
    9900012    2    1    2    0    0  0.29229965360E+02  0.32015866545E+02  0.20534365698E+01  0.47787272042E+02  0.20000004547E+02 0.  0.
        -12    1    1    2    0    0 -0.29229965360E+02 -0.32015866545E+02 -0.20534365698E+01  0.43400727958E+02  0.00000000000E+00 0.  1.
         11    1    3    3    0    0  0.10832757358E+02  0.13166847838E+02 -0.33574463820E+01  0.17377772022E+02  0.51100000000E-03 0. -1.
        -11    1    3    3    0    0  0.13827235387E+02  0.51886842945E+01  0.61223829320E+01  0.15987446831E+02  0.51100000000E-03 0.  1.
        -12    1    3    3    0    0  0.45699726148E+01  0.13660334412E+02 -0.71149998023E+00  0.14422053189E+02  0.00000000000E+00 0.  1.
</event>
<event>
 7    1  0.2505412E-009  0.4778727E+02  0.7816164E-02  0.1312668E+00
        -11   -1    0    0    0    0  0.00000000000E+00  0.00000000000E+00  0.45593999997E+02  0.45594000000E+02  0.51100000000E-03 0. -1.
         11   -1    0    0    0    0 -0.00000000000E+00 -0.00000000000E+00 -0.45593999997E+02  0.45594000000E+02  0.51100000000E-03 0.  1.
    9900012    2    1    2    0    0  0.37967869900E+02  0.20080458942E+02 -0.62321417447E+01  0.47787267670E+02  0.19999984616E+02 0.  0.
        -12    1    1    2    0    0 -0.37967869900E+02 -0.20080458942E+02  0.62321417447E+01  0.43400732330E+02  0.00000000000E+00 0.  1.
         11    1    3    3    0    0  0.13575745471E+02 -0.18770727595E+01 -0.31776583097E+01  0.14068467572E+02  0.51100000000E-03 0. -1.
        -11    1    3    3    0    0  0.21601963611E+01  0.55088522345E+01 -0.81173552061E+00  0.59726724401E+01  0.51100000000E-03 0.  1.
         12    1    3    3    0    0  0.22231928068E+02  0.16448679467E+02 -0.22427479144E+01  0.27746127658E+02  0.00000000000E+00 0. -1.
</event>
<event>
 7    1  0.2505412E-009  0.4778727E+02  0.7816164E-02  0.1312668E+00
        -11   -1    0    0    0    0  0.00000000000E+00  0.00000000000E+00  0.45593999997E+02  0.45594000000E+02  0.51100000000E-03 0. -1.
         11   -1    0    0    0    0 -0.00000000000E+00 -0.00000000000E+00 -0.45593999997E+02  0.45594000000E+02  0.51100000000E-03 0.  1.
    9900012    2    1    2    0    0 -0.37988136007E+02 -0.20131848721E+02  0.59357517660E+01  0.47787274670E+02  0.20000016529E+02 0.  0.
        -12    1    1    2    0    0  0.37988136007E+02  0.20131848721E+02 -0.59357517660E+01  0.43400725330E+02  0.00000000000E+00 0.  1.
         11    1    3    3    0    0 -0.10467751473E+01  0.17027363507E+01  0.29630250873E+01  0.35741526573E+01  0.51100000000E-03 0. -1.
        -11    1    3    3    0    0 -0.21026717843E+02 -0.11732898960E+02  0.67102582534E+01  0.24996226662E+02  0.51100000000E-03 0.  1.
        -12    1    3    3    0    0 -0.15914643016E+02 -0.10101686111E+02 -0.37375315747E+01  0.19216895350E+02  0.00000000000E+00 0.  1.
</event>
<event>
 7    1  0.2505412E-009  0.4778727E+02  0.7816164E-02  0.1312668E+00
        -11   -1    0    0    0    0  0.00000000000E+00  0.00000000000E+00  0.45593999997E+02  0.45594000000E+02  0.51100000000E-03 0. -1.
         11   -1    0    0    0    0 -0.00000000000E+00 -0.00000000000E+00 -0.45593999997E+02  0.45594000000E+02  0.51100000000E-03 0.  1.
    9900012    2    1    2    0    0 -0.11235279547E+02  0.30724025974E+02  0.28520626038E+02  0.47787269728E+02  0.19999993999E+02 0.  0.
        -12    1    1    2    0    0  0.11235279547E+02 -0.30724025974E+02 -0.28520626038E+02  0.43400730272E+02  0.00000000000E+00 0.  1.
         11    1    3    3    0    0 -0.12600949751E+02  0.12141303980E+02  0.11663697002E+02  0.21029432351E+02  0.51100000000E-03 0. -1.
        -11    1    3    3    0    0 -0.34314308495E+01  0.96948779815E+01  0.59012512749E+01  0.11857071461E+02  0.51100000000E-03 0.  1.
        -12    1    3    3    0    0  0.47971010543E+01  0.88878440127E+01  0.10955677761E+02  0.14900765917E+02  0.00000000000E+00 0.  1.
</event>
<event>
 7    1  0.2505412E-009  0.4778727E+02  0.7816164E-02  0.1312668E+00
        -11   -1    0    0    0    0  0.00000000000E+00  0.00000000000E+00  0.45593999997E+02  0.45594000000E+02  0.51100000000E-03 0.  1.
         11   -1    0    0    0    0 -0.00000000000E+00 -0.00000000000E+00 -0.45593999997E+02  0.45594000000E+02  0.51100000000E-03 0. -1.
    9900012    2    1    2    0    0  0.20550532946E+01 -0.14754736626E+02 -0.40763927651E+02  0.47787270807E+02  0.19999998919E+02 0.  0.
        -12    1    1    2    0    0 -0.20550532946E+01  0.14754736626E+02  0.40763927651E+02  0.43400729193E+02  0.00000000000E+00 0.  1.
         11    1    3    3    0    0 -0.40703860830E+01  0.28243300006E+01 -0.13505074135E+02  0.14385128101E+02  0.51100000000E-03 0.  1.
        -11    1    3    3    0    0  0.37292678001E+01 -0.52618512765E+01 -0.65779610099E+01  0.92121706721E+01  0.51100000000E-03 0. -1.
         12    1    3    3    0    0  0.23961715774E+01 -0.12317215350E+02 -0.20680892506E+02  0.24189972035E+02  0.00000000000E+00 0. -1.
</event>
<event>
 7    1  0.2505412E-009  0.4778727E+02  0.7816164E-02  0.1312668E+00
        -11   -1    0    0    0    0  0.00000000000E+00  0.00000000000E+00  0.45593999997E+02  0.45594000000E+02  0.51100000000E-03 0.  1.
         11   -1    0    0    0    0 -0.00000000000E+00 -0.00000000000E+00 -0.45593999997E+02  0.45594000000E+02  0.51100000000E-03 0. -1.
    9900012    2    1    2    0    0 -0.34635039270E+02  0.96448837723E+01 -0.24310766784E+02  0.47787272934E+02  0.20000008617E+02 0.  0.
        -12    1    1    2    0    0  0.34635039270E+02 -0.96448837723E+01  0.24310766784E+02  0.43400727066E+02  0.00000000000E+00 0.  1.
         11    1    3    3    0    0 -0.30817390655E+02  0.50389475952E+01 -0.15221278500E+02  0.34738881374E+02  0.51100000000E-03 0. -1.
        -11    1    3    3    0    0  0.43428712744E+00 -0.70786304452E+00  0.72689377074E+00  0.11036531221E+01  0.51100000000E-03 0.  1.
         12    1    3    3    0    0 -0.42519357419E+01  0.53137992216E+01 -0.98163820549E+01  0.11944738439E+02  0.00000000000E+00 0. -1.
</event>
<event>
 7    1  0.2505412E-009  0.4778727E+02  0.7816164E-02  0.1312668E+00
        -11   -1    0    0    0    0  0.00000000000E+00  0.00000000000E+00  0.45593999997E+02  0.45594000000E+02  0.51100000000E-03 0.  1.
         11   -1    0    0    0    0 -0.00000000000E+00 -0.00000000000E+00 -0.45593999997E+02  0.45594000000E+02  0.51100000000E-03 0. -1.
    9900012    2    1    2    0    0  0.38849014677E+02 -0.15318545441E+02  0.11820312586E+02  0.47787267685E+02  0.19999984683E+02 0.  0.
        -12    1    1    2    0    0 -0.38849014677E+02  0.15318545441E+02 -0.11820312586E+02  0.43400732315E+02  0.00000000000E+00 0.  1.
         11    1    3    3    0    0  0.28586533139E+02 -0.18043398534E+02  0.10450560288E+02  0.35383164333E+02  0.51100000000E-03 0. -1.
        -11    1    3    3    0    0 -0.81270104664E+00  0.28362762163E+00 -0.35791992772E+00  0.93222022866E+00  0.51100000000E-03 0.  1.
        -12    1    3    3    0    0  0.11075182585E+02  0.24412254715E+01  0.17276722261E+01  0.11471883124E+02  0.00000000000E+00 0.  1.
</event>
<event>
 7    1  0.2505412E-009  0.4778726E+02  0.7816164E-02  0.1312668E+00
        -11   -1    0    0    0    0  0.00000000000E+00  0.00000000000E+00  0.45593999997E+02  0.45594000000E+02  0.51100000000E-03 0.  1.
         11   -1    0    0    0    0 -0.00000000000E+00 -0.00000000000E+00 -0.45593999997E+02  0.45594000000E+02  0.51100000000E-03 0. -1.
    9900012    2    1    2    0    0  0.28622758299E+02 -0.18693454650E+02 -0.26737924411E+02  0.47787261052E+02  0.19999954443E+02 0.  0.
        -12    1    1    2    0    0 -0.28622758299E+02  0.18693454650E+02  0.26737924411E+02  0.43400738948E+02  0.00000000000E+00 0.  1.
         11    1    3    3    0    0  0.33293873019E+01 -0.68274545732E+01 -0.58568582635E+01  0.95917539968E+01  0.51100000000E-03 0. -1.
        -11    1    3    3    0    0  0.83411845986E+01  0.49869921288E+00  0.32622474451E+00  0.83624448732E+01  0.51100000000E-03 0.  1.
        -12    1    3    3    0    0  0.16952186399E+02 -0.12364699290E+02 -0.21207290892E+02  0.29833062182E+02  0.00000000000E+00 0.  1.
</event>
<event>
 7    1  0.2505412E-009  0.4778727E+02  0.7816164E-02  0.1312668E+00
        -11   -1    0    0    0    0  0.00000000000E+00  0.00000000000E+00  0.45593999997E+02  0.45594000000E+02  0.51100000000E-03 0.  1.
         11   -1    0    0    0    0 -0.00000000000E+00 -0.00000000000E+00 -0.45593999997E+02  0.45594000000E+02  0.51100000000E-03 0. -1.
    9900012    2    1    2    0    0  0.18876338704E+02 -0.39080572295E+02 -0.12663843824E+00  0.47787270386E+02  0.19999996996E+02 0.  0.
        -12    1    1    2    0    0 -0.18876338704E+02  0.39080572295E+02  0.12663843824E+00  0.43400729614E+02  0.00000000000E+00 0.  1.
         11    1    3    3    0    0  0.69525066707E+01 -0.10349076275E+02 -0.85211439717E+00  0.12496672675E+02  0.51100000000E-03 0. -1.
        -11    1    3    3    0    0 -0.36370106047E+01 -0.74329818812E+01 -0.26709095994E+01  0.86954484723E+01  0.51100000000E-03 0.  1.
         12    1    3    3    0    0  0.15560842638E+02 -0.21298514139E+02  0.33963855583E+01  0.26595149238E+02  0.00000000000E+00 0. -1.
</event>
<event>
 7    1  0.2505412E-009  0.4778727E+02  0.7816164E-02  0.1312668E+00
        -11   -1    0    0    0    0  0.00000000000E+00  0.00000000000E+00  0.45593999997E+02  0.45594000000E+02  0.51100000000E-03 0.  1.
         11   -1    0    0    0    0 -0.00000000000E+00 -0.00000000000E+00 -0.45593999997E+02  0.45594000000E+02  0.51100000000E-03 0. -1.
    9900012    2    1    2    0    0 -0.77891559316E+01  0.25880626828E+02 -0.33957992269E+02  0.47787273808E+02  0.20000012598E+02 0.  0.
        -12    1    1    2    0    0  0.77891559316E+01 -0.25880626828E+02  0.33957992269E+02  0.43400726192E+02  0.00000000000E+00 0.  1.
         11    1    3    3    0    0 -0.77237167209E+01  0.14779893042E+02 -0.14572512600E+02  0.22146312607E+02  0.51100000000E-03 0. -1.
        -11    1    3    3    0    0 -0.17222045681E+01  0.38585294572E+01  0.64750593560E+00  0.42747517290E+01  0.51100000000E-03 0.  1.
         12    1    3    3    0    0  0.16567653574E+01  0.72422043278E+01 -0.20032985604E+02  0.21366209472E+02  0.00000000000E+00 0. -1.
</event>
<event>
 7    1  0.2505412E-009  0.4778726E+02  0.7816164E-02  0.1312668E+00
        -11   -1    0    0    0    0  0.00000000000E+00  0.00000000000E+00  0.45593999997E+02  0.45594000000E+02  0.51100000000E-03 0.  1.
         11   -1    0    0    0    0 -0.00000000000E+00 -0.00000000000E+00 -0.45593999997E+02  0.45594000000E+02  0.51100000000E-03 0. -1.
    9900012    2    1    2    0    0 -0.18295772286E+01  0.42384042431E+02 -0.91580619700E+01  0.47787256865E+02  0.19999935352E+02 0.  0.
        -12    1    1    2    0    0  0.18295772286E+01 -0.42384042431E+02  0.91580619700E+01  0.43400743135E+02  0.00000000000E+00 0.  1.
         11    1    3    3    0    0 -0.30315649978E+01  0.24970886046E+02  0.77104198964E+00  0.25166049398E+02  0.51100000000E-03 0. -1.
        -11    1    3    3    0    0  0.15475772092E+01 -0.84946422208E+00  0.12730613891E+00  0.17699694339E+01  0.51100000000E-03 0.  1.
        -12    1    3    3    0    0 -0.34558944001E+00  0.18262620606E+02 -0.10056410099E+02  0.20851238034E+02  0.00000000000E+00 0.  1.
</event>
<event>
 7    1  0.2505412E-009  0.4778727E+02  0.7816164E-02  0.1312668E+00
        -11   -1    0    0    0    0  0.00000000000E+00  0.00000000000E+00  0.45593999997E+02  0.45594000000E+02  0.51100000000E-03 0.  1.
         11   -1    0    0    0    0 -0.00000000000E+00 -0.00000000000E+00 -0.45593999997E+02  0.45594000000E+02  0.51100000000E-03 0. -1.
    9900012    2    1    2    0    0  0.15201808319E+02  0.31195545023E+02 -0.26064658933E+02  0.47787269007E+02  0.19999990712E+02 0.  0.
        -12    1    1    2    0    0 -0.15201808319E+02 -0.31195545023E+02  0.26064658933E+02  0.43400730993E+02  0.00000000000E+00 0.  1.
         11    1    3    3    0    0  0.91416252621E+01  0.13511919044E+02 -0.13842838207E+02  0.21395453689E+02  0.51100000000E-03 0. -1.
        -11    1    3    3    0    0  0.10682223621E+02  0.12306502089E+02 -0.82713984611E+01  0.18275008287E+02  0.51100000000E-03 0.  1.
         12    1    3    3    0    0 -0.46220405640E+01  0.53771238902E+01 -0.39504222642E+01  0.81168070305E+01  0.00000000000E+00 0. -1.
</event>
<event>
 7    1  0.2505412E-009  0.4778727E+02  0.7816164E-02  0.1312668E+00
        -11   -1    0    0    0    0  0.00000000000E+00  0.00000000000E+00  0.45593999997E+02  0.45594000000E+02  0.51100000000E-03 0.  1.
         11   -1    0    0    0    0 -0.00000000000E+00 -0.00000000000E+00 -0.45593999997E+02  0.45594000000E+02  0.51100000000E-03 0. -1.
    9900012    2    1    2    0    0 -0.19646137056E+02 -0.19057440717E+02 -0.33681842676E+02  0.47787271043E+02  0.19999999995E+02 0.  0.
        -12    1    1    2    0    0  0.19646137056E+02  0.19057440717E+02  0.33681842676E+02  0.43400728957E+02  0.00000000000E+00 0.  1.
         11    1    3    3    0    0 -0.39358436200E+00  0.24071723464E+01 -0.29075753898E+01  0.37951788184E+01  0.51100000000E-03 0. -1.
        -11    1    3    3    0    0 -0.60788281661E+01 -0.16042056299E+02 -0.15773810633E+02  0.23304781147E+02  0.51100000000E-03 0.  1.
         12    1    3    3    0    0 -0.13173724528E+02 -0.54225567639E+01 -0.15000456654E+02  0.20687311078E+02  0.00000000000E+00 0. -1.
</event>
<event>
 7    1  0.2505412E-009  0.4778726E+02  0.7816164E-02  0.1312668E+00
        -11   -1    0    0    0    0  0.00000000000E+00  0.00000000000E+00  0.45593999997E+02  0.45594000000E+02  0.51100000000E-03 0.  1.
         11   -1    0    0    0    0 -0.00000000000E+00 -0.00000000000E+00 -0.45593999997E+02  0.45594000000E+02  0.51100000000E-03 0. -1.
    9900012    2    1    2    0    0  0.31184735225E+02  0.14919809262E+02 -0.26239958883E+02  0.47787264273E+02  0.19999969126E+02 0.  0.
        -12    1    1    2    0    0 -0.31184735225E+02 -0.14919809262E+02  0.26239958883E+02  0.43400735727E+02  0.00000000000E+00 0.  1.
         11    1    3    3    0    0  0.63293674283E+01  0.43639569695E+01 -0.13340351516E+02  0.15397077363E+02  0.51100000000E-03 0.  1.
        -11    1    3    3    0    0  0.17822563702E+00 -0.13049271432E+01 -0.29991849432E+01  0.32756235759E+01  0.51100000000E-03 0. -1.
        -12    1    3    3    0    0  0.24677142160E+02  0.11860779436E+02 -0.99004224233E+01  0.29114563335E+02  0.00000000000E+00 0.  1.
</event>
<event>
 7    1  0.2505412E-009  0.4778727E+02  0.7816164E-02  0.1312668E+00
        -11   -1    0    0    0    0  0.00000000000E+00  0.00000000000E+00  0.45593999997E+02  0.45594000000E+02  0.51100000000E-03 0. -1.
         11   -1    0    0    0    0 -0.00000000000E+00 -0.00000000000E+00 -0.45593999997E+02  0.45594000000E+02  0.51100000000E-03 0.  1.
    9900012    2    1    2    0    0  0.39826320741E+02 -0.62585846682E+01  0.16072256986E+02  0.47787272466E+02  0.20000006482E+02 0.  0.
        -12    1    1    2    0    0 -0.39826320741E+02  0.62585846682E+01 -0.16072256986E+02  0.43400727534E+02  0.00000000000E+00 0.  1.
         11    1    3    3    0    0  0.19776939613E+02  0.31437476998E+01  0.16354048187E+01  0.20091914773E+02  0.51100000000E-03 0. -1.
        -11    1    3    3    0    0  0.17604149706E+02 -0.46218318627E+01  0.10267253821E+02  0.20896983464E+02  0.51100000000E-03 0.  1.
        -12    1    3    3    0    0  0.24452314230E+01 -0.47805005053E+01  0.41695983464E+01  0.67983742294E+01  0.00000000000E+00 0.  1.
</event>
<event>
 7    1  0.2505412E-009  0.4778727E+02  0.7816164E-02  0.1312668E+00
        -11   -1    0    0    0    0  0.00000000000E+00  0.00000000000E+00  0.45593999997E+02  0.45594000000E+02  0.51100000000E-03 0.  1.
         11   -1    0    0    0    0 -0.00000000000E+00 -0.00000000000E+00 -0.45593999997E+02  0.45594000000E+02  0.51100000000E-03 0. -1.
    9900012    2    1    2    0    0 -0.29411717523E+02 -0.27412734971E+02 -0.16343679875E+02  0.47787273761E+02  0.20000012384E+02 0.  0.
        -12    1    1    2    0    0  0.29411717523E+02  0.27412734971E+02  0.16343679875E+02  0.43400726239E+02  0.00000000000E+00 0.  1.
         11    1    3    3    0    0 -0.84562123488E+01 -0.16515532106E-01 -0.51097763613E+01  0.98801626897E+01  0.51100000000E-03 0. -1.
        -11    1    3    3    0    0 -0.18446425664E+02 -0.17739447677E+02 -0.11184937946E+02  0.27929580391E+02  0.51100000000E-03 0.  1.
         12    1    3    3    0    0 -0.25090795095E+01 -0.96567717620E+01 -0.48965567745E-01  0.99775306803E+01  0.00000000000E+00 0. -1.
</event>
<event>
 7    1  0.2505412E-009  0.4778730E+02  0.7816164E-02  0.1312668E+00
        -11   -1    0    0    0    0  0.00000000000E+00  0.00000000000E+00  0.45593999997E+02  0.45594000000E+02  0.51100000000E-03 0. -1.
         11   -1    0    0    0    0 -0.00000000000E+00 -0.00000000000E+00 -0.45593999997E+02  0.45594000000E+02  0.51100000000E-03 0.  1.
    9900012    2    1    2    0    0 -0.30662761771E+02 -0.12166583524E+02  0.28202663900E+02  0.47787297642E+02  0.20000121271E+02 0.  0.
        -12    1    1    2    0    0  0.30662761771E+02  0.12166583524E+02 -0.28202663900E+02  0.43400702358E+02  0.00000000000E+00 0.  1.
         11    1    3    3    0    0 -0.48027080784E+01 -0.10439143638E+01  0.14560193092E+02  0.15367335007E+02  0.51100000000E-03 0. -1.
        -11    1    3    3    0    0 -0.12271859711E+02 -0.18064895494E+01  0.28584044806E+01  0.12729195642E+02  0.51100000000E-03 0.  1.
        -12    1    3    3    0    0 -0.13588193981E+02 -0.93161796105E+01  0.10784066327E+02  0.19690766993E+02  0.00000000000E+00 0.  1.
</event>
<event>
 7    1  0.2701137E-009  0.4778727E+02  0.7816164E-02  0.1312668E+00
        -11   -1    0    0    0    0  0.00000000000E+00  0.00000000000E+00  0.45593999997E+02  0.45594000000E+02  0.51100000000E-03 0. -1.
         11   -1    0    0    0    0 -0.00000000000E+00 -0.00000000000E+00 -0.45593999997E+02  0.45594000000E+02  0.51100000000E-03 0.  1.
    9900012    2    1    2    0    0 -0.38480490169E+02  0.14620728068E+02  0.13751699147E+02  0.47787273712E+02  0.20000012163E+02 0.  0.
        -12    1    1    2    0    0  0.38480490169E+02 -0.14620728068E+02 -0.13751699147E+02  0.43400726288E+02  0.00000000000E+00 0.  1.
         11    1    3    3    0    0 -0.14037914909E+02  0.34285971073E+01  0.32236624344E+01  0.14805753371E+02  0.51100000000E-03 0. -1.
        -11    1    3    3    0    0 -0.50053804818E+01  0.10230919769E+01  0.97778775943E+01  0.11032109566E+02  0.51100000000E-03 0.  1.
        -12    1    3    3    0    0 -0.19437194778E+02  0.10169038984E+02  0.75015911794E+00  0.21949410776E+02  0.00000000000E+00 0.  1.
</event>
<event>
 7    1  0.2505412E-009  0.4778727E+02  0.7816164E-02  0.1312668E+00
        -11   -1    0    0    0    0  0.00000000000E+00  0.00000000000E+00  0.45593999997E+02  0.45594000000E+02  0.51100000000E-03 0.  1.
         11   -1    0    0    0    0 -0.00000000000E+00 -0.00000000000E+00 -0.45593999997E+02  0.45594000000E+02  0.51100000000E-03 0. -1.
    9900012    2    1    2    0    0  0.68132443044E+01 -0.11991071727E+02 -0.41151151464E+02  0.47787269984E+02  0.19999995166E+02 0.  0.
        -12    1    1    2    0    0 -0.68132443044E+01  0.11991071727E+02  0.41151151464E+02  0.43400730016E+02  0.00000000000E+00 0.  1.
         11    1    3    3    0    0  0.15350164772E+01 -0.98957554918E+01 -0.29017302858E+02  0.30696679263E+02  0.51100000000E-03 0. -1.
        -11    1    3    3    0    0 -0.76642697118E+00  0.28597600888E+01 -0.73570483183E+01  0.79304349367E+01  0.51100000000E-03 0.  1.
         12    1    3    3    0    0  0.60446547984E+01 -0.49550763244E+01 -0.47768002872E+01  0.91601557845E+01  0.00000000000E+00 0. -1.
</event>
<event>
 7    1  0.2505412E-009  0.4778727E+02  0.7816164E-02  0.1312668E+00
        -11   -1    0    0    0    0  0.00000000000E+00  0.00000000000E+00  0.45593999997E+02  0.45594000000E+02  0.51100000000E-03 0.  1.
         11   -1    0    0    0    0 -0.00000000000E+00 -0.00000000000E+00 -0.45593999997E+02  0.45594000000E+02  0.51100000000E-03 0. -1.
    9900012    2    1    2    0    0 -0.70848147365E+01 -0.24171870348E+02 -0.35343311105E+02  0.47787267796E+02  0.19999985190E+02 0.  0.
        -12    1    1    2    0    0  0.70848147365E+01  0.24171870348E+02  0.35343311105E+02  0.43400732204E+02  0.00000000000E+00 0.  1.
         11    1    3    3    0    0  0.32688825244E+01 -0.11019506878E+02 -0.17429429053E+02  0.20878221241E+02  0.51100000000E-03 0. -1.
        -11    1    3    3    0    0 -0.65181777786E+01 -0.67394726529E+01 -0.16955930254E+02  0.19375518167E+02  0.51100000000E-03 0.  1.
        -12    1    3    3    0    0 -0.38355194824E+01 -0.64128908170E+01 -0.95795179719E+00  0.75335283883E+01  0.00000000000E+00 0.  1.
</event>
<event>
 7    1  0.2505412E-009  0.4778727E+02  0.7816164E-02  0.1312668E+00
        -11   -1    0    0    0    0  0.00000000000E+00  0.00000000000E+00  0.45593999997E+02  0.45594000000E+02  0.51100000000E-03 0.  1.
         11   -1    0    0    0    0 -0.00000000000E+00 -0.00000000000E+00 -0.45593999997E+02  0.45594000000E+02  0.51100000000E-03 0. -1.
    9900012    2    1    2    0    0  0.48404312674E+01  0.29848818004E+02 -0.31132644516E+02  0.47787271139E+02  0.20000000431E+02 0.  0.
        -12    1    1    2    0    0 -0.48404312674E+01 -0.29848818004E+02  0.31132644516E+02  0.43400728861E+02  0.00000000000E+00 0.  1.
         11    1    3    3    0    0  0.18294546768E+01  0.27494359473E+02 -0.15578761460E+02  0.31654139005E+02  0.51100000000E-03 0.  1.
        -11    1    3    3    0    0  0.72690909372E+00  0.16180174383E-01 -0.11314946779E+01  0.13449680649E+01  0.51100000000E-03 0. -1.
        -12    1    3    3    0    0  0.22840674968E+01  0.23382783567E+01 -0.14422388378E+02  0.14788164069E+02  0.00000000000E+00 0.  1.
</event>
<event>
 7    1  0.2505412E-009  0.4778727E+02  0.7816164E-02  0.1312668E+00
        -11   -1    0    0    0    0  0.00000000000E+00  0.00000000000E+00  0.45593999997E+02  0.45594000000E+02  0.51100000000E-03 0.  1.
         11   -1    0    0    0    0 -0.00000000000E+00 -0.00000000000E+00 -0.45593999997E+02  0.45594000000E+02  0.51100000000E-03 0. -1.
    9900012    2    1    2    0    0  0.20227310062E+02 -0.18405111395E+02 -0.33700607339E+02  0.47787272669E+02  0.20000007409E+02 0.  0.
        -12    1    1    2    0    0 -0.20227310062E+02  0.18405111395E+02  0.33700607339E+02  0.43400727331E+02  0.00000000000E+00 0.  1.
         11    1    3    3    0    0  0.76843831078E+00 -0.52961876773E+01 -0.10416720161E+02  0.11711027304E+02  0.51100000000E-03 0. -1.
        -11    1    3    3    0    0  0.10582062693E+02 -0.29757213746E+01 -0.24433394044E+01  0.11260767125E+02  0.51100000000E-03 0.  1.
         12    1    3    3    0    0  0.88768090587E+01 -0.10133202343E+02 -0.20840547774E+02  0.24815478240E+02  0.00000000000E+00 0. -1.
</event>
<event>
 7    1  0.2505412E-009  0.4778726E+02  0.7816164E-02  0.1312668E+00
        -11   -1    0    0    0    0  0.00000000000E+00  0.00000000000E+00  0.45593999997E+02  0.45594000000E+02  0.51100000000E-03 0.  1.
         11   -1    0    0    0    0 -0.00000000000E+00 -0.00000000000E+00 -0.45593999997E+02  0.45594000000E+02  0.51100000000E-03 0. -1.
    9900012    2    1    2    0    0 -0.13184640811E+02  0.24041766972E+02 -0.33641975962E+02  0.47787264302E+02  0.19999969261E+02 0.  0.
        -12    1    1    2    0    0  0.13184640811E+02 -0.24041766972E+02  0.33641975962E+02  0.43400735698E+02  0.00000000000E+00 0.  1.
         11    1    3    3    0    0 -0.17218232365E+02  0.15556902259E+02 -0.24879296295E+02  0.34021524335E+02  0.51100000000E-03 0. -1.
        -11    1    3    3    0    0  0.66905841976E+00  0.66510134968E+01 -0.46392134849E+01  0.81367021405E+01  0.51100000000E-03 0.  1.
         12    1    3    3    0    0  0.33645331350E+01  0.18338512163E+01 -0.41234661823E+01  0.56290378269E+01  0.00000000000E+00 0. -1.
</event>
<event>
 7    1  0.2505412E-009  0.4778726E+02  0.7816164E-02  0.1312668E+00
        -11   -1    0    0    0    0  0.00000000000E+00  0.00000000000E+00  0.45593999997E+02  0.45594000000E+02  0.51100000000E-03 0.  1.
         11   -1    0    0    0    0 -0.00000000000E+00 -0.00000000000E+00 -0.45593999997E+02  0.45594000000E+02  0.51100000000E-03 0. -1.
    9900012    2    1    2    0    0  0.99419735860E+01  0.23814181831E+02 -0.34895067927E+02  0.47787264284E+02  0.19999969176E+02 0.  0.
        -12    1    1    2    0    0 -0.99419735860E+01 -0.23814181831E+02  0.34895067927E+02  0.43400735716E+02  0.00000000000E+00 0.  1.
         11    1    3    3    0    0  0.80173245509E+01  0.63352770105E+01 -0.95997972957E+01  0.14020318689E+02  0.51100000000E-03 0. -1.
        -11    1    3    3    0    0  0.26973901202E+01  0.13929438346E+01  0.76626835365E+00  0.31310339247E+01  0.51100000000E-03 0.  1.
        -12    1    3    3    0    0 -0.77274108511E+00  0.16085960986E+02 -0.26061538985E+02  0.30635911671E+02  0.00000000000E+00 0.  1.
</event>
<event>
 7    1  0.2505412E-009  0.4778727E+02  0.7816164E-02  0.1312668E+00
        -11   -1    0    0    0    0  0.00000000000E+00  0.00000000000E+00  0.45593999997E+02  0.45594000000E+02  0.51100000000E-03 0.  1.
         11   -1    0    0    0    0 -0.00000000000E+00 -0.00000000000E+00 -0.45593999997E+02  0.45594000000E+02  0.51100000000E-03 0. -1.
    9900012    2    1    2    0    0  0.39914256555E+02  0.12668191742E+02 -0.11401436502E+02  0.47787265990E+02  0.19999976953E+02 0.  0.
        -12    1    1    2    0    0 -0.39914256555E+02 -0.12668191742E+02  0.11401436502E+02  0.43400734010E+02  0.00000000000E+00 0.  1.
         11    1    3    3    0    0  0.10953461023E+02 -0.14846127189E+01 -0.25079304253E+01  0.11334553303E+02  0.51100000000E-03 0.  1.
        -11    1    3    3    0    0  0.66976570075E+01 -0.24506087569E+01 -0.42278194429E+01  0.82908714966E+01  0.51100000000E-03 0. -1.
        -12    1    3    3    0    0  0.22263138524E+02  0.16603413218E+02 -0.46656866343E+01  0.28161841190E+02  0.00000000000E+00 0.  1.
</event>
<event>
 7    1  0.2505412E-009  0.4778727E+02  0.7816164E-02  0.1312668E+00
        -11   -1    0    0    0    0  0.00000000000E+00  0.00000000000E+00  0.45593999997E+02  0.45594000000E+02  0.51100000000E-03 0.  1.
         11   -1    0    0    0    0 -0.00000000000E+00 -0.00000000000E+00 -0.45593999997E+02  0.45594000000E+02  0.51100000000E-03 0. -1.
    9900012    2    1    2    0    0 -0.38810010547E+02  0.52064106156E+01 -0.18716291383E+02  0.47787271973E+02  0.20000004234E+02 0.  0.
        -12    1    1    2    0    0  0.38810010547E+02 -0.52064106156E+01  0.18716291383E+02  0.43400728027E+02  0.00000000000E+00 0.  1.
         11    1    3    3    0    0 -0.84833083872E+01  0.43080875855E+01 -0.11014317974E+02  0.14554770370E+02  0.51100000000E-03 0. -1.
        -11    1    3    3    0    0 -0.10210616719E+02 -0.49416656677E+01 -0.19449218908E+01  0.11509103995E+02  0.51100000000E-03 0.  1.
        -12    1    3    3    0    0 -0.20116085441E+02  0.58399886979E+01 -0.57570515184E+01  0.21723397608E+02  0.00000000000E+00 0.  1.
</event>
<event>
 7    1  0.2505412E-009  0.4778727E+02  0.7816164E-02  0.1312668E+00
        -11   -1    0    0    0    0  0.00000000000E+00  0.00000000000E+00  0.45593999997E+02  0.45594000000E+02  0.51100000000E-03 0.  1.
         11   -1    0    0    0    0 -0.00000000000E+00 -0.00000000000E+00 -0.45593999997E+02  0.45594000000E+02  0.51100000000E-03 0. -1.
    9900012    2    1    2    0    0 -0.16270362138E+01 -0.24391165063E+02 -0.35861497578E+02  0.47787272028E+02  0.20000004484E+02 0.  0.
        -12    1    1    2    0    0  0.16270362138E+01  0.24391165063E+02  0.35861497578E+02  0.43400727972E+02  0.00000000000E+00 0.  1.
         11    1    3    3    0    0 -0.28968630563E+01 -0.33964034100E+01 -0.30483639369E+01  0.54055429555E+01  0.51100000000E-03 0. -1.
        -11    1    3    3    0    0  0.34543333058E+01 -0.92243763928E+01 -0.30660334736E+01  0.10316108760E+02  0.51100000000E-03 0.  1.
         12    1    3    3    0    0 -0.21845064633E+01 -0.11770385261E+02 -0.29747100167E+02  0.32065620313E+02  0.00000000000E+00 0. -1.
</event>
<event>
 7    1  0.2505412E-009  0.4778727E+02  0.7816164E-02  0.1312668E+00
        -11   -1    0    0    0    0  0.00000000000E+00  0.00000000000E+00  0.45593999997E+02  0.45594000000E+02  0.51100000000E-03 0. -1.
         11   -1    0    0    0    0 -0.00000000000E+00 -0.00000000000E+00 -0.45593999997E+02  0.45594000000E+02  0.51100000000E-03 0.  1.
    9900012    2    1    2    0    0 -0.11784433851E+02 -0.23260253632E+02  0.34694541114E+02  0.47787268862E+02  0.19999990048E+02 0.  0.
        -12    1    1    2    0    0  0.11784433851E+02  0.23260253632E+02 -0.34694541114E+02  0.43400731138E+02  0.00000000000E+00 0.  1.
         11    1    3    3    0    0 -0.10293085668E+01 -0.10032386672E+02  0.65282971041E+01  0.12013614020E+02  0.51100000000E-03 0. -1.
        -11    1    3    3    0    0 -0.78870693373E+00 -0.23231390074E+01 -0.13256318419E+01  0.27886078098E+01  0.51100000000E-03 0.  1.
         12    1    3    3    0    0 -0.99664183504E+01 -0.10904727952E+02  0.29491875852E+02  0.32985047032E+02  0.00000000000E+00 0. -1.
</event>
<event>
 7    1  0.2505412E-009  0.4778727E+02  0.7816164E-02  0.1312668E+00
        -11   -1    0    0    0    0  0.00000000000E+00  0.00000000000E+00  0.45593999997E+02  0.45594000000E+02  0.51100000000E-03 0.  1.
         11   -1    0    0    0    0 -0.00000000000E+00 -0.00000000000E+00 -0.45593999997E+02  0.45594000000E+02  0.51100000000E-03 0. -1.
    9900012    2    1    2    0    0  0.40365692228E+02 -0.10310825495E+02  0.12162286814E+02  0.47787268992E+02  0.19999990644E+02 0.  0.
        -12    1    1    2    0    0 -0.40365692228E+02  0.10310825495E+02 -0.12162286814E+02  0.43400731008E+02  0.00000000000E+00 0.  1.
         11    1    3    3    0    0  0.10341969269E+02 -0.62930375666E+01  0.61239615100E+01  0.13566928724E+02  0.51100000000E-03 0. -1.
        -11    1    3    3    0    0  0.39300687990E+01 -0.20012137564E+01 -0.42259002912E+01  0.61080709554E+01  0.51100000000E-03 0.  1.
         12    1    3    3    0    0  0.26093654160E+02 -0.20165741721E+01  0.10264225596E+02  0.28112269313E+02  0.00000000000E+00 0. -1.
</event>
<event>
 7    1  0.2505412E-009  0.4778728E+02  0.7816164E-02  0.1312668E+00
        -11   -1    0    0    0    0  0.00000000000E+00  0.00000000000E+00  0.45593999997E+02  0.45594000000E+02  0.51100000000E-03 0. -1.
         11   -1    0    0    0    0 -0.00000000000E+00 -0.00000000000E+00 -0.45593999997E+02  0.45594000000E+02  0.51100000000E-03 0.  1.
    9900012    2    1    2    0    0 -0.43262524260E+02  0.32940458464E+01  0.10611544775E+01  0.47787276594E+02  0.20000025300E+02 0.  0.
        -12    1    1    2    0    0  0.43262524260E+02 -0.32940458464E+01 -0.10611544775E+01  0.43400723406E+02  0.00000000000E+00 0.  1.
         11    1    3    3    0    0 -0.13440576572E+02  0.20972628428E+01  0.71348685427E+01  0.15360792928E+02  0.51100000000E-03 0. -1.
        -11    1    3    3    0    0 -0.36907045399E+01 -0.36497835568E+01 -0.18810290022E+01  0.55209139081E+01  0.51100000000E-03 0.  1.
         12    1    3    3    0    0 -0.26131243149E+02  0.48465665604E+01 -0.41926850630E+01  0.26905569757E+02  0.00000000000E+00 0. -1.
</event>
<event>
 7    1  0.2505412E-009  0.4778727E+02  0.7816164E-02  0.1312668E+00
        -11   -1    0    0    0    0  0.00000000000E+00  0.00000000000E+00  0.45593999997E+02  0.45594000000E+02  0.51100000000E-03 0.  1.
         11   -1    0    0    0    0 -0.00000000000E+00 -0.00000000000E+00 -0.45593999997E+02  0.45594000000E+02  0.51100000000E-03 0. -1.
    9900012    2    1    2    0    0 -0.33721803764E+02 -0.35663262373E+01 -0.27087720846E+02  0.47787270138E+02  0.19999995867E+02 0.  0.
        -12    1    1    2    0    0  0.33721803764E+02  0.35663262373E+01  0.27087720846E+02  0.43400729862E+02  0.00000000000E+00 0.  1.
         11    1    3    3    0    0 -0.27593147401E+01 -0.41278831521E+01 -0.20374190543E+01  0.53669650470E+01  0.51100000000E-03 0. -1.
        -11    1    3    3    0    0 -0.15646705103E+02 -0.31910607234E+00 -0.36170428516E+01  0.16062509409E+02  0.51100000000E-03 0.  1.
        -12    1    3    3    0    0 -0.15315783921E+02  0.88066298710E+00 -0.21433258940E+02  0.26357795682E+02  0.00000000000E+00 0.  1.
</event>
<event>
 7    1  0.2505412E-009  0.4778727E+02  0.7816164E-02  0.1312668E+00
        -11   -1    0    0    0    0  0.00000000000E+00  0.00000000000E+00  0.45593999997E+02  0.45594000000E+02  0.51100000000E-03 0.  1.
         11   -1    0    0    0    0 -0.00000000000E+00 -0.00000000000E+00 -0.45593999997E+02  0.45594000000E+02  0.51100000000E-03 0. -1.
    9900012    2    1    2    0    0  0.30377460796E+02 -0.30543125196E+02 -0.52868153840E+01  0.47787273761E+02  0.20000012385E+02 0.  0.
        -12    1    1    2    0    0 -0.30377460796E+02  0.30543125196E+02  0.52868153840E+01  0.43400726239E+02  0.00000000000E+00 0.  1.
         11    1    3    3    0    0  0.17061663049E+02 -0.15785118356E+02  0.32072696023E+01  0.23463948646E+02  0.51100000000E-03 0. -1.
        -11    1    3    3    0    0 -0.83331451004E+00 -0.56544071480E+01 -0.62588824256E+00  0.57496495216E+01  0.51100000000E-03 0.  1.
         12    1    3    3    0    0  0.14149112257E+02 -0.91035996925E+01 -0.78681967437E+01  0.18573675593E+02  0.00000000000E+00 0. -1.
</event>
<event>
 7    1  0.2505412E-009  0.4778729E+02  0.7816164E-02  0.1312668E+00
        -11   -1    0    0    0    0  0.00000000000E+00  0.00000000000E+00  0.45593999997E+02  0.45594000000E+02  0.51100000000E-03 0. -1.
         11   -1    0    0    0    0 -0.00000000000E+00 -0.00000000000E+00 -0.45593999997E+02  0.45594000000E+02  0.51100000000E-03 0.  1.
    9900012    2    1    2    0    0  0.14872079275E+02 -0.37938957648E+02  0.14935815751E+02  0.47787287546E+02  0.20000075236E+02 0.  0.
        -12    1    1    2    0    0 -0.14872079275E+02  0.37938957648E+02 -0.14935815751E+02  0.43400712454E+02  0.00000000000E+00 0.  1.
         11    1    3    3    0    0  0.31256308632E+01  0.51632288095E+00  0.33579015010E+01  0.46164553894E+01  0.51100000000E-03 0.  1.
        -11    1    3    3    0    0  0.18709283375E+01 -0.12682648591E+02 -0.96160540185E+00  0.12855918222E+02  0.51100000000E-03 0. -1.
         12    1    3    3    0    0  0.98755200746E+01 -0.25772631938E+02  0.12539519652E+02  0.30314913935E+02  0.00000000000E+00 0. -1.
</event>
<event>
 7    1  0.2505412E-009  0.4778727E+02  0.7816164E-02  0.1312668E+00
        -11   -1    0    0    0    0  0.00000000000E+00  0.00000000000E+00  0.45593999997E+02  0.45594000000E+02  0.51100000000E-03 0.  1.
         11   -1    0    0    0    0 -0.00000000000E+00 -0.00000000000E+00 -0.45593999997E+02  0.45594000000E+02  0.51100000000E-03 0. -1.
    9900012    2    1    2    0    0  0.96313875264E+01 -0.15004565437E+02 -0.39569219037E+02  0.47787266080E+02  0.19999977363E+02 0.  0.
        -12    1    1    2    0    0 -0.96313875264E+01  0.15004565437E+02  0.39569219037E+02  0.43400733920E+02  0.00000000000E+00 0.  1.
         11    1    3    3    0    0  0.21859396234E+01 -0.48760380073E+01 -0.45186323710E+01  0.69980081060E+01  0.51100000000E-03 0. -1.
        -11    1    3    3    0    0  0.23337553493E+01 -0.11524130880E+01 -0.28366634107E+02  0.28485792964E+02  0.51100000000E-03 0.  1.
        -12    1    3    3    0    0  0.51116925538E+01 -0.89761143414E+01 -0.66839525587E+01  0.12303465010E+02  0.00000000000E+00 0.  1.
</event>
<event>
 7    1  0.2505412E-009  0.4778727E+02  0.7816164E-02  0.1312668E+00
        -11   -1    0    0    0    0  0.00000000000E+00  0.00000000000E+00  0.45593999997E+02  0.45594000000E+02  0.51100000000E-03 0. -1.
         11   -1    0    0    0    0 -0.00000000000E+00 -0.00000000000E+00 -0.45593999997E+02  0.45594000000E+02  0.51100000000E-03 0.  1.
    9900012    2    1    2    0    0 -0.17760867302E+02  0.18817499964E+02  0.34843599359E+02  0.47787272719E+02  0.20000007634E+02 0.  0.
        -12    1    1    2    0    0  0.17760867302E+02 -0.18817499964E+02 -0.34843599359E+02  0.43400727281E+02  0.00000000000E+00 0.  1.
         11    1    3    3    0    0 -0.41242259295E+01 -0.19633403270E+01  0.88144330156E+01  0.99276469722E+01  0.51100000000E-03 0. -1.
        -11    1    3    3    0    0 -0.56564023688E+01  0.24745010523E+01  0.11868750779E+02  0.13378538355E+02  0.51100000000E-03 0.  1.
         12    1    3    3    0    0 -0.79802390039E+01  0.18306339239E+02  0.14160415565E+02  0.24481087391E+02  0.00000000000E+00 0. -1.
</event>
<event>
 7    1  0.2505412E-009  0.4778727E+02  0.7816164E-02  0.1312668E+00
        -11   -1    0    0    0    0  0.00000000000E+00  0.00000000000E+00  0.45593999997E+02  0.45594000000E+02  0.51100000000E-03 0.  1.
         11   -1    0    0    0    0 -0.00000000000E+00 -0.00000000000E+00 -0.45593999997E+02  0.45594000000E+02  0.51100000000E-03 0. -1.
    9900012    2    1    2    0    0  0.37792201543E+02 -0.18961235091E+02 -0.97900365307E+01  0.47787265572E+02  0.19999975049E+02 0.  0.
        -12    1    1    2    0    0 -0.37792201543E+02  0.18961235091E+02  0.97900365307E+01  0.43400734428E+02  0.00000000000E+00 0.  1.
         11    1    3    3    0    0  0.96361255794E+01 -0.50212388527E+01 -0.44518663239E+01  0.11742523997E+02  0.51100000000E-03 0. -1.
        -11    1    3    3    0    0  0.73782450159E+01 -0.12117826548E+02 -0.54189450801E+01  0.15187007138E+02  0.51100000000E-03 0.  1.
         12    1    3    3    0    0  0.20777830947E+02 -0.18221696903E+01  0.80774873288E-01  0.20857734437E+02  0.00000000000E+00 0. -1.
</event>
<event>
 7    1  0.2505412E-009  0.4778727E+02  0.7816164E-02  0.1312668E+00
        -11   -1    0    0    0    0  0.00000000000E+00  0.00000000000E+00  0.45593999997E+02  0.45594000000E+02  0.51100000000E-03 0. -1.
         11   -1    0    0    0    0 -0.00000000000E+00 -0.00000000000E+00 -0.45593999997E+02  0.45594000000E+02  0.51100000000E-03 0.  1.
    9900012    2    1    2    0    0  0.40475887400E+02  0.14187670530E+02 -0.66359564325E+01  0.47787269895E+02  0.19999994757E+02 0.  0.
        -12    1    1    2    0    0 -0.40475887400E+02 -0.14187670530E+02  0.66359564325E+01  0.43400730105E+02  0.00000000000E+00 0.  1.
         11    1    3    3    0    0  0.38326648731E+02  0.10723902381E+02 -0.47889368343E+01  0.40085758087E+02  0.51100000000E-03 0. -1.
        -11    1    3    3    0    0  0.35260383989E+01 -0.13505392196E+00 -0.27281485503E+00  0.35391544977E+01  0.51100000000E-03 0.  1.
         12    1    3    3    0    0 -0.13767997292E+01  0.35988220716E+01 -0.15742047432E+01  0.41623573093E+01  0.00000000000E+00 0. -1.
</event>
<event>
 7    1  0.2505412E-009  0.4778727E+02  0.7816164E-02  0.1312668E+00
        -11   -1    0    0    0    0  0.00000000000E+00  0.00000000000E+00  0.45593999997E+02  0.45594000000E+02  0.51100000000E-03 0.  1.
         11   -1    0    0    0    0 -0.00000000000E+00 -0.00000000000E+00 -0.45593999997E+02  0.45594000000E+02  0.51100000000E-03 0. -1.
    9900012    2    1    2    0    0  0.19524973783E+02  0.16098162039E+02 -0.35259721553E+02  0.47787269750E+02  0.19999994097E+02 0.  0.
        -12    1    1    2    0    0 -0.19524973783E+02 -0.16098162039E+02  0.35259721553E+02  0.43400730250E+02  0.00000000000E+00 0.  1.
         11    1    3    3    0    0  0.14955156003E+02  0.58677841706E+01 -0.14731379605E+02  0.21796814618E+02  0.51100000000E-03 0. -1.
        -11    1    3    3    0    0  0.24719090894E-03  0.65976017614E+01 -0.25249130628E+01  0.70642434343E+01  0.51100000000E-03 0.  1.
         12    1    3    3    0    0  0.45695705896E+01  0.36327761073E+01 -0.18003428885E+02  0.18926211698E+02  0.00000000000E+00 0. -1.
</event>
<event>
 7    1  0.2505412E-009  0.4778728E+02  0.7816164E-02  0.1312668E+00
        -11   -1    0    0    0    0  0.00000000000E+00  0.00000000000E+00  0.45593999997E+02  0.45594000000E+02  0.51100000000E-03 0.  1.
         11   -1    0    0    0    0 -0.00000000000E+00 -0.00000000000E+00 -0.45593999997E+02  0.45594000000E+02  0.51100000000E-03 0. -1.
    9900012    2    1    2    0    0 -0.52184994490E+01  0.13907455721E+02 -0.40779561499E+02  0.47787277688E+02  0.20000030291E+02 0.  0.
        -12    1    1    2    0    0  0.52184994490E+01 -0.13907455721E+02  0.40779561499E+02  0.43400722312E+02  0.00000000000E+00 0.  1.
         11    1    3    3    0    0 -0.35800071980E+01  0.52944596765E+01 -0.25628360891E+02  0.26413266307E+02  0.51100000000E-03 0. -1.
        -11    1    3    3    0    0  0.22343681151E+01 -0.16946579194E+01 -0.73851179836E+01  0.78996350694E+01  0.51100000000E-03 0.  1.
        -12    1    3    3    0    0 -0.38728603661E+01  0.10307653964E+02 -0.77660826247E+01  0.13474376311E+02  0.00000000000E+00 0.  1.
</event>
<event>
 7    1  0.2505412E-009  0.4778726E+02  0.7816164E-02  0.1312668E+00
        -11   -1    0    0    0    0  0.00000000000E+00  0.00000000000E+00  0.45593999997E+02  0.45594000000E+02  0.51100000000E-03 0.  1.
         11   -1    0    0    0    0 -0.00000000000E+00 -0.00000000000E+00 -0.45593999997E+02  0.45594000000E+02  0.51100000000E-03 0. -1.
    9900012    2    1    2    0    0  0.84275195097E+01  0.41398716916E+02 -0.99371511584E+01  0.47787264747E+02  0.19999971287E+02 0.  0.
        -12    1    1    2    0    0 -0.84275195097E+01 -0.41398716916E+02  0.99371511584E+01  0.43400735253E+02  0.00000000000E+00 0.  1.
         11    1    3    3    0    0  0.55736039333E+01  0.14565705002E+02 -0.25270367591E+01  0.15799073961E+02  0.51100000000E-03 0. -1.
        -11    1    3    3    0    0 -0.15601279807E+01  0.20731014561E+01 -0.63000736993E+01  0.68134189539E+01  0.51100000000E-03 0.  1.
        -12    1    3    3    0    0  0.44140435571E+01  0.24759910458E+02 -0.11100407000E+01  0.25174771832E+02  0.00000000000E+00 0.  1.
</event>
<event>
 7    1  0.2505412E-009  0.4778727E+02  0.7816164E-02  0.1312668E+00
        -11   -1    0    0    0    0  0.00000000000E+00  0.00000000000E+00  0.45593999997E+02  0.45594000000E+02  0.51100000000E-03 0.  1.
         11   -1    0    0    0    0 -0.00000000000E+00 -0.00000000000E+00 -0.45593999997E+02  0.45594000000E+02  0.51100000000E-03 0. -1.
    9900012    2    1    2    0    0  0.11448982516E+02 -0.28841923640E+02 -0.30342827803E+02  0.47787274672E+02  0.20000016538E+02 0.  0.
        -12    1    1    2    0    0 -0.11448982516E+02  0.28841923640E+02  0.30342827803E+02  0.43400725328E+02  0.00000000000E+00 0.  1.
         11    1    3    3    0    0  0.58179258500E+01 -0.11168068971E+02 -0.69001952297E+01  0.14359203328E+02  0.51100000000E-03 0. -1.
        -11    1    3    3    0    0  0.73253334546E+00  0.25534174626E+01 -0.10473693720E+01  0.28554384433E+01  0.51100000000E-03 0.  1.
         12    1    3    3    0    0  0.48985233210E+01 -0.20227272131E+02 -0.22395263202E+02  0.30572632900E+02  0.00000000000E+00 0. -1.
</event>
<event>
 7    1  0.2505412E-009  0.4778723E+02  0.7816164E-02  0.1312668E+00
        -11   -1    0    0    0    0  0.00000000000E+00  0.00000000000E+00  0.45593999997E+02  0.45594000000E+02  0.51100000000E-03 0. -1.
         11   -1    0    0    0    0 -0.00000000000E+00 -0.00000000000E+00 -0.45593999997E+02  0.45594000000E+02  0.51100000000E-03 0.  1.
    9900012    2    1    2    0    0 -0.24125899146E+02 -0.19639307760E+02  0.30263263527E+02  0.47787233438E+02  0.19999828535E+02 0.  0.
        -12    1    1    2    0    0  0.24125899146E+02  0.19639307760E+02 -0.30263263527E+02  0.43400766562E+02  0.00000000000E+00 0.  1.
         11    1    3    3    0    0 -0.95469356885E+01 -0.13896559313E+02  0.21421840244E+02  0.27260843374E+02  0.51100000000E-03 0. -1.
        -11    1    3    3    0    0 -0.31889838281E+01  0.24564720230E+01  0.40150817398E+01  0.56854862847E+01  0.51100000000E-03 0.  1.
        -12    1    3    3    0    0 -0.11389979630E+02 -0.81992204704E+01  0.48263415433E+01  0.14840903779E+02  0.00000000000E+00 0.  1.
</event>
<event>
 7    1  0.2505412E-009  0.4778727E+02  0.7816164E-02  0.1312668E+00
        -11   -1    0    0    0    0  0.00000000000E+00  0.00000000000E+00  0.45593999997E+02  0.45594000000E+02  0.51100000000E-03 0. -1.
         11   -1    0    0    0    0 -0.00000000000E+00 -0.00000000000E+00 -0.45593999997E+02  0.45594000000E+02  0.51100000000E-03 0.  1.
    9900012    2    1    2    0    0  0.37285442306E+02  0.20994543611E+02 -0.72559080980E+01  0.47787271069E+02  0.20000000112E+02 0.  0.
        -12    1    1    2    0    0 -0.37285442306E+02 -0.20994543611E+02  0.72559080980E+01  0.43400728931E+02  0.00000000000E+00 0.  1.
         11    1    3    3    0    0  0.97587120168E+01 -0.16309726270E-01 -0.55529265040E+01  0.11227988210E+02  0.51100000000E-03 0. -1.
        -11    1    3    3    0    0  0.11409765716E+02  0.22918690337E+01 -0.22438099917E+01  0.11852008307E+02  0.51100000000E-03 0.  1.
         12    1    3    3    0    0  0.16116964573E+02  0.18718984304E+02  0.54082839777E+00  0.24707274552E+02  0.00000000000E+00 0. -1.
</event>
<event>
 7    1  0.2505412E-009  0.4778727E+02  0.7816164E-02  0.1312668E+00
        -11   -1    0    0    0    0  0.00000000000E+00  0.00000000000E+00  0.45593999997E+02  0.45594000000E+02  0.51100000000E-03 0.  1.
         11   -1    0    0    0    0 -0.00000000000E+00 -0.00000000000E+00 -0.45593999997E+02  0.45594000000E+02  0.51100000000E-03 0. -1.
    9900012    2    1    2    0    0  0.30236991481E+02 -0.28841167297E+02  0.11727528947E+02  0.47787268208E+02  0.19999987070E+02 0.  0.
        -12    1    1    2    0    0 -0.30236991481E+02  0.28841167297E+02 -0.11727528947E+02  0.43400731792E+02  0.00000000000E+00 0.  1.
         11    1    3    3    0    0  0.14085075683E+02 -0.14229445437E+02 -0.41746724814E-01  0.20021693672E+02  0.51100000000E-03 0. -1.
        -11    1    3    3    0    0  0.24864468433E+00  0.50887134950E-01 -0.20704385748E+01  0.20859362006E+01  0.51100000000E-03 0.  1.
         12    1    3    3    0    0  0.15903271113E+02 -0.14662608994E+02  0.13839714247E+02  0.25679638336E+02  0.00000000000E+00 0. -1.
</event>
<event>
 7    1  0.2505412E-009  0.4778727E+02  0.7816164E-02  0.1312668E+00
        -11   -1    0    0    0    0  0.00000000000E+00  0.00000000000E+00  0.45593999997E+02  0.45594000000E+02  0.51100000000E-03 0.  1.
         11   -1    0    0    0    0 -0.00000000000E+00 -0.00000000000E+00 -0.45593999997E+02  0.45594000000E+02  0.51100000000E-03 0. -1.
    9900012    2    1    2    0    0  0.13357662325E+02 -0.28558744886E+02 -0.29826066628E+02  0.47787270711E+02  0.19999998481E+02 0.  0.
        -12    1    1    2    0    0 -0.13357662325E+02  0.28558744886E+02  0.29826066628E+02  0.43400729289E+02  0.00000000000E+00 0.  1.
         11    1    3    3    0    0  0.10836541480E+02 -0.14371133210E+02 -0.14359522545E+02  0.23025116481E+02  0.51100000000E-03 0. -1.
        -11    1    3    3    0    0  0.74920641067E+01 -0.11237469823E+02 -0.99879168716E+01  0.16797923571E+02  0.51100000000E-03 0.  1.
        -12    1    3    3    0    0 -0.49709432615E+01 -0.29501418532E+01 -0.54786272116E+01  0.79642306588E+01  0.00000000000E+00 0.  1.
</event>
<event>
 7    1  0.2505412E-009  0.4778727E+02  0.7816164E-02  0.1312668E+00
        -11   -1    0    0    0    0  0.00000000000E+00  0.00000000000E+00  0.45593999997E+02  0.45594000000E+02  0.51100000000E-03 0.  1.
         11   -1    0    0    0    0 -0.00000000000E+00 -0.00000000000E+00 -0.45593999997E+02  0.45594000000E+02  0.51100000000E-03 0. -1.
    9900012    2    1    2    0    0  0.37385483785E+02  0.15166073967E+02 -0.15998089026E+02  0.47787273624E+02  0.20000011763E+02 0.  0.
        -12    1    1    2    0    0 -0.37385483785E+02 -0.15166073967E+02  0.15998089026E+02  0.43400726376E+02  0.00000000000E+00 0.  1.
         11    1    3    3    0    0  0.68208971919E+01  0.83343503344E+01 -0.89178467498E+01  0.13982632975E+02  0.51100000000E-03 0. -1.
        -11    1    3    3    0    0  0.13169134788E+02  0.75796311932E+01 -0.53664242237E+00  0.15204108176E+02  0.51100000000E-03 0.  1.
        -12    1    3    3    0    0  0.17395451806E+02 -0.74790756014E+00 -0.65435998537E+01  0.18600532473E+02  0.00000000000E+00 0.  1.
</event>
<event>
 7    1  0.2505412E-009  0.4778726E+02  0.7816164E-02  0.1312668E+00
        -11   -1    0    0    0    0  0.00000000000E+00  0.00000000000E+00  0.45593999997E+02  0.45594000000E+02  0.51100000000E-03 0. -1.
         11   -1    0    0    0    0 -0.00000000000E+00 -0.00000000000E+00 -0.45593999997E+02  0.45594000000E+02  0.51100000000E-03 0.  1.
    9900012    2    1    2    0    0  0.25052355217E+02  0.22742367094E+02  0.27180660416E+02  0.47787261946E+02  0.19999958518E+02 0.  0.
        -12    1    1    2    0    0 -0.25052355217E+02 -0.22742367094E+02 -0.27180660416E+02  0.43400738054E+02  0.00000000000E+00 0.  1.
         11    1    3    3    0    0  0.93801513221E+01  0.61581510384E+01  0.14872749242E+02  0.18630854337E+02  0.51100000000E-03 0. -1.
        -11    1    3    3    0    0  0.17459251970E+02  0.17132203603E+02  0.12055158964E+02  0.27270217043E+02  0.51100000000E-03 0.  1.
        -12    1    3    3    0    0 -0.17870480748E+01 -0.54798754807E+00  0.25275221001E+00  0.18861905667E+01  0.00000000000E+00 0.  1.
</event>
<event>
 7    1  0.2505412E-009  0.4778728E+02  0.7816164E-02  0.1312668E+00
        -11   -1    0    0    0    0  0.00000000000E+00  0.00000000000E+00  0.45593999997E+02  0.45594000000E+02  0.51100000000E-03 0.  1.
         11   -1    0    0    0    0 -0.00000000000E+00 -0.00000000000E+00 -0.45593999997E+02  0.45594000000E+02  0.51100000000E-03 0. -1.
    9900012    2    1    2    0    0 -0.13553133969E+02 -0.83184130142E+01 -0.40382405207E+02  0.47787284732E+02  0.20000062406E+02 0.  0.
        -12    1    1    2    0    0  0.13553133969E+02  0.83184130142E+01  0.40382405207E+02  0.43400715268E+02  0.00000000000E+00 0.  1.
         11    1    3    3    0    0 -0.15189977435E+02 -0.96500769594E+01 -0.39437052338E+02  0.43349054166E+02  0.51100000000E-03 0. -1.
        -11    1    3    3    0    0  0.19691098954E+01 -0.61306837273E+00 -0.12940926637E+01  0.24347325711E+01  0.51100000000E-03 0.  1.
         12    1    3    3    0    0 -0.33226643035E+00  0.19447323179E+01  0.34873979411E+00  0.20034979943E+01  0.00000000000E+00 0. -1.
</event>
<event>
 7    1  0.2505412E-009  0.4778727E+02  0.7816164E-02  0.1312668E+00
        -11   -1    0    0    0    0  0.00000000000E+00  0.00000000000E+00  0.45593999997E+02  0.45594000000E+02  0.51100000000E-03 0. -1.
         11   -1    0    0    0    0 -0.00000000000E+00 -0.00000000000E+00 -0.45593999997E+02  0.45594000000E+02  0.51100000000E-03 0.  1.
    9900012    2    1    2    0    0  0.10097986143E+02  0.36710915888E+02  0.20831764910E+02  0.47787273062E+02  0.20000009199E+02 0.  0.
        -12    1    1    2    0    0 -0.10097986143E+02 -0.36710915888E+02 -0.20831764910E+02  0.43400726938E+02  0.00000000000E+00 0.  1.
         11    1    3    3    0    0  0.44188981646E+01  0.16648392764E+02  0.17365873229E+02  0.24459542021E+02  0.51100000000E-03 0. -1.
        -11    1    3    3    0    0  0.29423901020E+01  0.75764957395E+01  0.62410518345E+01  0.10247520454E+02  0.51100000000E-03 0.  1.
        -12    1    3    3    0    0  0.27366978763E+01  0.12486027384E+02 -0.27751601533E+01  0.13080210586E+02  0.00000000000E+00 0.  1.
</event>
<event>
 7    1  0.2505412E-009  0.4778727E+02  0.7816164E-02  0.1312668E+00
        -11   -1    0    0    0    0  0.00000000000E+00  0.00000000000E+00  0.45593999997E+02  0.45594000000E+02  0.51100000000E-03 0.  1.
         11   -1    0    0    0    0 -0.00000000000E+00 -0.00000000000E+00 -0.45593999997E+02  0.45594000000E+02  0.51100000000E-03 0. -1.
    9900012    2    1    2    0    0 -0.17743269766E+02  0.10073525597E+02 -0.38305667308E+02  0.47787266275E+02  0.19999978254E+02 0.  0.
        -12    1    1    2    0    0  0.17743269766E+02 -0.10073525597E+02  0.38305667308E+02  0.43400733725E+02  0.00000000000E+00 0.  1.
         11    1    3    3    0    0 -0.20775568815E+02  0.63895018188E+01 -0.28593088075E+02  0.35916774340E+02  0.51100000000E-03 0. -1.
        -11    1    3    3    0    0  0.20536785006E+01  0.59224503071E+00 -0.78391141035E+01  0.81252729031E+01  0.51100000000E-03 0.  1.
        -12    1    3    3    0    0  0.97862054874E+00  0.30917787476E+01 -0.18734651295E+01  0.37452190315E+01  0.00000000000E+00 0.  1.
</event>
<event>
 7    1  0.2505412E-009  0.4778727E+02  0.7816164E-02  0.1312668E+00
        -11   -1    0    0    0    0  0.00000000000E+00  0.00000000000E+00  0.45593999997E+02  0.45594000000E+02  0.51100000000E-03 0. -1.
         11   -1    0    0    0    0 -0.00000000000E+00 -0.00000000000E+00 -0.45593999997E+02  0.45594000000E+02  0.51100000000E-03 0.  1.
    9900012    2    1    2    0    0  0.35343513930E+02 -0.20154997696E+02  0.15107458690E+02  0.47787271698E+02  0.20000002981E+02 0.  0.
        -12    1    1    2    0    0 -0.35343513930E+02  0.20154997696E+02 -0.15107458690E+02  0.43400728302E+02  0.00000000000E+00 0.  1.
         11    1    3    3    0    0  0.17365489331E+01  0.38424633918E+00 -0.19034767988E+01  0.26050857243E+01  0.51100000000E-03 0. -1.
        -11    1    3    3    0    0  0.30068373885E+02 -0.16315731832E+02  0.88511521623E+01  0.35336285999E+02  0.51100000000E-03 0.  1.
         12    1    3    3    0    0  0.35385911115E+01 -0.42235122029E+01  0.81597833269E+01  0.98458999753E+01  0.00000000000E+00 0. -1.
</event>
<event>
 7    1  0.2505412E-009  0.4778727E+02  0.7816164E-02  0.1312668E+00
        -11   -1    0    0    0    0  0.00000000000E+00  0.00000000000E+00  0.45593999997E+02  0.45594000000E+02  0.51100000000E-03 0. -1.
         11   -1    0    0    0    0 -0.00000000000E+00 -0.00000000000E+00 -0.45593999997E+02  0.45594000000E+02  0.51100000000E-03 0.  1.
    9900012    2    1    2    0    0  0.32995753003E+02  0.20829901911E+02  0.19000484258E+02  0.47787274984E+02  0.20000017964E+02 0.  0.
        -12    1    1    2    0    0 -0.32995753003E+02 -0.20829901911E+02 -0.19000484258E+02  0.43400725016E+02  0.00000000000E+00 0.  1.
         11    1    3    3    0    0  0.12859983546E+02  0.58607270487E+01  0.32785513197E+01  0.14507797812E+02  0.51100000000E-03 0. -1.
        -11    1    3    3    0    0  0.23346292854E+01  0.97830316356E+01  0.21062365907E+01  0.10275915274E+02  0.51100000000E-03 0.  1.
        -12    1    3    3    0    0  0.17801140171E+02  0.51861432265E+01  0.13615696347E+02  0.23003561898E+02  0.00000000000E+00 0.  1.
</event>
<event>
 7    1  0.2505412E-009  0.4778727E+02  0.7816164E-02  0.1312668E+00
        -11   -1    0    0    0    0  0.00000000000E+00  0.00000000000E+00  0.45593999997E+02  0.45594000000E+02  0.51100000000E-03 0.  1.
         11   -1    0    0    0    0 -0.00000000000E+00 -0.00000000000E+00 -0.45593999997E+02  0.45594000000E+02  0.51100000000E-03 0. -1.
    9900012    2    1    2    0    0 -0.34058955867E+02 -0.25302032123E+02 -0.91333357290E+01  0.47787272750E+02  0.20000007774E+02 0.  0.
        -12    1    1    2    0    0  0.34058955867E+02  0.25302032123E+02  0.91333357290E+01  0.43400727250E+02  0.00000000000E+00 0.  1.
         11    1    3    3    0    0 -0.36692672492E+01 -0.20240727398E+01 -0.50346442016E+01  0.65504225131E+01  0.51100000000E-03 0. -1.
        -11    1    3    3    0    0 -0.53361893209E+01 -0.28826058427E+01 -0.64402780742E+01  0.88465538402E+01  0.51100000000E-03 0.  1.
         12    1    3    3    0    0 -0.25053499297E+02 -0.20395353541E+02  0.23415865468E+01  0.32390296396E+02  0.00000000000E+00 0. -1.
</event>
<event>
 7    1  0.2505412E-009  0.4778729E+02  0.7816164E-02  0.1312668E+00
        -11   -1    0    0    0    0  0.00000000000E+00  0.00000000000E+00  0.45593999997E+02  0.45594000000E+02  0.51100000000E-03 0. -1.
         11   -1    0    0    0    0 -0.00000000000E+00 -0.00000000000E+00 -0.45593999997E+02  0.45594000000E+02  0.51100000000E-03 0.  1.
    9900012    2    1    2    0    0 -0.35731931790E+02  0.24631995567E+02  0.34014895084E+00  0.47787287375E+02  0.20000074458E+02 0.  0.
        -12    1    1    2    0    0  0.35731931790E+02 -0.24631995567E+02 -0.34014895084E+00  0.43400712625E+02  0.00000000000E+00 0.  1.
         11    1    3    3    0    0 -0.23923213319E+02  0.95123195832E+01 -0.78403996539E+01  0.26912380540E+02  0.51100000000E-03 0. -1.
        -11    1    3    3    0    0 -0.32899167302E+01  0.40275976493E+01  0.26323709163E+01  0.58287624603E+01  0.51100000000E-03 0.  1.
         12    1    3    3    0    0 -0.85188017407E+01  0.11092078334E+02  0.55481776884E+01  0.15046144374E+02  0.00000000000E+00 0. -1.
</event>
<event>
 7    1  0.2505412E-009  0.4778727E+02  0.7816164E-02  0.1312668E+00
        -11   -1    0    0    0    0  0.00000000000E+00  0.00000000000E+00  0.45593999997E+02  0.45594000000E+02  0.51100000000E-03 0.  1.
         11   -1    0    0    0    0 -0.00000000000E+00 -0.00000000000E+00 -0.45593999997E+02  0.45594000000E+02  0.51100000000E-03 0. -1.
    9900012    2    1    2    0    0 -0.31349445018E+02  0.10390653723E+01 -0.29995936123E+02  0.47787267936E+02  0.19999985828E+02 0.  0.
        -12    1    1    2    0    0  0.31349445018E+02 -0.10390653723E+01  0.29995936123E+02  0.43400732064E+02  0.00000000000E+00 0.  1.
         11    1    3    3    0    0 -0.17391048292E+02  0.30664242536E+00 -0.67093972433E+01  0.18642923641E+02  0.51100000000E-03 0. -1.
        -11    1    3    3    0    0 -0.14860559289E+01 -0.39279802664E+01 -0.51537909353E+01  0.66482292727E+01  0.51100000000E-03 0.  1.
        -12    1    3    3    0    0 -0.12472340797E+02  0.46604032134E+01 -0.18132747945E+02  0.22496115022E+02  0.00000000000E+00 0.  1.
</event>
<event>
 7    1  0.2505412E-009  0.4778727E+02  0.7816164E-02  0.1312668E+00
        -11   -1    0    0    0    0  0.00000000000E+00  0.00000000000E+00  0.45593999997E+02  0.45594000000E+02  0.51100000000E-03 0.  1.
         11   -1    0    0    0    0 -0.00000000000E+00 -0.00000000000E+00 -0.45593999997E+02  0.45594000000E+02  0.51100000000E-03 0. -1.
    9900012    2    1    2    0    0  0.14372345050E+02  0.35022725947E+02 -0.21224219981E+02  0.47787272486E+02  0.20000006572E+02 0.  0.
        -12    1    1    2    0    0 -0.14372345050E+02 -0.35022725947E+02  0.21224219981E+02  0.43400727514E+02  0.00000000000E+00 0.  1.
         11    1    3    3    0    0  0.17355590289E+01  0.73758559481E+01 -0.35420453178E+01  0.83642992178E+01  0.51100000000E-03 0. -1.
        -11    1    3    3    0    0  0.86469810220E+01  0.18917403377E+02 -0.18153659285E+01  0.20879032186E+02  0.51100000000E-03 0.  1.
         12    1    3    3    0    0  0.39898049991E+01  0.87294666217E+01 -0.15866808734E+02  0.18543941082E+02  0.00000000000E+00 0. -1.
</event>
<event>
 7    1  0.2505412E-009  0.4778727E+02  0.7816164E-02  0.1312668E+00
        -11   -1    0    0    0    0  0.00000000000E+00  0.00000000000E+00  0.45593999997E+02  0.45594000000E+02  0.51100000000E-03 0.  1.
         11   -1    0    0    0    0 -0.00000000000E+00 -0.00000000000E+00 -0.45593999997E+02  0.45594000000E+02  0.51100000000E-03 0. -1.
    9900012    2    1    2    0    0 -0.38407978387E+02  0.19518326157E+02 -0.52426553611E+01  0.47787270802E+02  0.19999998893E+02 0.  0.
        -12    1    1    2    0    0  0.38407978387E+02 -0.19518326157E+02  0.52426553611E+01  0.43400729198E+02  0.00000000000E+00 0.  1.
         11    1    3    3    0    0 -0.11712559898E+02  0.15782986991E+01 -0.13090607354E+00  0.11819146450E+02  0.51100000000E-03 0. -1.
        -11    1    3    3    0    0 -0.17172413939E+02  0.76192883204E+01  0.40266985317E+01  0.19213527951E+02  0.51100000000E-03 0.  1.
         12    1    3    3    0    0 -0.95230045494E+01  0.10320739138E+02 -0.91384478192E+01  0.16754596400E+02  0.00000000000E+00 0. -1.
</event>
<event>
 7    1  0.2505412E-009  0.4778727E+02  0.7816164E-02  0.1312668E+00
        -11   -1    0    0    0    0  0.00000000000E+00  0.00000000000E+00  0.45593999997E+02  0.45594000000E+02  0.51100000000E-03 0.  1.
         11   -1    0    0    0    0 -0.00000000000E+00 -0.00000000000E+00 -0.45593999997E+02  0.45594000000E+02  0.51100000000E-03 0. -1.
    9900012    2    1    2    0    0 -0.10004361366E+02 -0.26064708714E+02 -0.33229009026E+02  0.47787270427E+02  0.19999997183E+02 0.  0.
        -12    1    1    2    0    0  0.10004361366E+02  0.26064708714E+02  0.33229009026E+02  0.43400729573E+02  0.00000000000E+00 0.  1.
         11    1    3    3    0    0 -0.10067938947E+02 -0.17342377872E+02 -0.18150354069E+02  0.27047307038E+02  0.51100000000E-03 0. -1.
        -11    1    3    3    0    0  0.22036455779E+01 -0.89436618808E+01 -0.15950043803E+02  0.18418714376E+02  0.51100000000E-03 0.  1.
        -12    1    3    3    0    0 -0.21400679970E+01  0.22133103889E+00  0.87138884648E+00  0.23212490134E+01  0.00000000000E+00 0.  1.
</event>
<event>
 7    1  0.2505412E-009  0.4778727E+02  0.7816164E-02  0.1312668E+00
        -11   -1    0    0    0    0  0.00000000000E+00  0.00000000000E+00  0.45593999997E+02  0.45594000000E+02  0.51100000000E-03 0.  1.
         11   -1    0    0    0    0 -0.00000000000E+00 -0.00000000000E+00 -0.45593999997E+02  0.45594000000E+02  0.51100000000E-03 0. -1.
    9900012    2    1    2    0    0 -0.37294211002E+02 -0.45868537443E+01 -0.21719245122E+02  0.47787274082E+02  0.20000013852E+02 0.  0.
        -12    1    1    2    0    0  0.37294211002E+02  0.45868537443E+01  0.21719245122E+02  0.43400725918E+02  0.00000000000E+00 0.  1.
         11    1    3    3    0    0 -0.24756551854E+02  0.91398386771E+00 -0.12697787797E+02  0.27838032283E+02  0.51100000000E-03 0. -1.
        -11    1    3    3    0    0 -0.22944209028E+01  0.12632373843E+01  0.21217190020E+01  0.33707310413E+01  0.51100000000E-03 0.  1.
         12    1    3    3    0    0 -0.10243238245E+02 -0.67640749963E+01 -0.11143176327E+02  0.16578510758E+02  0.00000000000E+00 0. -1.
</event>
<event>
 7    1  0.2505412E-009  0.4778727E+02  0.7816164E-02  0.1312668E+00
        -11   -1    0    0    0    0  0.00000000000E+00  0.00000000000E+00  0.45593999997E+02  0.45594000000E+02  0.51100000000E-03 0.  1.
         11   -1    0    0    0    0 -0.00000000000E+00 -0.00000000000E+00 -0.45593999997E+02  0.45594000000E+02  0.51100000000E-03 0. -1.
    9900012    2    1    2    0    0  0.25911788562E+02  0.13723485645E+02 -0.31997944320E+02  0.47787270911E+02  0.19999999392E+02 0.  0.
        -12    1    1    2    0    0 -0.25911788562E+02 -0.13723485645E+02  0.31997944320E+02  0.43400729089E+02  0.00000000000E+00 0.  1.
         11    1    3    3    0    0 -0.52868104682E+00  0.31527787697E+01 -0.49950324748E+00  0.32355867127E+01  0.51100000000E-03 0.  1.
        -11    1    3    3    0    0  0.15483919304E+02  0.43986939902E+01 -0.26528165867E+02  0.31029725270E+02  0.51100000000E-03 0. -1.
         12    1    3    3    0    0  0.10956550305E+02  0.61720128851E+01 -0.49702752058E+01  0.13521958928E+02  0.00000000000E+00 0. -1.
</event>
<event>
 7    1  0.2505412E-009  0.4778727E+02  0.7816164E-02  0.1312668E+00
        -11   -1    0    0    0    0  0.00000000000E+00  0.00000000000E+00  0.45593999997E+02  0.45594000000E+02  0.51100000000E-03 0.  1.
         11   -1    0    0    0    0 -0.00000000000E+00 -0.00000000000E+00 -0.45593999997E+02  0.45594000000E+02  0.51100000000E-03 0. -1.
    9900012    2    1    2    0    0 -0.20421289161E+02 -0.10459866756E+02 -0.36839997210E+02  0.47787271228E+02  0.20000000835E+02 0.  0.
        -12    1    1    2    0    0  0.20421289161E+02  0.10459866756E+02  0.36839997210E+02  0.43400728772E+02  0.00000000000E+00 0.  1.
         11    1    3    3    0    0 -0.12439306497E+02 -0.10074386021E+02 -0.10877688611E+02  0.19353390132E+02  0.51100000000E-03 0.  1.
        -11    1    3    3    0    0  0.12208143231E+01  0.14363397174E+01 -0.73901088664E+01  0.76267403727E+01  0.51100000000E-03 0. -1.
        -12    1    3    3    0    0 -0.92027969868E+01 -0.18218204522E+01 -0.18572199733E+02  0.20807140723E+02  0.00000000000E+00 0.  1.
</event>
<event>
 7    1  0.2505412E-009  0.4778729E+02  0.7816164E-02  0.1312668E+00
        -11   -1    0    0    0    0  0.00000000000E+00  0.00000000000E+00  0.45593999997E+02  0.45594000000E+02  0.51100000000E-03 0.  1.
         11   -1    0    0    0    0 -0.00000000000E+00 -0.00000000000E+00 -0.45593999997E+02  0.45594000000E+02  0.51100000000E-03 0. -1.
    9900012    2    1    2    0    0 -0.23386015565E+02 -0.21055520924E+01 -0.36500451725E+02  0.47787285147E+02  0.20000064299E+02 0.  0.
        -12    1    1    2    0    0  0.23386015565E+02  0.21055520924E+01  0.36500451725E+02  0.43400714853E+02  0.00000000000E+00 0.  1.
         11    1    3    3    0    0 -0.19934200385E+02 -0.16626925389E+01 -0.23085214745E+02  0.30546096829E+02  0.51100000000E-03 0. -1.
        -11    1    3    3    0    0 -0.29988822645E+01  0.22433491451E+01 -0.13968159500E+02  0.14461514108E+02  0.51100000000E-03 0.  1.
        -12    1    3    3    0    0 -0.45293291566E+00 -0.26862086986E+01  0.55292251934E+00  0.27796742095E+01  0.00000000000E+00 0.  1.
</event>
<event>
 7    1  0.2505412E-009  0.4778727E+02  0.7816164E-02  0.1312668E+00
        -11   -1    0    0    0    0  0.00000000000E+00  0.00000000000E+00  0.45593999997E+02  0.45594000000E+02  0.51100000000E-03 0.  1.
         11   -1    0    0    0    0 -0.00000000000E+00 -0.00000000000E+00 -0.45593999997E+02  0.45594000000E+02  0.51100000000E-03 0. -1.
    9900012    2    1    2    0    0  0.60043790552E+00 -0.43208932823E+02 -0.40312662357E+01  0.47787268338E+02  0.19999987660E+02 0.  0.
        -12    1    1    2    0    0 -0.60043790552E+00  0.43208932823E+02  0.40312662357E+01  0.43400731662E+02  0.00000000000E+00 0.  1.
         11    1    3    3    0    0 -0.39857435101E+01 -0.27901420256E+02 -0.80831623164E+01  0.29320861463E+02  0.51100000000E-03 0. -1.
        -11    1    3    3    0    0  0.32840639464E+01 -0.15644260726E+01 -0.98982427840E+00  0.37699147608E+01  0.51100000000E-03 0.  1.
        -12    1    3    3    0    0  0.13021174693E+01 -0.13743086494E+02  0.50417203591E+01  0.14696492114E+02  0.00000000000E+00 0.  1.
</event>
<event>
 7    1  0.2505412E-009  0.4778727E+02  0.7816164E-02  0.1312668E+00
        -11   -1    0    0    0    0  0.00000000000E+00  0.00000000000E+00  0.45593999997E+02  0.45594000000E+02  0.51100000000E-03 0.  1.
         11   -1    0    0    0    0 -0.00000000000E+00 -0.00000000000E+00 -0.45593999997E+02  0.45594000000E+02  0.51100000000E-03 0. -1.
    9900012    2    1    2    0    0 -0.21228977702E+02  0.28815919786E+02 -0.24547842377E+02  0.47787270827E+02  0.19999999010E+02 0.  0.
        -12    1    1    2    0    0  0.21228977702E+02 -0.28815919786E+02  0.24547842377E+02  0.43400729173E+02  0.00000000000E+00 0.  1.
         11    1    3    3    0    0 -0.16025225006E+02  0.19204059615E+02 -0.21459208825E+02  0.32956052340E+02  0.51100000000E-03 0. -1.
        -11    1    3    3    0    0 -0.76078044275E+01  0.69259282675E+01 -0.33245720481E+00  0.10293575600E+02  0.51100000000E-03 0.  1.
        -12    1    3    3    0    0  0.24040517319E+01  0.26859319031E+01 -0.27561763472E+01  0.45376428875E+01  0.00000000000E+00 0.  1.
</event>
<event>
 7    1  0.2505412E-009  0.4778727E+02  0.7816164E-02  0.1312668E+00
        -11   -1    0    0    0    0  0.00000000000E+00  0.00000000000E+00  0.45593999997E+02  0.45594000000E+02  0.51100000000E-03 0.  1.
         11   -1    0    0    0    0 -0.00000000000E+00 -0.00000000000E+00 -0.45593999997E+02  0.45594000000E+02  0.51100000000E-03 0. -1.
    9900012    2    1    2    0    0  0.45790394714E+01  0.31169929112E+02 -0.29851147959E+02  0.47787272842E+02  0.20000008198E+02 0.  0.
        -12    1    1    2    0    0 -0.45790394714E+01 -0.31169929112E+02  0.29851147959E+02  0.43400727158E+02  0.00000000000E+00 0.  1.
         11    1    3    3    0    0  0.46002922311E+01  0.11411257497E+02 -0.15327153255E+02  0.19654544346E+02  0.51100000000E-03 0. -1.
        -11    1    3    3    0    0  0.25345363291E+01  0.12125057897E+02 -0.10428266593E+01  0.12430944900E+02  0.51100000000E-03 0.  1.
         12    1    3    3    0    0 -0.25557890888E+01  0.76336137181E+01 -0.13481168045E+02  0.15701783597E+02  0.00000000000E+00 0. -1.
</event>
<event>
 7    1  0.2630889E-009  0.4778727E+02  0.7816164E-02  0.1312668E+00
        -11   -1    0    0    0    0  0.00000000000E+00  0.00000000000E+00  0.45593999997E+02  0.45594000000E+02  0.51100000000E-03 0.  1.
         11   -1    0    0    0    0 -0.00000000000E+00 -0.00000000000E+00 -0.45593999997E+02  0.45594000000E+02  0.51100000000E-03 0. -1.
    9900012    2    1    2    0    0  0.43029809954E+02 -0.53148999186E+01 -0.19520891595E+01  0.47787270076E+02  0.19999995585E+02 0.  0.
        -12    1    1    2    0    0 -0.43029809954E+02  0.53148999186E+01  0.19520891595E+01  0.43400729924E+02  0.00000000000E+00 0.  1.
         11    1    3    3    0    0  0.29457785310E+02  0.22931471420E+01  0.25908276313E+01  0.29660276925E+02  0.51100000000E-03 0. -1.
        -11    1    3    3    0    0  0.12570461653E+02 -0.35154715753E+01 -0.47961410557E+01  0.13906042422E+02  0.51100000000E-03 0.  1.
        -12    1    3    3    0    0  0.10015629917E+01 -0.40925754854E+01  0.25322426494E+00  0.42209507292E+01  0.00000000000E+00 0.  1.
</event>
<event>
 7    1  0.2505412E-009  0.4778727E+02  0.7816164E-02  0.1312668E+00
        -11   -1    0    0    0    0  0.00000000000E+00  0.00000000000E+00  0.45593999997E+02  0.45594000000E+02  0.51100000000E-03 0.  1.
         11   -1    0    0    0    0 -0.00000000000E+00 -0.00000000000E+00 -0.45593999997E+02  0.45594000000E+02  0.51100000000E-03 0. -1.
    9900012    2    1    2    0    0  0.26520648515E+02  0.11137577369E+02 -0.32499736691E+02  0.47787270602E+02  0.19999997981E+02 0.  0.
        -12    1    1    2    0    0 -0.26520648515E+02 -0.11137577369E+02  0.32499736691E+02  0.43400729398E+02  0.00000000000E+00 0.  1.
         11    1    3    3    0    0  0.13005989596E+01  0.29615889198E+01  0.10644066594E+01  0.34052207537E+01  0.51100000000E-03 0. -1.
        -11    1    3    3    0    0  0.95327466551E+01  0.60902460933E+01 -0.22145029623E+02  0.24866979984E+02  0.51100000000E-03 0.  1.
         12    1    3    3    0    0  0.15687302901E+02  0.20857423559E+01 -0.11419113727E+02  0.19515069864E+02  0.00000000000E+00 0. -1.
</event>
<event>
 7    1  0.2505412E-009  0.4778726E+02  0.7816164E-02  0.1312668E+00
        -11   -1    0    0    0    0  0.00000000000E+00  0.00000000000E+00  0.45593999997E+02  0.45594000000E+02  0.51100000000E-03 0.  1.
         11   -1    0    0    0    0 -0.00000000000E+00 -0.00000000000E+00 -0.45593999997E+02  0.45594000000E+02  0.51100000000E-03 0. -1.
    9900012    2    1    2    0    0 -0.30531870488E+02  0.21429485717E+02 -0.22185719506E+02  0.47787261255E+02  0.19999955365E+02 0.  0.
        -12    1    1    2    0    0  0.30531870488E+02 -0.21429485717E+02  0.22185719506E+02  0.43400738745E+02  0.00000000000E+00 0.  1.
         11    1    3    3    0    0 -0.11838704729E+02  0.28634567253E+01 -0.18653642181E+01  0.12322089840E+02  0.51100000000E-03 0. -1.
        -11    1    3    3    0    0 -0.18345752160E+02  0.16596118339E+02 -0.13140685477E+02  0.28012057784E+02  0.51100000000E-03 0.  1.
        -12    1    3    3    0    0 -0.34741359843E+00  0.19699106532E+01 -0.71796698117E+01  0.74531136309E+01  0.00000000000E+00 0.  1.
</event>
<event>
 7    1  0.2505412E-009  0.4778727E+02  0.7816164E-02  0.1312668E+00
        -11   -1    0    0    0    0  0.00000000000E+00  0.00000000000E+00  0.45593999997E+02  0.45594000000E+02  0.51100000000E-03 0.  1.
         11   -1    0    0    0    0 -0.00000000000E+00 -0.00000000000E+00 -0.45593999997E+02  0.45594000000E+02  0.51100000000E-03 0. -1.
    9900012    2    1    2    0    0 -0.16952330310E+02 -0.18562986708E+02 -0.35378767091E+02  0.47787272594E+02  0.20000007064E+02 0.  0.
        -12    1    1    2    0    0  0.16952330310E+02  0.18562986708E+02  0.35378767091E+02  0.43400727406E+02  0.00000000000E+00 0.  1.
         11    1    3    3    0    0  0.16988353203E+01 -0.72712717888E+01 -0.93634670067E+01  0.11976307842E+02  0.51100000000E-03 0. -1.
        -11    1    3    3    0    0 -0.52734119747E+01  0.20631675408E+01 -0.69246765505E+01  0.89452042876E+01  0.51100000000E-03 0.  1.
        -12    1    3    3    0    0 -0.13377753656E+02 -0.13354882460E+02 -0.19090623534E+02  0.26865760464E+02  0.00000000000E+00 0.  1.
</event>
<event>
 7    1  0.2505412E-009  0.4778727E+02  0.7816164E-02  0.1312668E+00
        -11   -1    0    0    0    0  0.00000000000E+00  0.00000000000E+00  0.45593999997E+02  0.45594000000E+02  0.51100000000E-03 0.  1.
         11   -1    0    0    0    0 -0.00000000000E+00 -0.00000000000E+00 -0.45593999997E+02  0.45594000000E+02  0.51100000000E-03 0. -1.
    9900012    2    1    2    0    0 -0.35501402184E+02 -0.24947683770E+02 -0.94165129889E+00  0.47787272014E+02  0.20000004422E+02 0.  0.
        -12    1    1    2    0    0  0.35501402184E+02  0.24947683770E+02  0.94165129889E+00  0.43400727986E+02  0.00000000000E+00 0.  1.
         11    1    3    3    0    0 -0.48125604047E+01 -0.90170675390E+01 -0.28566193349E+01  0.10612658429E+02  0.51100000000E-03 0. -1.
        -11    1    3    3    0    0 -0.18471635267E+02 -0.14381228193E+02  0.60585904349E+01  0.24181140422E+02  0.51100000000E-03 0.  1.
         12    1    3    3    0    0 -0.12217206512E+02 -0.15493880380E+01 -0.41436223989E+01  0.12993473163E+02  0.00000000000E+00 0. -1.
</event>
<event>
 7    1  0.2505412E-009  0.4778727E+02  0.7816164E-02  0.1312668E+00
        -11   -1    0    0    0    0  0.00000000000E+00  0.00000000000E+00  0.45593999997E+02  0.45594000000E+02  0.51100000000E-03 0. -1.
         11   -1    0    0    0    0 -0.00000000000E+00 -0.00000000000E+00 -0.45593999997E+02  0.45594000000E+02  0.51100000000E-03 0.  1.
    9900012    2    1    2    0    0 -0.33654246962E+02  0.26976930967E+02  0.48228858412E+01  0.47787269928E+02  0.19999994908E+02 0.  0.
        -12    1    1    2    0    0  0.33654246962E+02 -0.26976930967E+02 -0.48228858412E+01  0.43400730072E+02  0.00000000000E+00 0.  1.
         11    1    3    3    0    0 -0.13452883648E+02  0.87292283285E+01  0.28875620201E+01  0.16294708354E+02  0.51100000000E-03 0. -1.
        -11    1    3    3    0    0 -0.57086533475E+01  0.37165581400E+00 -0.48502864075E+01  0.75001419707E+01  0.51100000000E-03 0.  1.
        -12    1    3    3    0    0 -0.14492709967E+02  0.17876046824E+02  0.67856102286E+01  0.23992419603E+02  0.00000000000E+00 0.  1.
</event>
<event>
 7    1  0.2505412E-009  0.4778727E+02  0.7816164E-02  0.1312668E+00
        -11   -1    0    0    0    0  0.00000000000E+00  0.00000000000E+00  0.45593999997E+02  0.45594000000E+02  0.51100000000E-03 0. -1.
         11   -1    0    0    0    0 -0.00000000000E+00 -0.00000000000E+00 -0.45593999997E+02  0.45594000000E+02  0.51100000000E-03 0.  1.
    9900012    2    1    2    0    0 -0.89134669178E+01 -0.26722042635E+02  0.33016756561E+02  0.47787266494E+02  0.19999979251E+02 0.  0.
        -12    1    1    2    0    0  0.89134669178E+01  0.26722042635E+02 -0.33016756561E+02  0.43400733506E+02  0.00000000000E+00 0.  1.
         11    1    3    3    0    0 -0.39199959487E+01 -0.77871973594E+01  0.74859859657E+01  0.11491161695E+02  0.51100000000E-03 0. -1.
        -11    1    3    3    0    0  0.25126795274E+01 -0.46864033555E+01  0.17519802605E+02  0.18308998290E+02  0.51100000000E-03 0.  1.
        -12    1    3    3    0    0 -0.75061504965E+01 -0.14248441920E+02  0.80109679909E+01  0.17987106509E+02  0.00000000000E+00 0.  1.
</event>
<event>
 7    1  0.2505412E-009  0.4778727E+02  0.7816164E-02  0.1312668E+00
        -11   -1    0    0    0    0  0.00000000000E+00  0.00000000000E+00  0.45593999997E+02  0.45594000000E+02  0.51100000000E-03 0.  1.
         11   -1    0    0    0    0 -0.00000000000E+00 -0.00000000000E+00 -0.45593999997E+02  0.45594000000E+02  0.51100000000E-03 0. -1.
    9900012    2    1    2    0    0  0.97947510208E+01 -0.33250279056E+02 -0.26117145737E+02  0.47787268366E+02  0.19999987790E+02 0.  0.
        -12    1    1    2    0    0 -0.97947510208E+01  0.33250279056E+02  0.26117145737E+02  0.43400731634E+02  0.00000000000E+00 0.  1.
         11    1    3    3    0    0 -0.23588568833E+01 -0.17301549912E+02 -0.20317741397E+02  0.26790267839E+02  0.51100000000E-03 0. -1.
        -11    1    3    3    0    0  0.43158885887E+01 -0.75196167800E+01 -0.25197574262E+01  0.90288819118E+01  0.51100000000E-03 0.  1.
         12    1    3    3    0    0  0.78377193153E+01 -0.84291123639E+01 -0.32796469138E+01  0.11968118615E+02  0.00000000000E+00 0. -1.
</event>
<event>
 7    1  0.2505412E-009  0.4778727E+02  0.7816164E-02  0.1312668E+00
        -11   -1    0    0    0    0  0.00000000000E+00  0.00000000000E+00  0.45593999997E+02  0.45594000000E+02  0.51100000000E-03 0. -1.
         11   -1    0    0    0    0 -0.00000000000E+00 -0.00000000000E+00 -0.45593999997E+02  0.45594000000E+02  0.51100000000E-03 0.  1.
    9900012    2    1    2    0    0  0.38358220058E+02 -0.11845236852E+02  0.16491231023E+02  0.47787269790E+02  0.19999994281E+02 0.  0.
        -12    1    1    2    0    0 -0.38358220058E+02  0.11845236852E+02 -0.16491231023E+02  0.43400730210E+02  0.00000000000E+00 0.  1.
         11    1    3    3    0    0  0.31477275044E+02 -0.43970829956E+01  0.14387701377E+02  0.34887807816E+02  0.51100000000E-03 0. -1.
        -11    1    3    3    0    0  0.61174666337E+01 -0.38851630196E+01 -0.18940561892E+01  0.74903497123E+01  0.51100000000E-03 0.  1.
         12    1    3    3    0    0  0.76347838026E+00 -0.35629908371E+01  0.39975858356E+01  0.54091122613E+01  0.00000000000E+00 0. -1.
</event>
<event>
 7    1  0.2505412E-009  0.4778727E+02  0.7816164E-02  0.1312668E+00
        -11   -1    0    0    0    0  0.00000000000E+00  0.00000000000E+00  0.45593999997E+02  0.45594000000E+02  0.51100000000E-03 0.  1.
         11   -1    0    0    0    0 -0.00000000000E+00 -0.00000000000E+00 -0.45593999997E+02  0.45594000000E+02  0.51100000000E-03 0. -1.
    9900012    2    1    2    0    0 -0.96033921692E+01  0.33957455790E+00 -0.42323551912E+02  0.47787268457E+02  0.19999988202E+02 0.  0.
        -12    1    1    2    0    0  0.96033921692E+01 -0.33957455790E+00  0.42323551912E+02  0.43400731543E+02  0.00000000000E+00 0.  1.
         11    1    3    3    0    0 -0.71323850835E+01 -0.78830143064E+01 -0.15009008310E+02  0.18392475696E+02  0.51100000000E-03 0. -1.
        -11    1    3    3    0    0 -0.24313248527E+01  0.10418613471E+01 -0.28072291124E+01  0.38571169487E+01  0.51100000000E-03 0.  1.
        -12    1    3    3    0    0 -0.39682233019E-01  0.71807275172E+01 -0.24507314490E+02  0.25537675812E+02  0.00000000000E+00 0.  1.
</event>
<event>
 7    1  0.2505412E-009  0.4778727E+02  0.7816164E-02  0.1312668E+00
        -11   -1    0    0    0    0  0.00000000000E+00  0.00000000000E+00  0.45593999997E+02  0.45594000000E+02  0.51100000000E-03 0. -1.
         11   -1    0    0    0    0 -0.00000000000E+00 -0.00000000000E+00 -0.45593999997E+02  0.45594000000E+02  0.51100000000E-03 0.  1.
    9900012    2    1    2    0    0 -0.37001611348E+02 -0.16927578211E+02  0.15098375980E+02  0.47787273005E+02  0.20000008940E+02 0.  0.
        -12    1    1    2    0    0  0.37001611348E+02  0.16927578211E+02 -0.15098375980E+02  0.43400726995E+02  0.00000000000E+00 0.  1.
         11    1    3    3    0    0 -0.15332687745E+02 -0.14224629149E+01  0.21602055697E+01  0.15549315181E+02  0.51100000000E-03 0. -1.
        -11    1    3    3    0    0 -0.20827112508E+02 -0.11277296022E+02  0.14361374530E+02  0.27698286945E+02  0.51100000000E-03 0.  1.
        -12    1    3    3    0    0 -0.84181109502E+00 -0.42278192738E+01 -0.14232041198E+01  0.45396708800E+01  0.00000000000E+00 0.  1.
</event>
<event>
 7    1  0.2505412E-009  0.4778727E+02  0.7816164E-02  0.1312668E+00
        -11   -1    0    0    0    0  0.00000000000E+00  0.00000000000E+00  0.45593999997E+02  0.45594000000E+02  0.51100000000E-03 0. -1.
         11   -1    0    0    0    0 -0.00000000000E+00 -0.00000000000E+00 -0.45593999997E+02  0.45594000000E+02  0.51100000000E-03 0.  1.
    9900012    2    1    2    0    0 -0.13783051947E+01  0.56414343922E+01  0.43010435079E+02  0.47787273821E+02  0.20000012657E+02 0.  0.
        -12    1    1    2    0    0  0.13783051947E+01 -0.56414343922E+01 -0.43010435079E+02  0.43400726179E+02  0.00000000000E+00 0.  1.
         11    1    3    3    0    0 -0.33918455527E+01 -0.32014323205E+01  0.45347272488E+01  0.65051930516E+01  0.51100000000E-03 0. -1.
        -11    1    3    3    0    0  0.57020041155E+01  0.69962613420E+01  0.15477196547E+02  0.17916588317E+02  0.51100000000E-03 0.  1.
         12    1    3    3    0    0 -0.36884637575E+01  0.18466053707E+01  0.22998511284E+02  0.23365492452E+02  0.00000000000E+00 0. -1.
</event>
<event>
 7    1  0.2505412E-009  0.4778727E+02  0.7816164E-02  0.1312668E+00
        -11   -1    0    0    0    0  0.00000000000E+00  0.00000000000E+00  0.45593999997E+02  0.45594000000E+02  0.51100000000E-03 0. -1.
         11   -1    0    0    0    0 -0.00000000000E+00 -0.00000000000E+00 -0.45593999997E+02  0.45594000000E+02  0.51100000000E-03 0.  1.
    9900012    2    1    2    0    0  0.36878709961E+02 -0.22686333041E+02 -0.29856956695E+01  0.47787270354E+02  0.19999996851E+02 0.  0.
        -12    1    1    2    0    0 -0.36878709961E+02  0.22686333041E+02  0.29856956695E+01  0.43400729646E+02  0.00000000000E+00 0.  1.
         11    1    3    3    0    0  0.18802692262E+02 -0.89142672375E+01 -0.15704180618E+01  0.20867956532E+02  0.51100000000E-03 0. -1.
        -11    1    3    3    0    0  0.23332957862E+01 -0.43042328443E+01 -0.62346086424E+01  0.79272337413E+01  0.51100000000E-03 0.  1.
        -12    1    3    3    0    0  0.15742721912E+02 -0.94678329589E+01  0.48193310347E+01  0.18992080080E+02  0.00000000000E+00 0.  1.
</event>
<event>
 7    1  0.2505412E-009  0.4778727E+02  0.7816164E-02  0.1312668E+00
        -11   -1    0    0    0    0  0.00000000000E+00  0.00000000000E+00  0.45593999997E+02  0.45594000000E+02  0.51100000000E-03 0.  1.
         11   -1    0    0    0    0 -0.00000000000E+00 -0.00000000000E+00 -0.45593999997E+02  0.45594000000E+02  0.51100000000E-03 0. -1.
    9900012    2    1    2    0    0  0.24485537507E+02  0.16070114124E+02 -0.32028632594E+02  0.47787269352E+02  0.19999992282E+02 0.  0.
        -12    1    1    2    0    0 -0.24485537507E+02 -0.16070114124E+02  0.32028632594E+02  0.43400730648E+02  0.00000000000E+00 0.  1.
         11    1    3    3    0    0  0.10543289724E+02  0.99299776060E+01 -0.14769441714E+02  0.20685787930E+02  0.51100000000E-03 0. -1.
        -11    1    3    3    0    0  0.14973250283E+02  0.85979611174E+00 -0.98432381396E+01  0.17939532066E+02  0.51100000000E-03 0.  1.
         12    1    3    3    0    0 -0.10310025003E+01  0.52803404061E+01 -0.74159527404E+01  0.91619493563E+01  0.00000000000E+00 0. -1.
</event>
<event>
 7    1  0.2505412E-009  0.4778727E+02  0.7816164E-02  0.1312668E+00
        -11   -1    0    0    0    0  0.00000000000E+00  0.00000000000E+00  0.45593999997E+02  0.45594000000E+02  0.51100000000E-03 0. -1.
         11   -1    0    0    0    0 -0.00000000000E+00 -0.00000000000E+00 -0.45593999997E+02  0.45594000000E+02  0.51100000000E-03 0.  1.
    9900012    2    1    2    0    0  0.31728636389E+02  0.24933550797E+02  0.15976066899E+02  0.47787273784E+02  0.20000012492E+02 0.  0.
        -12    1    1    2    0    0 -0.31728636389E+02 -0.24933550797E+02 -0.15976066899E+02  0.43400726216E+02  0.00000000000E+00 0.  1.
         11    1    3    3    0    0  0.51989140230E+01  0.10400240902E+02  0.93875117706E+01  0.14943864806E+02  0.51100000000E-03 0. -1.
        -11    1    3    3    0    0  0.17340406120E+02  0.15028916150E+02  0.41006455358E+01  0.23310368919E+02  0.51100000000E-03 0.  1.
         12    1    3    3    0    0  0.91893162460E+01 -0.49560625502E+00  0.24879095928E+01  0.95330400593E+01  0.00000000000E+00 0. -1.
</event>
<event>
 7    1  0.2505412E-009  0.4778727E+02  0.7816164E-02  0.1312668E+00
        -11   -1    0    0    0    0  0.00000000000E+00  0.00000000000E+00  0.45593999997E+02  0.45594000000E+02  0.51100000000E-03 0.  1.
         11   -1    0    0    0    0 -0.00000000000E+00 -0.00000000000E+00 -0.45593999997E+02  0.45594000000E+02  0.51100000000E-03 0. -1.
    9900012    2    1    2    0    0  0.35036439523E+02 -0.18885917220E+02 -0.17302982363E+02  0.47787272329E+02  0.20000005857E+02 0.  0.
        -12    1    1    2    0    0 -0.35036439523E+02  0.18885917220E+02  0.17302982363E+02  0.43400727671E+02  0.00000000000E+00 0.  1.
         11    1    3    3    0    0  0.21807222877E+02 -0.51495374222E+01 -0.70700957922E+01  0.23495934969E+02  0.51100000000E-03 0. -1.
        -11    1    3    3    0    0  0.13809636614E+02 -0.14233273231E+02 -0.70962384364E+01  0.21062970600E+02  0.51100000000E-03 0.  1.
        -12    1    3    3    0    0 -0.58041996845E+00  0.49689343253E+00 -0.31366481344E+01  0.32283667608E+01  0.00000000000E+00 0.  1.
</event>
<event>
 7    1  0.2505412E-009  0.4778727E+02  0.7816164E-02  0.1312668E+00
        -11   -1    0    0    0    0  0.00000000000E+00  0.00000000000E+00  0.45593999997E+02  0.45594000000E+02  0.51100000000E-03 0.  1.
         11   -1    0    0    0    0 -0.00000000000E+00 -0.00000000000E+00 -0.45593999997E+02  0.45594000000E+02  0.51100000000E-03 0. -1.
    9900012    2    1    2    0    0 -0.15343306209E+02  0.37024556166E+02  0.16654978126E+02  0.47787273035E+02  0.20000009074E+02 0.  0.
        -12    1    1    2    0    0  0.15343306209E+02 -0.37024556166E+02 -0.16654978126E+02  0.43400726965E+02  0.00000000000E+00 0.  1.
         11    1    3    3    0    0 -0.60700325389E+01  0.11565617612E+02 -0.14594650614E+01  0.13143015039E+02  0.51100000000E-03 0. -1.
        -11    1    3    3    0    0 -0.25073423157E+01 -0.59703910254E+00  0.11317926344E+01  0.28149912977E+01  0.51100000000E-03 0.  1.
        -12    1    3    3    0    0 -0.67659313549E+01  0.26055977657E+02  0.16982650553E+02  0.31829266698E+02  0.00000000000E+00 0.  1.
</event>
<event>
 7    1  0.2505412E-009  0.4778727E+02  0.7816164E-02  0.1312668E+00
        -11   -1    0    0    0    0  0.00000000000E+00  0.00000000000E+00  0.45593999997E+02  0.45594000000E+02  0.51100000000E-03 0. -1.
         11   -1    0    0    0    0 -0.00000000000E+00 -0.00000000000E+00 -0.45593999997E+02  0.45594000000E+02  0.51100000000E-03 0.  1.
    9900012    2    1    2    0    0 -0.32939109945E+02  0.87414766443E+01  0.26874245616E+02  0.47787268954E+02  0.19999990470E+02 0.  0.
        -12    1    1    2    0    0  0.32939109945E+02 -0.87414766443E+01 -0.26874245616E+02  0.43400731046E+02  0.00000000000E+00 0.  1.
         11    1    3    3    0    0 -0.88998397428E+00 -0.69434885503E+00  0.65419589148E+01  0.66386307708E+01  0.51100000000E-03 0. -1.
        -11    1    3    3    0    0 -0.15404240382E+01  0.28296506225E+01 -0.96100133930E+00  0.33620459096E+01  0.51100000000E-03 0.  1.
         12    1    3    3    0    0 -0.30508701933E+02  0.66061748768E+01  0.21293288040E+02  0.37786592274E+02  0.00000000000E+00 0. -1.
</event>
<event>
 7    1  0.2505412E-009  0.4778727E+02  0.7816164E-02  0.1312668E+00
        -11   -1    0    0    0    0  0.00000000000E+00  0.00000000000E+00  0.45593999997E+02  0.45594000000E+02  0.51100000000E-03 0.  1.
         11   -1    0    0    0    0 -0.00000000000E+00 -0.00000000000E+00 -0.45593999997E+02  0.45594000000E+02  0.51100000000E-03 0. -1.
    9900012    2    1    2    0    0  0.11278015930E+02 -0.41157073616E+02 -0.79072781211E+01  0.47787269600E+02  0.19999993416E+02 0.  0.
        -12    1    1    2    0    0 -0.11278015930E+02  0.41157073616E+02  0.79072781211E+01  0.43400730400E+02  0.00000000000E+00 0.  1.
         11    1    3    3    0    0  0.34902082642E+01 -0.34624493890E+02 -0.18093513278E+01  0.34846963761E+02  0.51100000000E-03 0. -1.
        -11    1    3    3    0    0  0.10743117536E+01 -0.13470240802E+01 -0.37678924837E+01  0.41431429672E+01  0.51100000000E-03 0.  1.
        -12    1    3    3    0    0  0.67134959123E+01 -0.51855556453E+01 -0.23300343097E+01  0.87971628722E+01  0.00000000000E+00 0.  1.
</event>
<event>
 7    1  0.2505412E-009  0.4778727E+02  0.7816164E-02  0.1312668E+00
        -11   -1    0    0    0    0  0.00000000000E+00  0.00000000000E+00  0.45593999997E+02  0.45594000000E+02  0.51100000000E-03 0. -1.
         11   -1    0    0    0    0 -0.00000000000E+00 -0.00000000000E+00 -0.45593999997E+02  0.45594000000E+02  0.51100000000E-03 0.  1.
    9900012    2    1    2    0    0 -0.17718324848E+02  0.22601222391E+02  0.32540264883E+02  0.47787272729E+02  0.20000007682E+02 0.  0.
        -12    1    1    2    0    0  0.17718324848E+02 -0.22601222391E+02 -0.32540264883E+02  0.43400727271E+02  0.00000000000E+00 0.  1.
         11    1    3    3    0    0 -0.88928533260E+01  0.12089440013E+02  0.94000696025E+01  0.17708718443E+02  0.51100000000E-03 0. -1.
        -11    1    3    3    0    0  0.24573208894E+01  0.66938238058E+01  0.10673597565E+02  0.12836330797E+02  0.51100000000E-03 0.  1.
         12    1    3    3    0    0 -0.11282792412E+02  0.38179585727E+01  0.12466597715E+02  0.17242223489E+02  0.00000000000E+00 0. -1.
</event>
<event>
 7    1  0.2505412E-009  0.4778727E+02  0.7816164E-02  0.1312668E+00
        -11   -1    0    0    0    0  0.00000000000E+00  0.00000000000E+00  0.45593999997E+02  0.45594000000E+02  0.51100000000E-03 0. -1.
         11   -1    0    0    0    0 -0.00000000000E+00 -0.00000000000E+00 -0.45593999997E+02  0.45594000000E+02  0.51100000000E-03 0.  1.
    9900012    2    1    2    0    0 -0.21841080064E+02  0.11290305115E+02  0.35764786906E+02  0.47787265554E+02  0.19999974968E+02 0.  0.
        -12    1    1    2    0    0  0.21841080064E+02 -0.11290305115E+02 -0.35764786906E+02  0.43400734446E+02  0.00000000000E+00 0.  1.
         11    1    3    3    0    0 -0.19958276192E+02  0.15871697165E+02  0.24709553925E+02  0.35507824699E+02  0.51100000000E-03 0. -1.
        -11    1    3    3    0    0 -0.12262143519E+01 -0.18207419694E+01  0.69537892861E+01  0.72920428312E+01  0.51100000000E-03 0.  1.
         12    1    3    3    0    0 -0.65658952065E+00 -0.27606500799E+01  0.41014436955E+01  0.49873980240E+01  0.00000000000E+00 0. -1.
</event>
<event>
 7    1  0.2505412E-009  0.4778727E+02  0.7816164E-02  0.1312668E+00
        -11   -1    0    0    0    0  0.00000000000E+00  0.00000000000E+00  0.45593999997E+02  0.45594000000E+02  0.51100000000E-03 0.  1.
         11   -1    0    0    0    0 -0.00000000000E+00 -0.00000000000E+00 -0.45593999997E+02  0.45594000000E+02  0.51100000000E-03 0. -1.
    9900012    2    1    2    0    0 -0.33868472509E+02 -0.13064045040E+02 -0.23788246691E+02  0.47787269781E+02  0.19999994240E+02 0.  0.
        -12    1    1    2    0    0  0.33868472509E+02  0.13064045040E+02  0.23788246691E+02  0.43400730219E+02  0.00000000000E+00 0.  1.
         11    1    3    3    0    0 -0.17659491217E+02 -0.10747295642E+01 -0.15745891766E+02  0.23684293982E+02  0.51100000000E-03 0. -1.
        -11    1    3    3    0    0 -0.83998531474E+01 -0.16429025752E+01  0.50839667146E+00  0.85740964076E+01  0.51100000000E-03 0.  1.
        -12    1    3    3    0    0 -0.78091281451E+01 -0.10346412900E+02 -0.85507515964E+01  0.15528879391E+02  0.00000000000E+00 0.  1.
</event>
<event>
 7    1  0.2505412E-009  0.4778727E+02  0.7816164E-02  0.1312668E+00
        -11   -1    0    0    0    0  0.00000000000E+00  0.00000000000E+00  0.45593999997E+02  0.45594000000E+02  0.51100000000E-03 0.  1.
         11   -1    0    0    0    0 -0.00000000000E+00 -0.00000000000E+00 -0.45593999997E+02  0.45594000000E+02  0.51100000000E-03 0. -1.
    9900012    2    1    2    0    0  0.10133889449E+02  0.19415539565E+02 -0.37469510044E+02  0.47787273337E+02  0.20000010452E+02 0.  0.
        -12    1    1    2    0    0 -0.10133889449E+02 -0.19415539565E+02  0.37469510044E+02  0.43400726663E+02  0.00000000000E+00 0.  1.
         11    1    3    3    0    0 -0.86776842181E+00  0.21134375405E+01 -0.15832915385E+02  0.15996901266E+02  0.51100000000E-03 0. -1.
        -11    1    3    3    0    0  0.24297269139E+01  0.44080914938E+01  0.18148213783E+00  0.50366436763E+01  0.51100000000E-03 0.  1.
        -12    1    3    3    0    0  0.85719309566E+01  0.12894010530E+02 -0.21818076797E+02  0.26753728394E+02  0.00000000000E+00 0.  1.
</event>
<event>
 7    1  0.2533915E-009  0.4778727E+02  0.7816164E-02  0.1312668E+00
        -11   -1    0    0    0    0  0.00000000000E+00  0.00000000000E+00  0.45593999997E+02  0.45594000000E+02  0.51100000000E-03 0. -1.
         11   -1    0    0    0    0 -0.00000000000E+00 -0.00000000000E+00 -0.45593999997E+02  0.45594000000E+02  0.51100000000E-03 0.  1.
    9900012    2    1    2    0    0  0.24343192427E+02  0.32541383697E+02  0.15234518036E+02  0.47787271778E+02  0.20000003343E+02 0.  0.
        -12    1    1    2    0    0 -0.24343192427E+02 -0.32541383697E+02 -0.15234518036E+02  0.43400728222E+02  0.00000000000E+00 0.  1.
         11    1    3    3    0    0  0.81224163969E+01  0.85919403201E+01  0.11059466159E+01  0.11875108621E+02  0.51100000000E-03 0.  1.
        -11    1    3    3    0    0  0.99904170277E+01  0.16449504015E+02  0.17073003770E+02  0.25727068872E+02  0.51100000000E-03 0. -1.
        -12    1    3    3    0    0  0.62303590020E+01  0.74999393618E+01 -0.29444323498E+01  0.10185094285E+02  0.00000000000E+00 0.  1.
</event>
<event>
 7    1  0.2505412E-009  0.4778727E+02  0.7816164E-02  0.1312668E+00
        -11   -1    0    0    0    0  0.00000000000E+00  0.00000000000E+00  0.45593999997E+02  0.45594000000E+02  0.51100000000E-03 0.  1.
         11   -1    0    0    0    0 -0.00000000000E+00 -0.00000000000E+00 -0.45593999997E+02  0.45594000000E+02  0.51100000000E-03 0. -1.
    9900012    2    1    2    0    0  0.34107649998E+02  0.22677757721E+02 -0.14353075935E+02  0.47787271061E+02  0.20000000075E+02 0.  0.
        -12    1    1    2    0    0 -0.34107649998E+02 -0.22677757721E+02  0.14353075935E+02  0.43400728939E+02  0.00000000000E+00 0.  1.
         11    1    3    3    0    0  0.11161139538E+01  0.10013041853E+01 -0.40020445803E+01  0.42737198683E+01  0.51100000000E-03 0. -1.
        -11    1    3    3    0    0  0.17806594691E+02  0.63803503205E+01  0.13962247340E+01  0.18966631975E+02  0.51100000000E-03 0.  1.
         12    1    3    3    0    0  0.15184941354E+02  0.15296103215E+02 -0.11747256089E+02  0.24546919218E+02  0.00000000000E+00 0. -1.
</event>
<event>
 7    1  0.2505412E-009  0.4778727E+02  0.7816164E-02  0.1312668E+00
        -11   -1    0    0    0    0  0.00000000000E+00  0.00000000000E+00  0.45593999997E+02  0.45594000000E+02  0.51100000000E-03 0.  1.
         11   -1    0    0    0    0 -0.00000000000E+00 -0.00000000000E+00 -0.45593999997E+02  0.45594000000E+02  0.51100000000E-03 0. -1.
    9900012    2    1    2    0    0  0.29495318131E+02 -0.22220035746E+02 -0.22801742148E+02  0.47787271605E+02  0.20000002555E+02 0.  0.
        -12    1    1    2    0    0 -0.29495318131E+02  0.22220035746E+02  0.22801742148E+02  0.43400728395E+02  0.00000000000E+00 0.  1.
         11    1    3    3    0    0  0.21209337725E+02 -0.12526108498E+02 -0.11417383926E+02  0.27149513012E+02  0.51100000000E-03 0. -1.
        -11    1    3    3    0    0  0.65391749861E+01 -0.95344573734E+00 -0.94262128059E+01  0.11511878926E+02  0.51100000000E-03 0.  1.
        -12    1    3    3    0    0  0.17468054200E+01 -0.87404815113E+01 -0.19581454165E+01  0.91258796670E+01  0.00000000000E+00 0.  1.
</event>
<event>
 7    1  0.2505412E-009  0.4778727E+02  0.7816164E-02  0.1312668E+00
        -11   -1    0    0    0    0  0.00000000000E+00  0.00000000000E+00  0.45593999997E+02  0.45594000000E+02  0.51100000000E-03 0.  1.
         11   -1    0    0    0    0 -0.00000000000E+00 -0.00000000000E+00 -0.45593999997E+02  0.45594000000E+02  0.51100000000E-03 0. -1.
    9900012    2    1    2    0    0  0.19217585656E+02 -0.21774386846E+02 -0.32251880467E+02  0.47787270575E+02  0.19999997861E+02 0.  0.
        -12    1    1    2    0    0 -0.19217585656E+02  0.21774386846E+02  0.32251880467E+02  0.43400729425E+02  0.00000000000E+00 0.  1.
         11    1    3    3    0    0 -0.40841691201E+00 -0.15656497435E+01  0.17649933212E+01  0.23944237675E+01  0.51100000000E-03 0. -1.
        -11    1    3    3    0    0  0.11659417197E+02 -0.13972860759E+02 -0.13985508188E+02  0.22951629282E+02  0.51100000000E-03 0.  1.
         12    1    3    3    0    0  0.79665853713E+01 -0.62358763428E+01 -0.20031365600E+02  0.22441217526E+02  0.00000000000E+00 0. -1.
</event>
<event>
 7    1  0.2505412E-009  0.4778727E+02  0.7816164E-02  0.1312668E+00
        -11   -1    0    0    0    0  0.00000000000E+00  0.00000000000E+00  0.45593999997E+02  0.45594000000E+02  0.51100000000E-03 0.  1.
         11   -1    0    0    0    0 -0.00000000000E+00 -0.00000000000E+00 -0.45593999997E+02  0.45594000000E+02  0.51100000000E-03 0. -1.
    9900012    2    1    2    0    0  0.22664891533E+02 -0.35711100645E+02 -0.97284728857E+01  0.47787271871E+02  0.20000003767E+02 0.  0.
        -12    1    1    2    0    0 -0.22664891533E+02  0.35711100645E+02  0.97284728857E+01  0.43400728129E+02  0.00000000000E+00 0.  1.
         11    1    3    3    0    0  0.15210162655E+02 -0.24840705341E+02  0.24781265113E+01  0.29232700886E+02  0.51100000000E-03 0. -1.
        -11    1    3    3    0    0 -0.31556311765E+00 -0.23455132920E+01 -0.28321513374E+01  0.36908121251E+01  0.51100000000E-03 0.  1.
         12    1    3    3    0    0  0.77702919953E+01 -0.85248820120E+01 -0.93744480596E+01  0.14863758859E+02  0.00000000000E+00 0. -1.
</event>
<event>
 7    1  0.2505412E-009  0.4778727E+02  0.7816164E-02  0.1312668E+00
        -11   -1    0    0    0    0  0.00000000000E+00  0.00000000000E+00  0.45593999997E+02  0.45594000000E+02  0.51100000000E-03 0.  1.
         11   -1    0    0    0    0 -0.00000000000E+00 -0.00000000000E+00 -0.45593999997E+02  0.45594000000E+02  0.51100000000E-03 0. -1.
    9900012    2    1    2    0    0  0.18130353387E+02  0.18607474797E+02 -0.34766009936E+02  0.47787270984E+02  0.19999999726E+02 0.  0.
        -12    1    1    2    0    0 -0.18130353387E+02 -0.18607474797E+02  0.34766009936E+02  0.43400729016E+02  0.00000000000E+00 0.  1.
         11    1    3    3    0    0 -0.69938822992E+00  0.78108207000E+01 -0.53786425223E+01  0.95093564213E+01  0.51100000000E-03 0. -1.
        -11    1    3    3    0    0 -0.11774194088E+01  0.43718168596E+00 -0.10223032977E-01  0.12560052000E+01  0.51100000000E-03 0.  1.
         12    1    3    3    0    0  0.20007161025E+02  0.10359472411E+02 -0.29377144380E+02  0.37021909363E+02  0.00000000000E+00 0. -1.
</event>
<event>
 7    1  0.2505412E-009  0.4778732E+02  0.7816164E-02  0.1312668E+00
        -11   -1    0    0    0    0  0.00000000000E+00  0.00000000000E+00  0.45593999997E+02  0.45594000000E+02  0.51100000000E-03 0.  1.
         11   -1    0    0    0    0 -0.00000000000E+00 -0.00000000000E+00 -0.45593999997E+02  0.45594000000E+02  0.51100000000E-03 0. -1.
    9900012    2    1    2    0    0  0.28575099567E+02  0.30565736446E+02 -0.11524692470E+02  0.47787319173E+02  0.20000219435E+02 0.  0.
        -12    1    1    2    0    0 -0.28575099567E+02 -0.30565736446E+02  0.11524692470E+02  0.43400680827E+02  0.00000000000E+00 0.  1.
         11    1    3    3    0    0  0.10853346520E+02  0.58455291768E+01 -0.18991964006E+01  0.12472862112E+02  0.51100000000E-03 0. -1.
        -11    1    3    3    0    0 -0.76032947532E+00  0.95209292201E+01 -0.79777927926E-01  0.95515736350E+01  0.51100000000E-03 0.  1.
         12    1    3    3    0    0  0.18482082522E+02  0.15199278049E+02 -0.95457181415E+01  0.25762883426E+02  0.00000000000E+00 0. -1.
</event>
<event>
 7    1  0.2505412E-009  0.4778727E+02  0.7816164E-02  0.1312668E+00
        -11   -1    0    0    0    0  0.00000000000E+00  0.00000000000E+00  0.45593999997E+02  0.45594000000E+02  0.51100000000E-03 0. -1.
         11   -1    0    0    0    0 -0.00000000000E+00 -0.00000000000E+00 -0.45593999997E+02  0.45594000000E+02  0.51100000000E-03 0.  1.
    9900012    2    1    2    0    0  0.12594181538E+02 -0.42456573282E+01  0.41315667974E+02  0.47787269190E+02  0.19999991544E+02 0.  0.
        -12    1    1    2    0    0 -0.12594181538E+02  0.42456573282E+01 -0.41315667974E+02  0.43400730810E+02  0.00000000000E+00 0.  1.
         11    1    3    3    0    0 -0.29720389846E+01 -0.33986033848E+01  0.91471193323E+01  0.10200652579E+02  0.51100000000E-03 0. -1.
        -11    1    3    3    0    0  0.89935288633E+01  0.31267289168E+01  0.26147884015E+02  0.27827537330E+02  0.51100000000E-03 0.  1.
         12    1    3    3    0    0  0.65726916592E+01 -0.39737828602E+01  0.60206646264E+01  0.97590792809E+01  0.00000000000E+00 0. -1.
</event>
<event>
 7    1  0.2505412E-009  0.4778727E+02  0.7816164E-02  0.1312668E+00
        -11   -1    0    0    0    0  0.00000000000E+00  0.00000000000E+00  0.45593999997E+02  0.45594000000E+02  0.51100000000E-03 0. -1.
         11   -1    0    0    0    0 -0.00000000000E+00 -0.00000000000E+00 -0.45593999997E+02  0.45594000000E+02  0.51100000000E-03 0.  1.
    9900012    2    1    2    0    0  0.37477533234E+02 -0.12979110027E+02  0.17623856474E+02  0.47787272916E+02  0.20000008532E+02 0.  0.
        -12    1    1    2    0    0 -0.37477533234E+02  0.12979110027E+02 -0.17623856474E+02  0.43400727084E+02  0.00000000000E+00 0.  1.
         11    1    3    3    0    0  0.13886227984E+01  0.14744196889E+00 -0.78751423185E+00  0.16031816294E+01  0.51100000000E-03 0. -1.
        -11    1    3    3    0    0  0.14782535768E+02 -0.12421527890E+02  0.22636485344E+01  0.19440725907E+02  0.51100000000E-03 0.  1.
         12    1    3    3    0    0  0.21306374668E+02 -0.70502410606E+00  0.16147722172E+02  0.26743365379E+02  0.00000000000E+00 0. -1.
</event>
<event>
 7    1  0.2505412E-009  0.4778727E+02  0.7816164E-02  0.1312668E+00
        -11   -1    0    0    0    0  0.00000000000E+00  0.00000000000E+00  0.45593999997E+02  0.45594000000E+02  0.51100000000E-03 0. -1.
         11   -1    0    0    0    0 -0.00000000000E+00 -0.00000000000E+00 -0.45593999997E+02  0.45594000000E+02  0.51100000000E-03 0.  1.
    9900012    2    1    2    0    0  0.30513903304E+02  0.22000397771E+02  0.21645029025E+02  0.47787273296E+02  0.20000010266E+02 0.  0.
        -12    1    1    2    0    0 -0.30513903304E+02 -0.22000397771E+02 -0.21645029025E+02  0.43400726704E+02  0.00000000000E+00 0.  1.
         11    1    3    3    0    0  0.11328022932E+02  0.15411340631E+02  0.17739172809E+02  0.26086620629E+02  0.51100000000E-03 0. -1.
        -11    1    3    3    0    0  0.90793124856E+01  0.89331285307E+00  0.43155688642E+01  0.10092376229E+02  0.51100000000E-03 0.  1.
        -12    1    3    3    0    0  0.10106567886E+02  0.56957442868E+01 -0.40971264827E+00  0.11608276438E+02  0.00000000000E+00 0.  1.
</event>
<event>
 7    1  0.2505412E-009  0.4778727E+02  0.7816164E-02  0.1312668E+00
        -11   -1    0    0    0    0  0.00000000000E+00  0.00000000000E+00  0.45593999997E+02  0.45594000000E+02  0.51100000000E-03 0. -1.
         11   -1    0    0    0    0 -0.00000000000E+00 -0.00000000000E+00 -0.45593999997E+02  0.45594000000E+02  0.51100000000E-03 0.  1.
    9900012    2    1    2    0    0 -0.41307707281E+01  0.19097532137E+01  0.43161471579E+02  0.47787273589E+02  0.20000011603E+02 0.  0.
        -12    1    1    2    0    0  0.41307707281E+01 -0.19097532137E+01 -0.43161471579E+02  0.43400726411E+02  0.00000000000E+00 0.  1.
         11    1    3    3    0    0 -0.86972740939E+00  0.21915980799E+01  0.29710254333E+02  0.29803669920E+02  0.51100000000E-03 0. -1.
        -11    1    3    3    0    0 -0.31299974199E+00  0.54340458096E+01  0.52604465479E+01  0.75696182760E+01  0.51100000000E-03 0.  1.
         12    1    3    3    0    0 -0.29480435767E+01 -0.57158906759E+01  0.81907706979E+01  0.10413985393E+02  0.00000000000E+00 0. -1.
</event>
<event>
 7    1  0.2505412E-009  0.4778727E+02  0.7816164E-02  0.1312668E+00
        -11   -1    0    0    0    0  0.00000000000E+00  0.00000000000E+00  0.45593999997E+02  0.45594000000E+02  0.51100000000E-03 0. -1.
         11   -1    0    0    0    0 -0.00000000000E+00 -0.00000000000E+00 -0.45593999997E+02  0.45594000000E+02  0.51100000000E-03 0.  1.
    9900012    2    1    2    0    0  0.24709948623E+02  0.32035458569E+02  0.15708939735E+02  0.47787274726E+02  0.20000016787E+02 0.  0.
        -12    1    1    2    0    0 -0.24709948623E+02 -0.32035458569E+02 -0.15708939735E+02  0.43400725274E+02  0.00000000000E+00 0.  1.
         11    1    3    3    0    0  0.15995685595E+02  0.29354394003E+02  0.11823274763E+02  0.35458880853E+02  0.51100000000E-03 0. -1.
        -11    1    3    3    0    0  0.27524859058E+01  0.14788676078E+01  0.52369822432E+01  0.60982957734E+01  0.51100000000E-03 0.  1.
        -12    1    3    3    0    0  0.59617771213E+01  0.12021969585E+01 -0.13513172708E+01  0.62300981001E+01  0.00000000000E+00 0.  1.
</event>
<event>
 7    1  0.2505412E-009  0.4778727E+02  0.7816164E-02  0.1312668E+00
        -11   -1    0    0    0    0  0.00000000000E+00  0.00000000000E+00  0.45593999997E+02  0.45594000000E+02  0.51100000000E-03 0. -1.
         11   -1    0    0    0    0 -0.00000000000E+00 -0.00000000000E+00 -0.45593999997E+02  0.45594000000E+02  0.51100000000E-03 0.  1.
    9900012    2    1    2    0    0  0.28394863824E+02 -0.29922191127E+02 -0.13491386392E+02  0.47787270511E+02  0.19999997567E+02 0.  0.
        -12    1    1    2    0    0 -0.28394863824E+02  0.29922191127E+02  0.13491386392E+02  0.43400729489E+02  0.00000000000E+00 0.  1.
         11    1    3    3    0    0  0.10817609298E+02 -0.49232636028E+01  0.11995110024E+01  0.11945627749E+02  0.51100000000E-03 0. -1.
        -11    1    3    3    0    0  0.12779688094E+02 -0.20122389474E+02 -0.56389269581E+01  0.24495478837E+02  0.51100000000E-03 0.  1.
         12    1    3    3    0    0  0.47975664320E+01 -0.48765380498E+01 -0.90519704366E+01  0.11346163925E+02  0.00000000000E+00 0. -1.
</event>
<event>
 7    1  0.2505412E-009  0.4778727E+02  0.7816164E-02  0.1312668E+00
        -11   -1    0    0    0    0  0.00000000000E+00  0.00000000000E+00  0.45593999997E+02  0.45594000000E+02  0.51100000000E-03 0.  1.
         11   -1    0    0    0    0 -0.00000000000E+00 -0.00000000000E+00 -0.45593999997E+02  0.45594000000E+02  0.51100000000E-03 0. -1.
    9900012    2    1    2    0    0  0.87415359101E+00  0.35448863356E+02 -0.25024737672E+02  0.47787267826E+02  0.19999985324E+02 0.  0.
        -12    1    1    2    0    0 -0.87415359101E+00 -0.35448863356E+02  0.25024737672E+02  0.43400732174E+02  0.00000000000E+00 0.  1.
         11    1    3    3    0    0 -0.27903444133E+01  0.13956839504E+02 -0.15541532037E+02  0.21074121790E+02  0.51100000000E-03 0. -1.
        -11    1    3    3    0    0  0.13862643145E+01 -0.13264787240E+01 -0.57197972213E-01  0.19195172373E+01  0.51100000000E-03 0.  1.
        -12    1    3    3    0    0  0.22782336898E+01  0.22818502575E+02 -0.94260076629E+01  0.24793628798E+02  0.00000000000E+00 0.  1.
</event>
<event>
 7    1  0.2505412E-009  0.4778727E+02  0.7816164E-02  0.1312668E+00
        -11   -1    0    0    0    0  0.00000000000E+00  0.00000000000E+00  0.45593999997E+02  0.45594000000E+02  0.51100000000E-03 0.  1.
         11   -1    0    0    0    0 -0.00000000000E+00 -0.00000000000E+00 -0.45593999997E+02  0.45594000000E+02  0.51100000000E-03 0. -1.
    9900012    2    1    2    0    0  0.15715347385E+02  0.87268945870E+01 -0.39503069375E+02  0.47787270483E+02  0.19999997440E+02 0.  0.
        -12    1    1    2    0    0 -0.15715347385E+02 -0.87268945870E+01  0.39503069375E+02  0.43400729517E+02  0.00000000000E+00 0.  1.
         11    1    3    3    0    0  0.61516177940E+01  0.50049122047E+01 -0.79084626350E+01  0.11199791479E+02  0.51100000000E-03 0. -1.
        -11    1    3    3    0    0 -0.12865076634E+01 -0.42411529678E+01 -0.44027272536E+01  0.62471183753E+01  0.51100000000E-03 0.  1.
        -12    1    3    3    0    0  0.10850237254E+02  0.79631353500E+01 -0.27191879487E+02  0.30340360629E+02  0.00000000000E+00 0.  1.
</event>
<event>
 7    1  0.2505412E-009  0.4778727E+02  0.7816164E-02  0.1312668E+00
        -11   -1    0    0    0    0  0.00000000000E+00  0.00000000000E+00  0.45593999997E+02  0.45594000000E+02  0.51100000000E-03 0.  1.
         11   -1    0    0    0    0 -0.00000000000E+00 -0.00000000000E+00 -0.45593999997E+02  0.45594000000E+02  0.51100000000E-03 0. -1.
    9900012    2    1    2    0    0 -0.38010078713E+02 -0.69255540184E+01 -0.19771033532E+02  0.47787272481E+02  0.20000006550E+02 0.  0.
        -12    1    1    2    0    0  0.38010078713E+02  0.69255540184E+01  0.19771033532E+02  0.43400727519E+02  0.00000000000E+00 0.  1.
         11    1    3    3    0    0 -0.28015315849E+02  0.24311981660E+01 -0.80846089829E+01  0.29259691545E+02  0.51100000000E-03 0. -1.
        -11    1    3    3    0    0 -0.34712234904E+01 -0.62405868118E+01 -0.55309627937E+01  0.90324894665E+01  0.51100000000E-03 0.  1.
        -12    1    3    3    0    0 -0.65235393739E+01 -0.31161653725E+01 -0.61554617555E+01  0.94950914695E+01  0.00000000000E+00 0.  1.
</event>
<event>
 7    1  0.2727963E-009  0.4778727E+02  0.7816164E-02  0.1312668E+00
        -11   -1    0    0    0    0  0.00000000000E+00  0.00000000000E+00  0.45593999997E+02  0.45594000000E+02  0.51100000000E-03 0. -1.
         11   -1    0    0    0    0 -0.00000000000E+00 -0.00000000000E+00 -0.45593999997E+02  0.45594000000E+02  0.51100000000E-03 0.  1.
    9900012    2    1    2    0    0  0.35510860300E+01  0.25678924294E+02  0.34808127566E+02  0.47787272937E+02  0.20000008630E+02 0.  0.
        -12    1    1    2    0    0 -0.35510860300E+01 -0.25678924294E+02 -0.34808127566E+02  0.43400727063E+02  0.00000000000E+00 0.  1.
         11    1    3    3    0    0 -0.33801424984E+01  0.63395907536E+01  0.98218281938E+01  0.12168980383E+02  0.51100000000E-03 0. -1.
        -11    1    3    3    0    0  0.73107522696E+01  0.38099382656E+01  0.15103690421E+02  0.17207097167E+02  0.51100000000E-03 0.  1.
        -12    1    3    3    0    0 -0.37952374117E+00  0.15529395275E+02  0.98826089520E+01  0.18411195387E+02  0.00000000000E+00 0.  1.
</event>
<event>
 7    1  0.2505412E-009  0.4778728E+02  0.7816164E-02  0.1312668E+00
        -11   -1    0    0    0    0  0.00000000000E+00  0.00000000000E+00  0.45593999997E+02  0.45594000000E+02  0.51100000000E-03 0. -1.
         11   -1    0    0    0    0 -0.00000000000E+00 -0.00000000000E+00 -0.45593999997E+02  0.45594000000E+02  0.51100000000E-03 0.  1.
    9900012    2    1    2    0    0  0.27476227731E+02 -0.27645266903E+02  0.19089752008E+02  0.47787279911E+02  0.20000040427E+02 0.  0.
        -12    1    1    2    0    0 -0.27476227731E+02  0.27645266903E+02 -0.19089752008E+02  0.43400720089E+02  0.00000000000E+00 0.  1.
         11    1    3    3    0    0  0.74694452613E+01 -0.17961694351E+02  0.12472168299E+02  0.23107792167E+02  0.51100000000E-03 0. -1.
        -11    1    3    3    0    0  0.32886340995E+01  0.45360497556E+00  0.35991797539E+01  0.48964238865E+01  0.51100000000E-03 0.  1.
        -12    1    3    3    0    0  0.16718148371E+02 -0.10137177527E+02  0.30184039550E+01  0.19783063858E+02  0.00000000000E+00 0.  1.
</event>
<event>
 7    1  0.2505412E-009  0.4778726E+02  0.7816164E-02  0.1312668E+00
        -11   -1    0    0    0    0  0.00000000000E+00  0.00000000000E+00  0.45593999997E+02  0.45594000000E+02  0.51100000000E-03 0.  1.
         11   -1    0    0    0    0 -0.00000000000E+00 -0.00000000000E+00 -0.45593999997E+02  0.45594000000E+02  0.51100000000E-03 0. -1.
    9900012    2    1    2    0    0 -0.12509736806E+02  0.16127828505E+02 -0.38301749864E+02  0.47787257957E+02  0.19999940328E+02 0.  0.
        -12    1    1    2    0    0  0.12509736806E+02 -0.16127828505E+02  0.38301749864E+02  0.43400742043E+02  0.00000000000E+00 0.  1.
         11    1    3    3    0    0 -0.66810854338E+01  0.67890696091E+01 -0.10596196662E+02  0.14248078913E+02  0.51100000000E-03 0. -1.
        -11    1    3    3    0    0 -0.19144991426E+01  0.63408876051E+01 -0.27829952181E+02  0.28607313772E+02  0.51100000000E-03 0.  1.
         12    1    3    3    0    0 -0.39141522299E+01  0.29978712904E+01  0.12439897951E+00  0.49318652717E+01  0.00000000000E+00 0. -1.
</event>
<event>
 7    1  0.2505412E-009  0.4778727E+02  0.7816164E-02  0.1312668E+00
        -11   -1    0    0    0    0  0.00000000000E+00  0.00000000000E+00  0.45593999997E+02  0.45594000000E+02  0.51100000000E-03 0. -1.
         11   -1    0    0    0    0 -0.00000000000E+00 -0.00000000000E+00 -0.45593999997E+02  0.45594000000E+02  0.51100000000E-03 0.  1.
    9900012    2    1    2    0    0  0.41402929785E+02  0.44517653522E+00 -0.13008555195E+02  0.47787270914E+02  0.19999999403E+02 0.  0.
        -12    1    1    2    0    0 -0.41402929785E+02 -0.44517653522E+00  0.13008555195E+02  0.43400729086E+02  0.00000000000E+00 0.  1.
         11    1    3    3    0    0  0.16015709561E+02  0.30202673661E+01 -0.61218757731E+01  0.17409834317E+02  0.51100000000E-03 0. -1.
        -11    1    3    3    0    0  0.20701264639E+02 -0.18042428394E+01 -0.11505874839E+02  0.23752532622E+02  0.51100000000E-03 0.  1.
        -12    1    3    3    0    0  0.46859555854E+01 -0.77084799144E+00  0.46191954168E+01  0.66249039747E+01  0.00000000000E+00 0.  1.
</event>
<event>
 7    1  0.2505412E-009  0.4778727E+02  0.7816164E-02  0.1312668E+00
        -11   -1    0    0    0    0  0.00000000000E+00  0.00000000000E+00  0.45593999997E+02  0.45594000000E+02  0.51100000000E-03 0.  1.
         11   -1    0    0    0    0 -0.00000000000E+00 -0.00000000000E+00 -0.45593999997E+02  0.45594000000E+02  0.51100000000E-03 0. -1.
    9900012    2    1    2    0    0  0.30244893818E+02  0.31095917228E+02 -0.13833519830E+01  0.47787270363E+02  0.19999996892E+02 0.  0.
        -12    1    1    2    0    0 -0.30244893818E+02 -0.31095917228E+02  0.13833519830E+01  0.43400729637E+02  0.00000000000E+00 0.  1.
         11    1    3    3    0    0  0.18242013438E+01  0.99993024050E+01 -0.56154011881E+01  0.11612342136E+02  0.51100000000E-03 0. -1.
        -11    1    3    3    0    0  0.11117558222E+02  0.71360243291E+01  0.44530772229E+01  0.13941048779E+02  0.51100000000E-03 0.  1.
        -12    1    3    3    0    0  0.17303134252E+02  0.13960590494E+02 -0.22102801787E+00  0.22233879447E+02  0.00000000000E+00 0.  1.
</event>
<event>
 7    1  0.2505412E-009  0.4778727E+02  0.7816164E-02  0.1312668E+00
        -11   -1    0    0    0    0  0.00000000000E+00  0.00000000000E+00  0.45593999997E+02  0.45594000000E+02  0.51100000000E-03 0.  1.
         11   -1    0    0    0    0 -0.00000000000E+00 -0.00000000000E+00 -0.45593999997E+02  0.45594000000E+02  0.51100000000E-03 0. -1.
    9900012    2    1    2    0    0  0.20473339035E+02 -0.16830176635E+01 -0.38231308839E+02  0.47787272642E+02  0.20000007284E+02 0.  0.
        -12    1    1    2    0    0 -0.20473339035E+02  0.16830176635E+01  0.38231308839E+02  0.43400727358E+02  0.00000000000E+00 0.  1.
         11    1    3    3    0    0  0.92122604159E+01 -0.27856886447E+00 -0.90052511016E+01  0.12885569070E+02  0.51100000000E-03 0. -1.
        -11    1    3    3    0    0  0.59321100090E+01  0.82284392346E+00 -0.97678498758E+00  0.60680400834E+01  0.51100000000E-03 0.  1.
        -12    1    3    3    0    0  0.53289686097E+01 -0.22272927225E+01 -0.28249272750E+02  0.28833663489E+02  0.00000000000E+00 0.  1.
</event>
<event>
 7    1  0.2505412E-009  0.4778727E+02  0.7816164E-02  0.1312668E+00
        -11   -1    0    0    0    0  0.00000000000E+00  0.00000000000E+00  0.45593999997E+02  0.45594000000E+02  0.51100000000E-03 0. -1.
         11   -1    0    0    0    0 -0.00000000000E+00 -0.00000000000E+00 -0.45593999997E+02  0.45594000000E+02  0.51100000000E-03 0.  1.
    9900012    2    1    2    0    0 -0.11709001737E+02  0.34948757186E+02  0.22915211090E+02  0.47787271321E+02  0.20000001262E+02 0.  0.
        -12    1    1    2    0    0  0.11709001737E+02 -0.34948757186E+02 -0.22915211090E+02  0.43400728679E+02  0.00000000000E+00 0.  1.
         11    1    3    3    0    0 -0.61089533038E+01  0.23483828233E+02  0.16935935476E+02  0.29591137350E+02  0.51100000000E-03 0. -1.
        -11    1    3    3    0    0 -0.83345049554E+01  0.11332238851E+02  0.34845057424E+01  0.14492252784E+02  0.51100000000E-03 0.  1.
         12    1    3    3    0    0  0.27344565224E+01  0.13269010215E+00  0.24947698713E+01  0.37038811869E+01  0.00000000000E+00 0. -1.
</event>
<event>
 7    1  0.2505412E-009  0.4778729E+02  0.7816164E-02  0.1312668E+00
        -11   -1    0    0    0    0  0.00000000000E+00  0.00000000000E+00  0.45593999997E+02  0.45594000000E+02  0.51100000000E-03 0. -1.
         11   -1    0    0    0    0 -0.00000000000E+00 -0.00000000000E+00 -0.45593999997E+02  0.45594000000E+02  0.51100000000E-03 0.  1.
    9900012    2    1    2    0    0 -0.29436064037E+02 -0.31279294131E+02  0.62246080219E+01  0.47787287421E+02  0.20000074668E+02 0.  0.
        -12    1    1    2    0    0  0.29436064037E+02  0.31279294131E+02 -0.62246080219E+01  0.43400712579E+02  0.00000000000E+00 0.  1.
         11    1    3    3    0    0 -0.39695817038E+01 -0.28010572931E+00  0.11542319548E+00  0.39811255818E+01  0.51100000000E-03 0.  1.
        -11    1    3    3    0    0 -0.10862004194E+02 -0.31215655719E+01  0.48813471334E+01  0.12310761830E+02  0.51100000000E-03 0. -1.
         12    1    3    3    0    0 -0.14604478139E+02 -0.27877622830E+02  0.12278376930E+01  0.31495400010E+02  0.00000000000E+00 0. -1.
</event>
<event>
 7    1  0.2505412E-009  0.4778727E+02  0.7816164E-02  0.1312668E+00
        -11   -1    0    0    0    0  0.00000000000E+00  0.00000000000E+00  0.45593999997E+02  0.45594000000E+02  0.51100000000E-03 0.  1.
         11   -1    0    0    0    0 -0.00000000000E+00 -0.00000000000E+00 -0.45593999997E+02  0.45594000000E+02  0.51100000000E-03 0. -1.
    9900012    2    1    2    0    0 -0.14371750367E+02 -0.32600925367E+02 -0.24784181347E+02  0.47787272029E+02  0.20000004489E+02 0.  0.
        -12    1    1    2    0    0  0.14371750367E+02  0.32600925367E+02  0.24784181347E+02  0.43400727971E+02  0.00000000000E+00 0.  1.
         11    1    3    3    0    0 -0.66718079081E+01 -0.17558227497E+02 -0.18449276759E+02  0.26328315305E+02  0.51100000000E-03 0. -1.
        -11    1    3    3    0    0 -0.59854003227E+01 -0.89656740010E+00 -0.32862772057E+01  0.68868329630E+01  0.51100000000E-03 0.  1.
         12    1    3    3    0    0 -0.17145421364E+01 -0.14146130469E+02 -0.30486273818E+01  0.14572123761E+02  0.00000000000E+00 0. -1.
</event>
<event>
 7    1  0.2505412E-009  0.4778727E+02  0.7816164E-02  0.1312668E+00
        -11   -1    0    0    0    0  0.00000000000E+00  0.00000000000E+00  0.45593999997E+02  0.45594000000E+02  0.51100000000E-03 0. -1.
         11   -1    0    0    0    0 -0.00000000000E+00 -0.00000000000E+00 -0.45593999997E+02  0.45594000000E+02  0.51100000000E-03 0.  1.
    9900012    2    1    2    0    0  0.37472728252E+02 -0.20882544970E+02 -0.65830842688E+01  0.47787273675E+02  0.20000011993E+02 0.  0.
        -12    1    1    2    0    0 -0.37472728252E+02  0.20882544970E+02  0.65830842688E+01  0.43400726325E+02  0.00000000000E+00 0.  1.
         11    1    3    3    0    0  0.12336147234E+02 -0.11652122084E+02 -0.28976918870E+01  0.17214792946E+02  0.51100000000E-03 0. -1.
        -11    1    3    3    0    0  0.14006341347E+02 -0.63893749685E+01 -0.90892136698E+01  0.17877793930E+02  0.51100000000E-03 0.  1.
        -12    1    3    3    0    0  0.11130239671E+02 -0.28410479174E+01  0.54038212880E+01  0.12694686799E+02  0.00000000000E+00 0.  1.
</event>
<event>
 7    1  0.2505412E-009  0.4778728E+02  0.7816164E-02  0.1312668E+00
        -11   -1    0    0    0    0  0.00000000000E+00  0.00000000000E+00  0.45593999997E+02  0.45594000000E+02  0.51100000000E-03 0. -1.
         11   -1    0    0    0    0 -0.00000000000E+00 -0.00000000000E+00 -0.45593999997E+02  0.45594000000E+02  0.51100000000E-03 0.  1.
    9900012    2    1    2    0    0  0.22253340719E+02  0.17357418738E+02  0.32971678671E+02  0.47787277048E+02  0.20000027373E+02 0.  0.
        -12    1    1    2    0    0 -0.22253340719E+02 -0.17357418738E+02 -0.32971678671E+02  0.43400722952E+02  0.00000000000E+00 0.  1.
         11    1    3    3    0    0  0.63542933471E+01  0.21473028863E+01  0.10535744214E+01  0.67895488031E+01  0.51100000000E-03 0. -1.
        -11    1    3    3    0    0  0.70702064801E+01  0.42238761235E+01  0.22722559401E+02  0.24169064011E+02  0.51100000000E-03 0.  1.
         12    1    3    3    0    0  0.88288408917E+01  0.10986239728E+02  0.91955448485E+01  0.16828664234E+02  0.00000000000E+00 0. -1.
</event>
<event>
 7    1  0.2505412E-009  0.4778727E+02  0.7816164E-02  0.1312668E+00
        -11   -1    0    0    0    0  0.00000000000E+00  0.00000000000E+00  0.45593999997E+02  0.45594000000E+02  0.51100000000E-03 0.  1.
         11   -1    0    0    0    0 -0.00000000000E+00 -0.00000000000E+00 -0.45593999997E+02  0.45594000000E+02  0.51100000000E-03 0. -1.
    9900012    2    1    2    0    0  0.30034673633E+02  0.23965295650E+01 -0.31237772208E+02  0.47787269744E+02  0.19999994072E+02 0.  0.
        -12    1    1    2    0    0 -0.30034673633E+02 -0.23965295650E+01  0.31237772208E+02  0.43400730256E+02  0.00000000000E+00 0.  1.
         11    1    3    3    0    0  0.89663371978E+01  0.51063146627E+01 -0.97666244579E+01  0.14207624916E+02  0.51100000000E-03 0. -1.
        -11    1    3    3    0    0  0.54290043134E+01 -0.58662088777E+01 -0.13633610289E+02  0.15803854726E+02  0.51100000000E-03 0.  1.
        -12    1    3    3    0    0  0.15639332122E+02  0.31564237800E+01 -0.78375374607E+01  0.17775790102E+02  0.00000000000E+00 0.  1.
</event>
<event>
 7    1  0.2505412E-009  0.4778728E+02  0.7816164E-02  0.1312668E+00
        -11   -1    0    0    0    0  0.00000000000E+00  0.00000000000E+00  0.45593999997E+02  0.45594000000E+02  0.51100000000E-03 0.  1.
         11   -1    0    0    0    0 -0.00000000000E+00 -0.00000000000E+00 -0.45593999997E+02  0.45594000000E+02  0.51100000000E-03 0. -1.
    9900012    2    1    2    0    0 -0.13317660941E+02  0.37008580732E+01 -0.41140802400E+02  0.47787284965E+02  0.20000063471E+02 0.  0.
        -12    1    1    2    0    0  0.13317660941E+02 -0.37008580732E+01  0.41140802400E+02  0.43400715035E+02  0.00000000000E+00 0.  1.
         11    1    3    3    0    0 -0.29472617700E+01 -0.28970974938E+01 -0.65940838730E+01  0.77821249164E+01  0.51100000000E-03 0. -1.
        -11    1    3    3    0    0 -0.75003091629E+01 -0.39328484744E+01 -0.97625580277E+01  0.12923988323E+02  0.51100000000E-03 0.  1.
         12    1    3    3    0    0 -0.28700900084E+01  0.10530804041E+02 -0.24784160499E+02  0.27081171726E+02  0.00000000000E+00 0. -1.
</event>
<event>
 7    1  0.2505412E-009  0.4778727E+02  0.7816164E-02  0.1312668E+00
        -11   -1    0    0    0    0  0.00000000000E+00  0.00000000000E+00  0.45593999997E+02  0.45594000000E+02  0.51100000000E-03 0.  1.
         11   -1    0    0    0    0 -0.00000000000E+00 -0.00000000000E+00 -0.45593999997E+02  0.45594000000E+02  0.51100000000E-03 0. -1.
    9900012    2    1    2    0    0  0.26169994024E+02  0.28128563976E+02 -0.20187585096E+02  0.47787270852E+02  0.19999999121E+02 0.  0.
        -12    1    1    2    0    0 -0.26169994024E+02 -0.28128563976E+02  0.20187585096E+02  0.43400729148E+02  0.00000000000E+00 0.  1.
         11    1    3    3    0    0  0.32418814180E+01  0.30412890139E+01 -0.46523981058E+00  0.44694163306E+01  0.51100000000E-03 0. -1.
        -11    1    3    3    0    0  0.49251421617E+01  0.18375931124E+02 -0.12640196574E+02  0.22840894021E+02  0.51100000000E-03 0.  1.
         12    1    3    3    0    0  0.18002970444E+02  0.67113438380E+01 -0.70821487121E+01  0.20476960500E+02  0.00000000000E+00 0. -1.
</event>
<event>
 7    1  0.2505412E-009  0.4778727E+02  0.7816164E-02  0.1312668E+00
        -11   -1    0    0    0    0  0.00000000000E+00  0.00000000000E+00  0.45593999997E+02  0.45594000000E+02  0.51100000000E-03 0.  1.
         11   -1    0    0    0    0 -0.00000000000E+00 -0.00000000000E+00 -0.45593999997E+02  0.45594000000E+02  0.51100000000E-03 0. -1.
    9900012    2    1    2    0    0  0.53319547276E+01 -0.11441496862E+02 -0.41524519400E+02  0.47787270708E+02  0.19999998466E+02 0.  0.
        -12    1    1    2    0    0 -0.53319547276E+01  0.11441496862E+02  0.41524519400E+02  0.43400729292E+02  0.00000000000E+00 0.  1.
         11    1    3    3    0    0  0.28069221987E+01 -0.11753459709E+02 -0.11960670552E+02  0.17002360650E+02  0.51100000000E-03 0. -1.
        -11    1    3    3    0    0  0.42155434138E+01  0.12748209789E+01 -0.79888520439E+01  0.91223753509E+01  0.51100000000E-03 0.  1.
        -12    1    3    3    0    0 -0.16905108849E+01 -0.96285813232E+00 -0.21574996804E+02  0.21662534707E+02  0.00000000000E+00 0.  1.
</event>
<event>
 7    1  0.2505412E-009  0.4778728E+02  0.7816164E-02  0.1312668E+00
        -11   -1    0    0    0    0  0.00000000000E+00  0.00000000000E+00  0.45593999997E+02  0.45594000000E+02  0.51100000000E-03 0.  1.
         11   -1    0    0    0    0 -0.00000000000E+00 -0.00000000000E+00 -0.45593999997E+02  0.45594000000E+02  0.51100000000E-03 0. -1.
    9900012    2    1    2    0    0 -0.31629074226E+02 -0.23324845403E+02 -0.18416730772E+02  0.47787277405E+02  0.20000028998E+02 0.  0.
        -12    1    1    2    0    0  0.31629074226E+02  0.23324845403E+02  0.18416730772E+02  0.43400722595E+02  0.00000000000E+00 0.  1.
         11    1    3    3    0    0  0.73904754957E+00 -0.12458609750E+01 -0.34007383201E+01  0.36964012542E+01  0.51100000000E-03 0.  1.
        -11    1    3    3    0    0  0.70595241861E+00  0.83784118509E+00 -0.99582228563E+00  0.14805434659E+01  0.51100000000E-03 0. -1.
         12    1    3    3    0    0 -0.33074074194E+02 -0.22916825613E+02 -0.14020170167E+02  0.42610332684E+02  0.00000000000E+00 0. -1.
</event>
<event>
 7    1  0.2505412E-009  0.4778727E+02  0.7816164E-02  0.1312668E+00
        -11   -1    0    0    0    0  0.00000000000E+00  0.00000000000E+00  0.45593999997E+02  0.45594000000E+02  0.51100000000E-03 0.  1.
         11   -1    0    0    0    0 -0.00000000000E+00 -0.00000000000E+00 -0.45593999997E+02  0.45594000000E+02  0.51100000000E-03 0. -1.
    9900012    2    1    2    0    0 -0.41944564682E+02  0.10609696481E+02 -0.34221427897E+01  0.47787271584E+02  0.20000002458E+02 0.  0.
        -12    1    1    2    0    0  0.41944564682E+02 -0.10609696481E+02  0.34221427897E+01  0.43400728416E+02  0.00000000000E+00 0.  1.
         11    1    3    3    0    0 -0.40216905166E+01  0.15853117962E+00 -0.55482420385E+00  0.40628754478E+01  0.51100000000E-03 0. -1.
        -11    1    3    3    0    0 -0.16007389402E+02 -0.29188262542E+01  0.47425296553E+01  0.16948381927E+02  0.51100000000E-03 0.  1.
        -12    1    3    3    0    0 -0.21915484764E+02  0.13369991556E+02 -0.76098482412E+01  0.26776014209E+02  0.00000000000E+00 0.  1.
</event>
<event>
 7    1  0.2505412E-009  0.4778728E+02  0.7816164E-02  0.1312668E+00
        -11   -1    0    0    0    0  0.00000000000E+00  0.00000000000E+00  0.45593999997E+02  0.45594000000E+02  0.51100000000E-03 0.  1.
         11   -1    0    0    0    0 -0.00000000000E+00 -0.00000000000E+00 -0.45593999997E+02  0.45594000000E+02  0.51100000000E-03 0. -1.
    9900012    2    1    2    0    0 -0.32441847215E+02  0.12095207700E+02 -0.26169737704E+02  0.47787277984E+02  0.20000031638E+02 0.  0.
        -12    1    1    2    0    0  0.32441847215E+02 -0.12095207700E+02  0.26169737704E+02  0.43400722016E+02  0.00000000000E+00 0.  1.
         11    1    3    3    0    0 -0.14183456301E+02  0.70083486528E+00 -0.14986331037E+02  0.20645864485E+02  0.51100000000E-03 0. -1.
        -11    1    3    3    0    0 -0.94244453522E+01  0.66468929606E+01 -0.12522103751E+02  0.17023643524E+02  0.51100000000E-03 0.  1.
        -12    1    3    3    0    0 -0.88339455624E+01  0.47474798742E+01  0.13386970842E+01  0.10117769974E+02  0.00000000000E+00 0.  1.
</event>
<event>
 7    1  0.2505412E-009  0.4778727E+02  0.7816164E-02  0.1312668E+00
        -11   -1    0    0    0    0  0.00000000000E+00  0.00000000000E+00  0.45593999997E+02  0.45594000000E+02  0.51100000000E-03 0.  1.
         11   -1    0    0    0    0 -0.00000000000E+00 -0.00000000000E+00 -0.45593999997E+02  0.45594000000E+02  0.51100000000E-03 0. -1.
    9900012    2    1    2    0    0  0.92634197061E+01  0.26928056919E+02 -0.32751979074E+02  0.47787270428E+02  0.19999997190E+02 0.  0.
        -12    1    1    2    0    0 -0.92634197061E+01 -0.26928056919E+02  0.32751979074E+02  0.43400729572E+02  0.00000000000E+00 0.  1.
         11    1    3    3    0    0  0.40711464706E+01  0.82346802699E+01 -0.56271994977E+01  0.10772630467E+02  0.51100000000E-03 0. -1.
        -11    1    3    3    0    0 -0.27721691892E+01  0.17026805741E+01 -0.13339596103E+02  0.13730581474E+02  0.51100000000E-03 0.  1.
        -12    1    3    3    0    0  0.79644424246E+01  0.16990696075E+02 -0.13785183473E+02  0.23284058487E+02  0.00000000000E+00 0.  1.
</event>
<event>
 7    1  0.2505412E-009  0.4778727E+02  0.7816164E-02  0.1312668E+00
        -11   -1    0    0    0    0  0.00000000000E+00  0.00000000000E+00  0.45593999997E+02  0.45594000000E+02  0.51100000000E-03 0. -1.
         11   -1    0    0    0    0 -0.00000000000E+00 -0.00000000000E+00 -0.45593999997E+02  0.45594000000E+02  0.51100000000E-03 0.  1.
    9900012    2    1    2    0    0  0.31667264420E+02  0.19124556279E+02  0.22694912299E+02  0.47787270364E+02  0.19999996898E+02 0.  0.
        -12    1    1    2    0    0 -0.31667264420E+02 -0.19124556279E+02 -0.22694912299E+02  0.43400729636E+02  0.00000000000E+00 0.  1.
         11    1    3    3    0    0  0.19952813285E+02  0.14564163674E+02  0.18872406835E+02  0.31086932328E+02  0.51100000000E-03 0. -1.
        -11    1    3    3    0    0  0.24947085403E+01  0.31988623167E+01  0.58921359590E+01  0.71535695455E+01  0.51100000000E-03 0.  1.
         12    1    3    3    0    0  0.92197425941E+01  0.13615302875E+01 -0.20696304958E+01  0.95467684907E+01  0.00000000000E+00 0. -1.
</event>
<event>
 7    1  0.2505412E-009  0.4778727E+02  0.7816164E-02  0.1312668E+00
        -11   -1    0    0    0    0  0.00000000000E+00  0.00000000000E+00  0.45593999997E+02  0.45594000000E+02  0.51100000000E-03 0.  1.
         11   -1    0    0    0    0 -0.00000000000E+00 -0.00000000000E+00 -0.45593999997E+02  0.45594000000E+02  0.51100000000E-03 0. -1.
    9900012    2    1    2    0    0 -0.30483751269E+02 -0.24044325609E+02 -0.19396772504E+02  0.47787268797E+02  0.19999989751E+02 0.  0.
        -12    1    1    2    0    0  0.30483751269E+02  0.24044325609E+02  0.19396772504E+02  0.43400731203E+02  0.00000000000E+00 0.  1.
         11    1    3    3    0    0 -0.32956691373E+01  0.12426254543E+01  0.43568698351E+00  0.35489965470E+01  0.51100000000E-03 0. -1.
        -11    1    3    3    0    0 -0.23443784519E+02 -0.14750557983E+02 -0.10322313700E+02  0.29559095956E+02  0.51100000000E-03 0.  1.
         12    1    3    3    0    0 -0.37442976132E+01 -0.10536393080E+02 -0.95101457872E+01  0.14679176293E+02  0.00000000000E+00 0. -1.
</event>
<event>
 7    1  0.2505412E-009  0.4778727E+02  0.7816164E-02  0.1312668E+00
        -11   -1    0    0    0    0  0.00000000000E+00  0.00000000000E+00  0.45593999997E+02  0.45594000000E+02  0.51100000000E-03 0.  1.
         11   -1    0    0    0    0 -0.00000000000E+00 -0.00000000000E+00 -0.45593999997E+02  0.45594000000E+02  0.51100000000E-03 0. -1.
    9900012    2    1    2    0    0  0.12144996843E+02 -0.12932704907E+02 -0.39608934495E+02  0.47787268482E+02  0.19999988315E+02 0.  0.
        -12    1    1    2    0    0 -0.12144996843E+02  0.12932704907E+02  0.39608934495E+02  0.43400731518E+02  0.00000000000E+00 0.  1.
         11    1    3    3    0    0 -0.14886296168E+01  0.11153101935E+00  0.11654247376E+00  0.14973442201E+01  0.51100000000E-03 0.  1.
        -11    1    3    3    0    0  0.85985127594E+01 -0.87499773767E+00 -0.25402264007E+02  0.26832350990E+02  0.51100000000E-03 0. -1.
         12    1    3    3    0    0  0.50351137000E+01 -0.12169238189E+02 -0.14323212962E+02  0.19457573272E+02  0.00000000000E+00 0. -1.
</event>
<event>
 7    1  0.2505412E-009  0.4778727E+02  0.7816164E-02  0.1312668E+00
        -11   -1    0    0    0    0  0.00000000000E+00  0.00000000000E+00  0.45593999997E+02  0.45594000000E+02  0.51100000000E-03 0.  1.
         11   -1    0    0    0    0 -0.00000000000E+00 -0.00000000000E+00 -0.45593999997E+02  0.45594000000E+02  0.51100000000E-03 0. -1.
    9900012    2    1    2    0    0 -0.20632411156E+02  0.99909952550E+01 -0.36852499315E+02  0.47787273254E+02  0.20000010076E+02 0.  0.
        -12    1    1    2    0    0  0.20632411156E+02 -0.99909952550E+01  0.36852499315E+02  0.43400726746E+02  0.00000000000E+00 0.  1.
         11    1    3    3    0    0 -0.16336230052E+02  0.99136065321E+00 -0.19408518820E+02  0.25387906792E+02  0.51100000000E-03 0. -1.
        -11    1    3    3    0    0 -0.28574267705E+01  0.42927167982E+01 -0.10238424524E+01  0.52574289236E+01  0.51100000000E-03 0.  1.
         12    1    3    3    0    0 -0.14387543339E+01  0.47069178036E+01 -0.16420138043E+02  0.17141937539E+02  0.00000000000E+00 0. -1.
</event>
<event>
 7    1  0.2505412E-009  0.4778727E+02  0.7816164E-02  0.1312668E+00
        -11   -1    0    0    0    0  0.00000000000E+00  0.00000000000E+00  0.45593999997E+02  0.45594000000E+02  0.51100000000E-03 0.  1.
         11   -1    0    0    0    0 -0.00000000000E+00 -0.00000000000E+00 -0.45593999997E+02  0.45594000000E+02  0.51100000000E-03 0. -1.
    9900012    2    1    2    0    0 -0.11260548675E+02 -0.15260982538E+02 -0.39037491321E+02  0.47787271053E+02  0.20000000041E+02 0.  0.
        -12    1    1    2    0    0  0.11260548675E+02  0.15260982538E+02  0.39037491321E+02  0.43400728947E+02  0.00000000000E+00 0.  1.
         11    1    3    3    0    0 -0.38417670220E+01 -0.32425249249E+01  0.11533983511E+01  0.51578551509E+01  0.51100000000E-03 0. -1.
        -11    1    3    3    0    0 -0.20589595379E+01 -0.25878960576E+01 -0.11091556434E+02  0.11574072091E+02  0.51100000000E-03 0.  1.
         12    1    3    3    0    0 -0.53598221152E+01 -0.94305615552E+01 -0.29099333238E+02  0.31055343812E+02  0.00000000000E+00 0. -1.
</event>
<event>
 7    1  0.2505412E-009  0.4778727E+02  0.7816164E-02  0.1312668E+00
        -11   -1    0    0    0    0  0.00000000000E+00  0.00000000000E+00  0.45593999997E+02  0.45594000000E+02  0.51100000000E-03 0.  1.
         11   -1    0    0    0    0 -0.00000000000E+00 -0.00000000000E+00 -0.45593999997E+02  0.45594000000E+02  0.51100000000E-03 0. -1.
    9900012    2    1    2    0    0 -0.14970064545E+02 -0.70304367472E+01 -0.40125970366E+02  0.47787269923E+02  0.19999994889E+02 0.  0.
        -12    1    1    2    0    0  0.14970064545E+02  0.70304367472E+01  0.40125970366E+02  0.43400730077E+02  0.00000000000E+00 0.  1.
         11    1    3    3    0    0  0.31530479593E+00 -0.51301554921E+01 -0.16265151023E+02  0.17057932189E+02  0.51100000000E-03 0. -1.
        -11    1    3    3    0    0 -0.63266578565E+01 -0.40578663987E+01 -0.33210118513E+01  0.82171770895E+01  0.51100000000E-03 0.  1.
         12    1    3    3    0    0 -0.89587114847E+01  0.21575851436E+01 -0.20539807492E+02  0.22512160645E+02  0.00000000000E+00 0. -1.
</event>
<event>
 7    1  0.2505412E-009  0.4778727E+02  0.7816164E-02  0.1312668E+00
        -11   -1    0    0    0    0  0.00000000000E+00  0.00000000000E+00  0.45593999997E+02  0.45594000000E+02  0.51100000000E-03 0. -1.
         11   -1    0    0    0    0 -0.00000000000E+00 -0.00000000000E+00 -0.45593999997E+02  0.45594000000E+02  0.51100000000E-03 0.  1.
    9900012    2    1    2    0    0  0.29605123746E+02 -0.31733274068E+02  0.39938497835E+00  0.47787267939E+02  0.19999985843E+02 0.  0.
        -12    1    1    2    0    0 -0.29605123746E+02  0.31733274068E+02 -0.39938497835E+00  0.43400732061E+02  0.00000000000E+00 0.  1.
         11    1    3    3    0    0  0.22172511044E+02 -0.18040268344E+02  0.26887977699E+00  0.28585727636E+02  0.51100000000E-03 0. -1.
        -11    1    3    3    0    0  0.10083114249E+02 -0.79775599329E+01 -0.52068734647E+00  0.12867858059E+02  0.51100000000E-03 0.  1.
         12    1    3    3    0    0 -0.26505015472E+01 -0.57154457909E+01  0.65119254783E+00  0.63336822445E+01  0.00000000000E+00 0. -1.
</event>
<event>
 7    1  0.2505412E-009  0.4778726E+02  0.7816164E-02  0.1312668E+00
        -11   -1    0    0    0    0  0.00000000000E+00  0.00000000000E+00  0.45593999997E+02  0.45594000000E+02  0.51100000000E-03 0.  1.
         11   -1    0    0    0    0 -0.00000000000E+00 -0.00000000000E+00 -0.45593999997E+02  0.45594000000E+02  0.51100000000E-03 0. -1.
    9900012    2    1    2    0    0  0.32968843859E+02  0.13285026450E+02 -0.24903558437E+02  0.47787264799E+02  0.19999971523E+02 0.  0.
        -12    1    1    2    0    0 -0.32968843859E+02 -0.13285026450E+02  0.24903558437E+02  0.43400735201E+02  0.00000000000E+00 0.  1.
         11    1    3    3    0    0  0.30577138783E+02  0.62464204630E+01 -0.19157392399E+02  0.36619460244E+02  0.51100000000E-03 0. -1.
        -11    1    3    3    0    0  0.34264195704E+01  0.17075363901E+01 -0.38135007312E+01  0.54035932197E+01  0.51100000000E-03 0.  1.
        -12    1    3    3    0    0 -0.10347144939E+01  0.53310695970E+01 -0.19326653060E+01  0.57642113352E+01  0.00000000000E+00 0.  1.
</event>
<event>
 7    1  0.2505412E-009  0.4778727E+02  0.7816164E-02  0.1312668E+00
        -11   -1    0    0    0    0  0.00000000000E+00  0.00000000000E+00  0.45593999997E+02  0.45594000000E+02  0.51100000000E-03 0.  1.
         11   -1    0    0    0    0 -0.00000000000E+00 -0.00000000000E+00 -0.45593999997E+02  0.45594000000E+02  0.51100000000E-03 0. -1.
    9900012    2    1    2    0    0  0.99962969985E+01  0.28124976784E+02 -0.31506873561E+02  0.47787270117E+02  0.19999995771E+02 0.  0.
        -12    1    1    2    0    0 -0.99962969985E+01 -0.28124976784E+02  0.31506873561E+02  0.43400729883E+02  0.00000000000E+00 0.  1.
         11    1    3    3    0    0  0.34900683817E+01 -0.23394787311E+01 -0.68863023376E+01  0.80669013994E+01  0.51100000000E-03 0. -1.
        -11    1    3    3    0    0  0.27552449601E+01  0.11417009328E+02 -0.87616091909E+01  0.14652824733E+02  0.51100000000E-03 0.  1.
         12    1    3    3    0    0  0.37509836567E+01  0.19047446187E+02 -0.15858962033E+02  0.25067543984E+02  0.00000000000E+00 0. -1.
</event>
<event>
 7    1  0.2505412E-009  0.4778727E+02  0.7816164E-02  0.1312668E+00
        -11   -1    0    0    0    0  0.00000000000E+00  0.00000000000E+00  0.45593999997E+02  0.45594000000E+02  0.51100000000E-03 0.  1.
         11   -1    0    0    0    0 -0.00000000000E+00 -0.00000000000E+00 -0.45593999997E+02  0.45594000000E+02  0.51100000000E-03 0. -1.
    9900012    2    1    2    0    0  0.20278518121E+02  0.10129074372E+02 -0.37010906150E+02  0.47787267070E+02  0.19999981880E+02 0.  0.
        -12    1    1    2    0    0 -0.20278518121E+02 -0.10129074372E+02  0.37010906150E+02  0.43400732930E+02  0.00000000000E+00 0.  1.
         11    1    3    3    0    0  0.14801802166E+02  0.29579492465E+01 -0.11379631643E+02  0.18903407833E+02  0.51100000000E-03 0. -1.
        -11    1    3    3    0    0  0.32730766004E+01  0.48646613664E+01 -0.41898534593E+01  0.72064438465E+01  0.51100000000E-03 0.  1.
        -12    1    3    3    0    0  0.22036393541E+01  0.23064637587E+01 -0.21441421048E+02  0.21677415390E+02  0.00000000000E+00 0.  1.
</event>
<event>
 7    1  0.2505412E-009  0.4778727E+02  0.7816164E-02  0.1312668E+00
        -11   -1    0    0    0    0  0.00000000000E+00  0.00000000000E+00  0.45593999997E+02  0.45594000000E+02  0.51100000000E-03 0.  1.
         11   -1    0    0    0    0 -0.00000000000E+00 -0.00000000000E+00 -0.45593999997E+02  0.45594000000E+02  0.51100000000E-03 0. -1.
    9900012    2    1    2    0    0  0.11645219758E+02 -0.14663605000E+02 -0.39153424841E+02  0.47787272683E+02  0.20000007472E+02 0.  0.
        -12    1    1    2    0    0 -0.11645219758E+02  0.14663605000E+02  0.39153424841E+02  0.43400727317E+02  0.00000000000E+00 0.  1.
         11    1    3    3    0    0  0.43501212785E+01 -0.72233300718E+01 -0.15544122712E+02  0.17683885422E+02  0.51100000000E-03 0. -1.
        -11    1    3    3    0    0  0.58570594692E+01  0.27020928605E+01 -0.30535403188E+01  0.71365650135E+01  0.51100000000E-03 0.  1.
        -12    1    3    3    0    0  0.14380390099E+01 -0.10142367789E+02 -0.20555761811E+02  0.22966822248E+02  0.00000000000E+00 0.  1.
</event>
<event>
 7    1  0.2505412E-009  0.4778727E+02  0.7816164E-02  0.1312668E+00
        -11   -1    0    0    0    0  0.00000000000E+00  0.00000000000E+00  0.45593999997E+02  0.45594000000E+02  0.51100000000E-03 0.  1.
         11   -1    0    0    0    0 -0.00000000000E+00 -0.00000000000E+00 -0.45593999997E+02  0.45594000000E+02  0.51100000000E-03 0. -1.
    9900012    2    1    2    0    0  0.36205985398E+02 -0.33526733401E+01 -0.23696192676E+02  0.47787270231E+02  0.19999996289E+02 0.  0.
        -12    1    1    2    0    0 -0.36205985398E+02  0.33526733401E+01  0.23696192676E+02  0.43400729769E+02  0.00000000000E+00 0.  1.
         11    1    3    3    0    0  0.24275771101E+01  0.42511439463E+01 -0.64558251477E+01  0.81020388839E+01  0.51100000000E-03 0. -1.
        -11    1    3    3    0    0  0.13844174641E+02 -0.62924164114E+01 -0.10956167596E+02  0.18742819544E+02  0.51100000000E-03 0.  1.
        -12    1    3    3    0    0  0.19934233647E+02 -0.13114008750E+01 -0.62841999323E+01  0.20942411803E+02  0.00000000000E+00 0.  1.
</event>
<event>
 7    1  0.2505412E-009  0.4778727E+02  0.7816164E-02  0.1312668E+00
        -11   -1    0    0    0    0  0.00000000000E+00  0.00000000000E+00  0.45593999997E+02  0.45594000000E+02  0.51100000000E-03 0.  1.
         11   -1    0    0    0    0 -0.00000000000E+00 -0.00000000000E+00 -0.45593999997E+02  0.45594000000E+02  0.51100000000E-03 0. -1.
    9900012    2    1    2    0    0  0.39301867511E+02  0.17737637197E+02 -0.49358730056E+01  0.47787269527E+02  0.19999993084E+02 0.  0.
        -12    1    1    2    0    0 -0.39301867511E+02 -0.17737637197E+02  0.49358730056E+01  0.43400730473E+02  0.00000000000E+00 0.  1.
         11    1    3    3    0    0  0.14869740238E+02  0.40399663102E+01  0.15304831197E+01  0.15484601428E+02  0.51100000000E-03 0. -1.
        -11    1    3    3    0    0  0.33854287189E+01  0.96304712570E+01 -0.23427129447E+01  0.10473557583E+02  0.51100000000E-03 0.  1.
         12    1    3    3    0    0  0.21046698554E+02  0.40671996300E+01 -0.41236431807E+01  0.21829110517E+02  0.00000000000E+00 0. -1.
</event>
<event>
 7    1  0.2505412E-009  0.4778727E+02  0.7816164E-02  0.1312668E+00
        -11   -1    0    0    0    0  0.00000000000E+00  0.00000000000E+00  0.45593999997E+02  0.45594000000E+02  0.51100000000E-03 0. -1.
         11   -1    0    0    0    0 -0.00000000000E+00 -0.00000000000E+00 -0.45593999997E+02  0.45594000000E+02  0.51100000000E-03 0.  1.
    9900012    2    1    2    0    0 -0.26290195556E+02 -0.28772683087E+02  0.19094017589E+02  0.47787272102E+02  0.20000004821E+02 0.  0.
        -12    1    1    2    0    0  0.26290195556E+02  0.28772683087E+02 -0.19094017589E+02  0.43400727898E+02  0.00000000000E+00 0.  1.
         11    1    3    3    0    0 -0.18866272981E+02 -0.11121744945E+02  0.15033892535E+02  0.26564024391E+02  0.51100000000E-03 0. -1.
        -11    1    3    3    0    0 -0.40545074017E+01 -0.79807790367E+01  0.60326247936E+01  0.10794648047E+02  0.51100000000E-03 0.  1.
        -12    1    3    3    0    0 -0.33694151735E+01 -0.96701591048E+01 -0.19724997393E+01  0.10428599664E+02  0.00000000000E+00 0.  1.
</event>
<event>
 7    1  0.2505412E-009  0.4778727E+02  0.7816164E-02  0.1312668E+00
        -11   -1    0    0    0    0  0.00000000000E+00  0.00000000000E+00  0.45593999997E+02  0.45594000000E+02  0.51100000000E-03 0.  1.
         11   -1    0    0    0    0 -0.00000000000E+00 -0.00000000000E+00 -0.45593999997E+02  0.45594000000E+02  0.51100000000E-03 0. -1.
    9900012    2    1    2    0    0  0.33880472558E+02 -0.23071363788E+02 -0.14263548725E+02  0.47787273393E+02  0.20000010706E+02 0.  0.
        -12    1    1    2    0    0 -0.33880472558E+02  0.23071363788E+02  0.14263548725E+02  0.43400726607E+02  0.00000000000E+00 0.  1.
         11    1    3    3    0    0  0.22361594560E+02 -0.52235572435E+01 -0.13018422491E+02  0.26397079118E+02  0.51100000000E-03 0. -1.
        -11    1    3    3    0    0  0.34240412943E+01 -0.44822412784E+01  0.52335224639E+00  0.56646662301E+01  0.51100000000E-03 0.  1.
         12    1    3    3    0    0  0.80948367037E+01 -0.13365565266E+02 -0.17684784805E+01  0.15725528044E+02  0.00000000000E+00 0. -1.
</event>
<event>
 7    1  0.2505412E-009  0.4778726E+02  0.7816164E-02  0.1312668E+00
        -11   -1    0    0    0    0  0.00000000000E+00  0.00000000000E+00  0.45593999997E+02  0.45594000000E+02  0.51100000000E-03 0.  1.
         11   -1    0    0    0    0 -0.00000000000E+00 -0.00000000000E+00 -0.45593999997E+02  0.45594000000E+02  0.51100000000E-03 0. -1.
    9900012    2    1    2    0    0 -0.36884363476E+02 -0.63008495189E+01 -0.21987879057E+02  0.47787264994E+02  0.19999972412E+02 0.  0.
        -12    1    1    2    0    0  0.36884363476E+02  0.63008495189E+01  0.21987879057E+02  0.43400735006E+02  0.00000000000E+00 0.  1.
         11    1    3    3    0    0 -0.58442836045E+01 -0.36056390915E+01 -0.81165892009E+01  0.10631806273E+02  0.51100000000E-03 0. -1.
        -11    1    3    3    0    0 -0.76730670473E+01  0.45260855093E+00 -0.10976748129E+02  0.13400366120E+02  0.51100000000E-03 0.  1.
        -12    1    3    3    0    0 -0.23367012824E+02 -0.31478189783E+01 -0.28945417267E+01  0.23755092600E+02  0.00000000000E+00 0.  1.
</event>
<event>
 7    1  0.2505412E-009  0.4778725E+02  0.7816164E-02  0.1312668E+00
        -11   -1    0    0    0    0  0.00000000000E+00  0.00000000000E+00  0.45593999997E+02  0.45594000000E+02  0.51100000000E-03 0. -1.
         11   -1    0    0    0    0 -0.00000000000E+00 -0.00000000000E+00 -0.45593999997E+02  0.45594000000E+02  0.51100000000E-03 0.  1.
    9900012    2    1    2    0    0 -0.28869542154E+02 -0.42882926914E+01  0.32121407815E+02  0.47787253942E+02  0.19999922021E+02 0.  0.
        -12    1    1    2    0    0  0.28869542154E+02  0.42882926914E+01 -0.32121407815E+02  0.43400746058E+02  0.00000000000E+00 0.  1.
         11    1    3    3    0    0 -0.16571137530E+02 -0.62124928768E+01  0.12285649288E+02  0.21543789023E+02  0.51100000000E-03 0. -1.
        -11    1    3    3    0    0 -0.42697289754E+01 -0.10931246137E+01 -0.23828308019E+00  0.44138742655E+01  0.51100000000E-03 0.  1.
         12    1    3    3    0    0 -0.80286756486E+01  0.30173247991E+01  0.20074041608E+02  0.21829590653E+02  0.00000000000E+00 0. -1.
</event>
<event>
 7    1  0.2505412E-009  0.4778725E+02  0.7816164E-02  0.1312668E+00
        -11   -1    0    0    0    0  0.00000000000E+00  0.00000000000E+00  0.45593999997E+02  0.45594000000E+02  0.51100000000E-03 0.  1.
         11   -1    0    0    0    0 -0.00000000000E+00 -0.00000000000E+00 -0.45593999997E+02  0.45594000000E+02  0.51100000000E-03 0. -1.
    9900012    2    1    2    0    0  0.19805153192E+02  0.12584532260E+02 -0.36510413995E+02  0.47787252596E+02  0.19999915884E+02 0.  0.
        -12    1    1    2    0    0 -0.19805153192E+02 -0.12584532260E+02  0.36510413995E+02  0.43400747404E+02  0.00000000000E+00 0.  1.
         11    1    3    3    0    0  0.66765882970E+01 -0.18521641736E+01 -0.60587264230E+01  0.92041028647E+01  0.51100000000E-03 0. -1.
        -11    1    3    3    0    0 -0.94507877023E+00  0.67116724109E+01 -0.47400076706E+01  0.82708762179E+01  0.51100000000E-03 0.  1.
         12    1    3    3    0    0  0.14073643665E+02  0.77250240228E+01 -0.25711679902E+02  0.30312273513E+02  0.00000000000E+00 0. -1.
</event>
<event>
 7    1  0.2505412E-009  0.4778727E+02  0.7816164E-02  0.1312668E+00
        -11   -1    0    0    0    0  0.00000000000E+00  0.00000000000E+00  0.45593999997E+02  0.45594000000E+02  0.51100000000E-03 0.  1.
         11   -1    0    0    0    0 -0.00000000000E+00 -0.00000000000E+00 -0.45593999997E+02  0.45594000000E+02  0.51100000000E-03 0. -1.
    9900012    2    1    2    0    0  0.12694820285E+02  0.36318987573E+02 -0.20084723129E+02  0.47787269320E+02  0.19999992137E+02 0.  0.
        -12    1    1    2    0    0 -0.12694820285E+02 -0.36318987573E+02  0.20084723129E+02  0.43400730680E+02  0.00000000000E+00 0.  1.
         11    1    3    3    0    0 -0.13487613908E+01  0.36945491431E+01  0.22348054073E+01  0.45236275410E+01  0.51100000000E-03 0. -1.
        -11    1    3    3    0    0  0.19632194080E+01  0.18077298221E+01 -0.55495461030E+01  0.61578876057E+01  0.51100000000E-03 0.  1.
         12    1    3    3    0    0  0.12080362268E+02  0.30816708608E+02 -0.16769982433E+02  0.37105754173E+02  0.00000000000E+00 0. -1.
</event>
<event>
 7    1  0.2505412E-009  0.4778727E+02  0.7816164E-02  0.1312668E+00
        -11   -1    0    0    0    0  0.00000000000E+00  0.00000000000E+00  0.45593999997E+02  0.45594000000E+02  0.51100000000E-03 0.  1.
         11   -1    0    0    0    0 -0.00000000000E+00 -0.00000000000E+00 -0.45593999997E+02  0.45594000000E+02  0.51100000000E-03 0. -1.
    9900012    2    1    2    0    0 -0.35264811004E+02 -0.13965562500E+02 -0.21094529034E+02  0.47787274358E+02  0.20000015107E+02 0.  0.
        -12    1    1    2    0    0  0.35264811004E+02  0.13965562500E+02  0.21094529034E+02  0.43400725642E+02  0.00000000000E+00 0.  1.
         11    1    3    3    0    0 -0.73570962249E+01 -0.25299377953E+01 -0.69548716502E+01  0.10435405600E+02  0.51100000000E-03 0. -1.
        -11    1    3    3    0    0 -0.11905332468E+02 -0.56890140025E+01  0.26479748545E+01  0.13457845020E+02  0.51100000000E-03 0.  1.
        -12    1    3    3    0    0 -0.16002382311E+02 -0.57466107023E+01 -0.16787632238E+02  0.23894023737E+02  0.00000000000E+00 0.  1.
</event>
<event>
 7    1  0.2505412E-009  0.4778727E+02  0.7816164E-02  0.1312668E+00
        -11   -1    0    0    0    0  0.00000000000E+00  0.00000000000E+00  0.45593999997E+02  0.45594000000E+02  0.51100000000E-03 0. -1.
         11   -1    0    0    0    0 -0.00000000000E+00 -0.00000000000E+00 -0.45593999997E+02  0.45594000000E+02  0.51100000000E-03 0.  1.
    9900012    2    1    2    0    0 -0.28451127049E+02 -0.17301509079E+02  0.27835485432E+02  0.47787273093E+02  0.20000009341E+02 0.  0.
        -12    1    1    2    0    0  0.28451127049E+02  0.17301509079E+02 -0.27835485432E+02  0.43400726907E+02  0.00000000000E+00 0.  1.
         11    1    3    3    0    0 -0.16202045803E+02 -0.30927641368E+01  0.10924802075E+02  0.19784407468E+02  0.51100000000E-03 0. -1.
        -11    1    3    3    0    0 -0.29221765101E+01 -0.30820834275E+01  0.11913965796E+02  0.12648357010E+02  0.51100000000E-03 0.  1.
        -12    1    3    3    0    0 -0.93269047361E+01 -0.11126661515E+02  0.49967175614E+01  0.15354508615E+02  0.00000000000E+00 0.  1.
</event>
<event>
 7    1  0.2505412E-009  0.4778727E+02  0.7816164E-02  0.1312668E+00
        -11   -1    0    0    0    0  0.00000000000E+00  0.00000000000E+00  0.45593999997E+02  0.45594000000E+02  0.51100000000E-03 0. -1.
         11   -1    0    0    0    0 -0.00000000000E+00 -0.00000000000E+00 -0.45593999997E+02  0.45594000000E+02  0.51100000000E-03 0.  1.
    9900012    2    1    2    0    0  0.43373722142E+02  0.31461925640E-01 -0.15305463699E+01  0.47787270346E+02  0.19999996814E+02 0.  0.
        -12    1    1    2    0    0 -0.43373722142E+02 -0.31461925640E-01  0.15305463699E+01  0.43400729654E+02  0.00000000000E+00 0.  1.
         11    1    3    3    0    0 -0.13834766429E+01  0.28744397773E+00  0.21084285704E+01  0.25381298153E+01  0.51100000000E-03 0.  1.
        -11    1    3    3    0    0  0.19242793709E+02  0.20291521869E+01  0.17476009218E+00  0.19350274150E+02  0.51100000000E-03 0. -1.
         12    1    3    3    0    0  0.25514405076E+02 -0.22851342390E+01 -0.38137350325E+01  0.25898866380E+02  0.00000000000E+00 0. -1.
</event>
<event>
 7    1  0.2505412E-009  0.4778726E+02  0.7816164E-02  0.1312668E+00
        -11   -1    0    0    0    0  0.00000000000E+00  0.00000000000E+00  0.45593999997E+02  0.45594000000E+02  0.51100000000E-03 0. -1.
         11   -1    0    0    0    0 -0.00000000000E+00 -0.00000000000E+00 -0.45593999997E+02  0.45594000000E+02  0.51100000000E-03 0.  1.
    9900012    2    1    2    0    0 -0.35475920249E+02 -0.14382671221E+02  0.20450476898E+02  0.47787260901E+02  0.19999953751E+02 0.  0.
        -12    1    1    2    0    0  0.35475920249E+02  0.14382671221E+02 -0.20450476898E+02  0.43400739099E+02  0.00000000000E+00 0.  1.
         11    1    3    3    0    0 -0.68021396254E+01 -0.22919845427E+01  0.88940577548E+01  0.11429197707E+02  0.51100000000E-03 0. -1.
        -11    1    3    3    0    0 -0.39191711318E+00  0.25478472382E+01  0.36729600966E+00  0.26038493030E+01  0.51100000000E-03 0.  1.
         12    1    3    3    0    0 -0.28281863511E+02 -0.14638533916E+02  0.11189123134E+02  0.33754213891E+02  0.00000000000E+00 0. -1.
</event>
<event>
 7    1  0.2505412E-009  0.4778727E+02  0.7816164E-02  0.1312668E+00
        -11   -1    0    0    0    0  0.00000000000E+00  0.00000000000E+00  0.45593999997E+02  0.45594000000E+02  0.51100000000E-03 0. -1.
         11   -1    0    0    0    0 -0.00000000000E+00 -0.00000000000E+00 -0.45593999997E+02  0.45594000000E+02  0.51100000000E-03 0.  1.
    9900012    2    1    2    0    0  0.26499621060E+01  0.43028842997E+02 -0.50119643905E+01  0.47787269408E+02  0.19999992539E+02 0.  0.
        -12    1    1    2    0    0 -0.26499621060E+01 -0.43028842997E+02  0.50119643905E+01  0.43400730592E+02  0.00000000000E+00 0.  1.
         11    1    3    3    0    0 -0.34517317580E+01  0.30665435405E+01 -0.16161024423E+01  0.48918226440E+01  0.51100000000E-03 0. -1.
        -11    1    3    3    0    0  0.44210882064E+00 -0.10614002650E+01 -0.80233300070E+00  0.14020589278E+01  0.51100000000E-03 0.  1.
         12    1    3    3    0    0  0.56595850434E+01  0.41023699722E+02 -0.25935289475E+01  0.41493387836E+02  0.00000000000E+00 0. -1.
</event>
<event>
 7    1  0.2505412E-009  0.4778727E+02  0.7816164E-02  0.1312668E+00
        -11   -1    0    0    0    0  0.00000000000E+00  0.00000000000E+00  0.45593999997E+02  0.45594000000E+02  0.51100000000E-03 0.  1.
         11   -1    0    0    0    0 -0.00000000000E+00 -0.00000000000E+00 -0.45593999997E+02  0.45594000000E+02  0.51100000000E-03 0. -1.
    9900012    2    1    2    0    0  0.35584668648E+02 -0.21919922026E+02 -0.11699224439E+02  0.47787268706E+02  0.19999989336E+02 0.  0.
        -12    1    1    2    0    0 -0.35584668648E+02  0.21919922026E+02  0.11699224439E+02  0.43400731294E+02  0.00000000000E+00 0.  1.
         11    1    3    3    0    0  0.26051713544E+02 -0.16655083027E+02 -0.17558274345E+01  0.30970413292E+02  0.51100000000E-03 0. -1.
        -11    1    3    3    0    0  0.39946213491E+01 -0.66494432999E+01 -0.47278161591E+01  0.90842909364E+01  0.51100000000E-03 0.  1.
        -12    1    3    3    0    0  0.55383337548E+01  0.13846043005E+01 -0.52155808449E+01  0.77325644775E+01  0.00000000000E+00 0.  1.
</event>
<event>
 7    1  0.2505412E-009  0.4778727E+02  0.7816164E-02  0.1312668E+00
        -11   -1    0    0    0    0  0.00000000000E+00  0.00000000000E+00  0.45593999997E+02  0.45594000000E+02  0.51100000000E-03 0.  1.
         11   -1    0    0    0    0 -0.00000000000E+00 -0.00000000000E+00 -0.45593999997E+02  0.45594000000E+02  0.51100000000E-03 0. -1.
    9900012    2    1    2    0    0 -0.14661202980E+02 -0.40575138671E+02  0.47255212017E+01  0.47787270725E+02  0.19999998542E+02 0.  0.
        -12    1    1    2    0    0  0.14661202980E+02  0.40575138671E+02 -0.47255212017E+01  0.43400729275E+02  0.00000000000E+00 0.  1.
         11    1    3    3    0    0 -0.49636267991E+01 -0.35672418117E+02  0.13128249508E+01  0.36040012693E+02  0.51100000000E-03 0. -1.
        -11    1    3    3    0    0 -0.19787773106E+01  0.12152043061E+00  0.10299943395E+01  0.22341028312E+01  0.51100000000E-03 0.  1.
         12    1    3    3    0    0 -0.77187988698E+01 -0.50242409854E+01  0.23827019115E+01  0.95131552006E+01  0.00000000000E+00 0. -1.
</event>
<event>
 7    1  0.2505412E-009  0.4778724E+02  0.7816164E-02  0.1312668E+00
        -11   -1    0    0    0    0  0.00000000000E+00  0.00000000000E+00  0.45593999997E+02  0.45594000000E+02  0.51100000000E-03 0. -1.
         11   -1    0    0    0    0 -0.00000000000E+00 -0.00000000000E+00 -0.45593999997E+02  0.45594000000E+02  0.51100000000E-03 0.  1.
    9900012    2    1    2    0    0 -0.22229054500E+02  0.30265079340E+02 -0.21760513350E+02  0.47787241566E+02  0.19999865597E+02 0.  0.
        -12    1    1    2    0    0  0.22229054500E+02 -0.30265079340E+02  0.21760513350E+02  0.43400758434E+02  0.00000000000E+00 0.  1.
         11    1    3    3    0    0 -0.13894473056E+02  0.17692628120E+02 -0.19257016934E+01  0.22578613743E+02  0.51100000000E-03 0. -1.
        -11    1    3    3    0    0 -0.19748307322E+01  0.14510178030E+01 -0.52644019973E+01  0.58068354322E+01  0.51100000000E-03 0.  1.
         12    1    3    3    0    0 -0.63597507116E+01  0.11121433417E+02 -0.14570409659E+02  0.19401792391E+02  0.00000000000E+00 0. -1.
</event>
<event>
 7    1  0.3046461E-009  0.4778727E+02  0.7816164E-02  0.1312668E+00
        -11   -1    0    0    0    0  0.00000000000E+00  0.00000000000E+00  0.45593999997E+02  0.45594000000E+02  0.51100000000E-03 0.  1.
         11   -1    0    0    0    0 -0.00000000000E+00 -0.00000000000E+00 -0.45593999997E+02  0.45594000000E+02  0.51100000000E-03 0. -1.
    9900012    2    1    2    0    0  0.35903118947E+02  0.86390596293E+01 -0.22802542305E+02  0.47787271469E+02  0.20000001937E+02 0.  0.
        -12    1    1    2    0    0 -0.35903118947E+02 -0.86390596293E+01  0.22802542305E+02  0.43400728531E+02  0.00000000000E+00 0.  1.
         11    1    3    3    0    0  0.24092340016E+02  0.76261996805E+01 -0.15068104997E+02  0.29421889087E+02  0.51100000000E-03 0. -1.
        -11    1    3    3    0    0  0.67953643552E+01 -0.20070946959E+01 -0.98557915787E+01  0.12138452691E+02  0.51100000000E-03 0.  1.
        -12    1    3    3    0    0  0.50154145762E+01  0.30199546447E+01  0.21213542709E+01  0.62269296905E+01  0.00000000000E+00 0.  1.
</event>
<event>
 7    1  0.2505412E-009  0.4778727E+02  0.7816164E-02  0.1312668E+00
        -11   -1    0    0    0    0  0.00000000000E+00  0.00000000000E+00  0.45593999997E+02  0.45594000000E+02  0.51100000000E-03 0. -1.
         11   -1    0    0    0    0 -0.00000000000E+00 -0.00000000000E+00 -0.45593999997E+02  0.45594000000E+02  0.51100000000E-03 0.  1.
    9900012    2    1    2    0    0  0.41580005744E+02 -0.11708488700E+02 -0.41996950443E+01  0.47787273926E+02  0.20000013137E+02 0.  0.
        -12    1    1    2    0    0 -0.41580005744E+02  0.11708488700E+02  0.41996950443E+01  0.43400726074E+02  0.00000000000E+00 0.  1.
         11    1    3    3    0    0  0.12840909539E+02 -0.99006158863E+01 -0.26111680175E+01  0.16423439085E+02  0.51100000000E-03 0. -1.
        -11    1    3    3    0    0  0.15102128588E+02 -0.35845768671E+00 -0.69638125669E+01  0.16634225727E+02  0.51100000000E-03 0.  1.
         12    1    3    3    0    0  0.13636967617E+02 -0.14494151269E+01  0.53752855401E+01  0.14729609114E+02  0.00000000000E+00 0. -1.
</event>
<event>
 7    1  0.2505412E-009  0.4778727E+02  0.7816164E-02  0.1312668E+00
        -11   -1    0    0    0    0  0.00000000000E+00  0.00000000000E+00  0.45593999997E+02  0.45594000000E+02  0.51100000000E-03 0.  1.
         11   -1    0    0    0    0 -0.00000000000E+00 -0.00000000000E+00 -0.45593999997E+02  0.45594000000E+02  0.51100000000E-03 0. -1.
    9900012    2    1    2    0    0 -0.27433212128E+02 -0.29160823520E+02 -0.16753754259E+02  0.47787273764E+02  0.20000012399E+02 0.  0.
        -12    1    1    2    0    0  0.27433212128E+02  0.29160823520E+02  0.16753754259E+02  0.43400726236E+02  0.00000000000E+00 0.  1.
         11    1    3    3    0    0 -0.56674038895E+01 -0.11605422337E+02 -0.14383782365E+02  0.19331282675E+02  0.51100000000E-03 0. -1.
        -11    1    3    3    0    0 -0.89592094152E+01 -0.57455621738E+01 -0.28861314777E+01  0.11027632258E+02  0.51100000000E-03 0.  1.
        -12    1    3    3    0    0 -0.12806598823E+02 -0.11809839009E+02  0.51615958331E+00  0.17428358832E+02  0.00000000000E+00 0.  1.
</event>
<event>
 7    1  0.2505412E-009  0.4778728E+02  0.7816164E-02  0.1312668E+00
        -11   -1    0    0    0    0  0.00000000000E+00  0.00000000000E+00  0.45593999997E+02  0.45594000000E+02  0.51100000000E-03 0.  1.
         11   -1    0    0    0    0 -0.00000000000E+00 -0.00000000000E+00 -0.45593999997E+02  0.45594000000E+02  0.51100000000E-03 0. -1.
    9900012    2    1    2    0    0 -0.41587176398E+02  0.60469409123E+01 -0.10842697467E+02  0.47787276233E+02  0.20000023655E+02 0.  0.
        -12    1    1    2    0    0  0.41587176398E+02 -0.60469409123E+01  0.10842697467E+02  0.43400723767E+02  0.00000000000E+00 0.  1.
         11    1    3    3    0    0 -0.30850692362E+02  0.70340933464E+01 -0.14800754578E+02  0.34932878850E+02  0.51100000000E-03 0. -1.
        -11    1    3    3    0    0 -0.58743394305E+01  0.23506124357E+01  0.18627110425E+01  0.65956754966E+01  0.51100000000E-03 0.  1.
         12    1    3    3    0    0 -0.48621446059E+01 -0.33377648698E+01  0.20953460691E+01  0.62587218858E+01  0.00000000000E+00 0. -1.
</event>
<event>
 7    1  0.2505412E-009  0.4778727E+02  0.7816164E-02  0.1312668E+00
        -11   -1    0    0    0    0  0.00000000000E+00  0.00000000000E+00  0.45593999997E+02  0.45594000000E+02  0.51100000000E-03 0.  1.
         11   -1    0    0    0    0 -0.00000000000E+00 -0.00000000000E+00 -0.45593999997E+02  0.45594000000E+02  0.51100000000E-03 0. -1.
    9900012    2    1    2    0    0  0.24804421882E+02  0.10242791690E+02 -0.34109366852E+02  0.47787273813E+02  0.20000012622E+02 0.  0.
        -12    1    1    2    0    0 -0.24804421882E+02 -0.10242791690E+02  0.34109366852E+02  0.43400726187E+02  0.00000000000E+00 0.  1.
         11    1    3    3    0    0  0.90645526798E+01  0.65580233470E+01 -0.23346381027E+02  0.25888748383E+02  0.51100000000E-03 0. -1.
        -11    1    3    3    0    0  0.36330097691E+01 -0.33827461997E+01 -0.37639618260E+01  0.62296982851E+01  0.51100000000E-03 0.  1.
         12    1    3    3    0    0  0.12106859433E+02  0.70675145428E+01 -0.69990239993E+01  0.15668827145E+02  0.00000000000E+00 0. -1.
</event>
<event>
 7    1  0.2505412E-009  0.4778727E+02  0.7816164E-02  0.1312668E+00
        -11   -1    0    0    0    0  0.00000000000E+00  0.00000000000E+00  0.45593999997E+02  0.45594000000E+02  0.51100000000E-03 0. -1.
         11   -1    0    0    0    0 -0.00000000000E+00 -0.00000000000E+00 -0.45593999997E+02  0.45594000000E+02  0.51100000000E-03 0.  1.
    9900012    2    1    2    0    0 -0.41306213436E+02  0.13241676033E+02  0.14414454907E+01  0.47787273996E+02  0.20000013458E+02 0.  0.
        -12    1    1    2    0    0  0.41306213436E+02 -0.13241676033E+02 -0.14414454907E+01  0.43400726004E+02  0.00000000000E+00 0.  1.
         11    1    3    3    0    0 -0.37445985087E+02  0.84073323517E+01  0.68030700367E+01  0.38976490331E+02  0.51100000000E-03 0. -1.
        -11    1    3    3    0    0 -0.12559668976E+00  0.20764266974E+01 -0.61043121681E+00  0.21679365511E+01  0.51100000000E-03 0.  1.
         12    1    3    3    0    0 -0.37346316593E+01  0.27579169841E+01 -0.47511933292E+01  0.66428471135E+01  0.00000000000E+00 0. -1.
</event>
<event>
 7    1  0.2505412E-009  0.4778727E+02  0.7816164E-02  0.1312668E+00
        -11   -1    0    0    0    0  0.00000000000E+00  0.00000000000E+00  0.45593999997E+02  0.45594000000E+02  0.51100000000E-03 0.  1.
         11   -1    0    0    0    0 -0.00000000000E+00 -0.00000000000E+00 -0.45593999997E+02  0.45594000000E+02  0.51100000000E-03 0. -1.
    9900012    2    1    2    0    0  0.33628856532E+01  0.21917193605E+02 -0.37308858004E+02  0.47787271193E+02  0.20000000677E+02 0.  0.
        -12    1    1    2    0    0 -0.33628856532E+01 -0.21917193605E+02  0.37308858004E+02  0.43400728807E+02  0.00000000000E+00 0.  1.
         11    1    3    3    0    0  0.36773745681E+01  0.14797770822E+02 -0.29380906816E+02  0.33101885001E+02  0.51100000000E-03 0. -1.
        -11    1    3    3    0    0 -0.41630062979E+00  0.93860297347E+01 -0.41335214047E+01  0.10264348974E+02  0.51100000000E-03 0.  1.
        -12    1    3    3    0    0  0.10181171488E+00 -0.22666069524E+01 -0.37944297830E+01  0.44210372177E+01  0.00000000000E+00 0.  1.
</event>
<event>
 7    1  0.2505412E-009  0.4778727E+02  0.7816164E-02  0.1312668E+00
        -11   -1    0    0    0    0  0.00000000000E+00  0.00000000000E+00  0.45593999997E+02  0.45594000000E+02  0.51100000000E-03 0.  1.
         11   -1    0    0    0    0 -0.00000000000E+00 -0.00000000000E+00 -0.45593999997E+02  0.45594000000E+02  0.51100000000E-03 0. -1.
    9900012    2    1    2    0    0  0.34781993218E+02 -0.25886877489E+02 -0.19250726422E+01  0.47787269787E+02  0.19999994268E+02 0.  0.
        -12    1    1    2    0    0 -0.34781993218E+02  0.25886877489E+02  0.19250726422E+01  0.43400730213E+02  0.00000000000E+00 0.  1.
         11    1    3    3    0    0  0.22873513753E+01 -0.33887805630E+01 -0.48291113004E+01  0.63274107051E+01  0.51100000000E-03 0. -1.
        -11    1    3    3    0    0  0.13293317164E+02 -0.91128041010E+01 -0.48028768772E+01  0.16817345402E+02  0.51100000000E-03 0.  1.
        -12    1    3    3    0    0  0.19201324679E+02 -0.13385292825E+02  0.77069155355E+01  0.24642513680E+02  0.00000000000E+00 0.  1.
</event>
<event>
 7    1  0.2505412E-009  0.4778727E+02  0.7816164E-02  0.1312668E+00
        -11   -1    0    0    0    0  0.00000000000E+00  0.00000000000E+00  0.45593999997E+02  0.45594000000E+02  0.51100000000E-03 0. -1.
         11   -1    0    0    0    0 -0.00000000000E+00 -0.00000000000E+00 -0.45593999997E+02  0.45594000000E+02  0.51100000000E-03 0.  1.
    9900012    2    1    2    0    0 -0.42199069516E+02  0.11292158552E+01  0.10079020929E+02  0.47787271212E+02  0.20000000764E+02 0.  0.
        -12    1    1    2    0    0  0.42199069516E+02 -0.11292158552E+01 -0.10079020929E+02  0.43400728788E+02  0.00000000000E+00 0.  1.
         11    1    3    3    0    0 -0.48164338554E+01 -0.39423319670E+01 -0.40834819350E+01  0.74441145475E+01  0.51100000000E-03 0.  1.
        -11    1    3    3    0    0 -0.61076095163E+01  0.37513810664E+00  0.17033308205E+01  0.63517681591E+01  0.51100000000E-03 0. -1.
        -12    1    3    3    0    0 -0.31275026144E+02  0.46964097156E+01  0.12459172043E+02  0.33991388505E+02  0.00000000000E+00 0.  1.
</event>
<event>
 7    1  0.2505412E-009  0.4778727E+02  0.7816164E-02  0.1312668E+00
        -11   -1    0    0    0    0  0.00000000000E+00  0.00000000000E+00  0.45593999997E+02  0.45594000000E+02  0.51100000000E-03 0. -1.
         11   -1    0    0    0    0 -0.00000000000E+00 -0.00000000000E+00 -0.45593999997E+02  0.45594000000E+02  0.51100000000E-03 0.  1.
    9900012    2    1    2    0    0 -0.18658221571E+02  0.37512360993E+02 -0.11327703919E+02  0.47787270334E+02  0.19999996761E+02 0.  0.
        -12    1    1    2    0    0  0.18658221571E+02 -0.37512360993E+02  0.11327703919E+02  0.43400729666E+02  0.00000000000E+00 0.  1.
         11    1    3    3    0    0  0.10995475371E-01  0.40285745212E+01  0.43583665547E+01  0.59350562642E+01  0.51100000000E-03 0.  1.
        -11    1    3    3    0    0 -0.11593330548E+01  0.58153861898E+01 -0.36694077510E+01  0.69733294181E+01  0.51100000000E-03 0. -1.
        -12    1    3    3    0    0 -0.17509883992E+02  0.27668400282E+02 -0.12016662723E+02  0.34878884652E+02  0.00000000000E+00 0.  1.
</event>
<event>
 7    1  0.2505412E-009  0.4778728E+02  0.7816164E-02  0.1312668E+00
        -11   -1    0    0    0    0  0.00000000000E+00  0.00000000000E+00  0.45593999997E+02  0.45594000000E+02  0.51100000000E-03 0.  1.
         11   -1    0    0    0    0 -0.00000000000E+00 -0.00000000000E+00 -0.45593999997E+02  0.45594000000E+02  0.51100000000E-03 0. -1.
    9900012    2    1    2    0    0 -0.32446112714E+02  0.36410951846E+01 -0.28593967939E+02  0.47787276424E+02  0.20000024528E+02 0.  0.
        -12    1    1    2    0    0  0.32446112714E+02 -0.36410951846E+01  0.28593967939E+02  0.43400723576E+02  0.00000000000E+00 0.  1.
         11    1    3    3    0    0 -0.21279538747E+02  0.64244088925E+01 -0.19777804185E+02  0.29753207181E+02  0.51100000000E-03 0. -1.
        -11    1    3    3    0    0 -0.21184206211E+01  0.21165430558E+01  0.15977474208E+01  0.33941504853E+01  0.51100000000E-03 0.  1.
        -12    1    3    3    0    0 -0.90481533455E+01 -0.48998567637E+01 -0.10413911175E+02  0.14639918758E+02  0.00000000000E+00 0.  1.
</event>
<event>
 7    1  0.2505412E-009  0.4778727E+02  0.7816164E-02  0.1312668E+00
        -11   -1    0    0    0    0  0.00000000000E+00  0.00000000000E+00  0.45593999997E+02  0.45594000000E+02  0.51100000000E-03 0. -1.
         11   -1    0    0    0    0 -0.00000000000E+00 -0.00000000000E+00 -0.45593999997E+02  0.45594000000E+02  0.51100000000E-03 0.  1.
    9900012    2    1    2    0    0 -0.28937725597E+02 -0.20632074549E+02  0.24910816134E+02  0.47787271626E+02  0.20000002652E+02 0.  0.
        -12    1    1    2    0    0  0.28937725597E+02  0.20632074549E+02 -0.24910816134E+02  0.43400728374E+02  0.00000000000E+00 0.  1.
         11    1    3    3    0    0 -0.10793775973E+02 -0.40483012166E+01  0.15548357379E+01  0.11632362483E+02  0.51100000000E-03 0. -1.
        -11    1    3    3    0    0 -0.12018119592E+01  0.70788697589E+00  0.65207580000E+01  0.66682637254E+01  0.51100000000E-03 0.  1.
         12    1    3    3    0    0 -0.16942137665E+02 -0.17291660309E+02  0.16835222396E+02  0.29486645418E+02  0.00000000000E+00 0. -1.
</event>
<event>
 7    1  0.2505412E-009  0.4778727E+02  0.7816164E-02  0.1312668E+00
        -11   -1    0    0    0    0  0.00000000000E+00  0.00000000000E+00  0.45593999997E+02  0.45594000000E+02  0.51100000000E-03 0.  1.
         11   -1    0    0    0    0 -0.00000000000E+00 -0.00000000000E+00 -0.45593999997E+02  0.45594000000E+02  0.51100000000E-03 0. -1.
    9900012    2    1    2    0    0  0.17166146740E+01 -0.19876266742E+02 -0.38543623181E+02  0.47787266902E+02  0.19999981113E+02 0.  0.
        -12    1    1    2    0    0 -0.17166146740E+01  0.19876266742E+02  0.38543623181E+02  0.43400733098E+02  0.00000000000E+00 0.  1.
         11    1    3    3    0    0 -0.66835691167E+01 -0.23341885402E+01 -0.15127502248E+02  0.16702091390E+02  0.51100000000E-03 0. -1.
        -11    1    3    3    0    0  0.47415099803E+01 -0.40765946418E+01 -0.51602992796E+01  0.81073565163E+01  0.51100000000E-03 0.  1.
         12    1    3    3    0    0  0.36586738105E+01 -0.13465483560E+02 -0.18255821653E+02  0.22977818995E+02  0.00000000000E+00 0. -1.
</event>
<event>
 7    1  0.2505412E-009  0.4778727E+02  0.7816164E-02  0.1312668E+00
        -11   -1    0    0    0    0  0.00000000000E+00  0.00000000000E+00  0.45593999997E+02  0.45594000000E+02  0.51100000000E-03 0.  1.
         11   -1    0    0    0    0 -0.00000000000E+00 -0.00000000000E+00 -0.45593999997E+02  0.45594000000E+02  0.51100000000E-03 0. -1.
    9900012    2    1    2    0    0 -0.14893825883E+02 -0.23745449929E+01 -0.40695931619E+02  0.47787270009E+02  0.19999995281E+02 0.  0.
        -12    1    1    2    0    0  0.14893825883E+02  0.23745449929E+01  0.40695931619E+02  0.43400729991E+02  0.00000000000E+00 0.  1.
         11    1    3    3    0    0 -0.98864406239E+01  0.54042280122E+01 -0.98286393692E+01  0.14951573186E+02  0.51100000000E-03 0. -1.
        -11    1    3    3    0    0 -0.94180833822E+00 -0.28190707601E+01 -0.19981098853E+02  0.20200952317E+02  0.51100000000E-03 0.  1.
        -12    1    3    3    0    0 -0.40655769213E+01 -0.49597022449E+01 -0.10886193397E+02  0.12634744507E+02  0.00000000000E+00 0.  1.
</event>
<event>
 7    1  0.2505412E-009  0.4778727E+02  0.7816164E-02  0.1312668E+00
        -11   -1    0    0    0    0  0.00000000000E+00  0.00000000000E+00  0.45593999997E+02  0.45594000000E+02  0.51100000000E-03 0. -1.
         11   -1    0    0    0    0 -0.00000000000E+00 -0.00000000000E+00 -0.45593999997E+02  0.45594000000E+02  0.51100000000E-03 0.  1.
    9900012    2    1    2    0    0  0.10741110005E+02 -0.18066316788E+02  0.37971831952E+02  0.47787271110E+02  0.20000000297E+02 0.  0.
        -12    1    1    2    0    0 -0.10741110005E+02  0.18066316788E+02 -0.37971831952E+02  0.43400728890E+02  0.00000000000E+00 0.  1.
         11    1    3    3    0    0  0.61606004404E+01 -0.46861250255E+01  0.11826053885E+02  0.14133941994E+02  0.51100000000E-03 0. -1.
        -11    1    3    3    0    0 -0.50714581655E+01 -0.96032208005E+00  0.42094218803E+01  0.66604158466E+01  0.51100000000E-03 0.  1.
         12    1    3    3    0    0  0.96519677304E+01 -0.12419869682E+02  0.21936356187E+02  0.26992913269E+02  0.00000000000E+00 0. -1.
</event>
<event>
 7    1  0.2505412E-009  0.4778728E+02  0.7816164E-02  0.1312668E+00
        -11   -1    0    0    0    0  0.00000000000E+00  0.00000000000E+00  0.45593999997E+02  0.45594000000E+02  0.51100000000E-03 0.  1.
         11   -1    0    0    0    0 -0.00000000000E+00 -0.00000000000E+00 -0.45593999997E+02  0.45594000000E+02  0.51100000000E-03 0. -1.
    9900012    2    1    2    0    0  0.28509498044E+02  0.26862810415E+02 -0.18687438930E+02  0.47787280698E+02  0.20000044016E+02 0.  0.
        -12    1    1    2    0    0 -0.28509498044E+02 -0.26862810415E+02  0.18687438930E+02  0.43400719302E+02  0.00000000000E+00 0.  1.
         11    1    3    3    0    0  0.62694555306E+01  0.39530699906E+01  0.10848068050E+01  0.74906368932E+01  0.51100000000E-03 0. -1.
        -11    1    3    3    0    0 -0.92615991095E+00 -0.12574166532E+01 -0.37586240690E+00  0.16062819274E+01  0.51100000000E-03 0.  1.
         12    1    3    3    0    0  0.23166202424E+02  0.24167157078E+02 -0.19396383328E+02  0.38690361878E+02  0.00000000000E+00 0. -1.
</event>
<event>
 7    1  0.2505412E-009  0.4778722E+02  0.7816164E-02  0.1312668E+00
        -11   -1    0    0    0    0  0.00000000000E+00  0.00000000000E+00  0.45593999997E+02  0.45594000000E+02  0.51100000000E-03 0.  1.
         11   -1    0    0    0    0 -0.00000000000E+00 -0.00000000000E+00 -0.45593999997E+02  0.45594000000E+02  0.51100000000E-03 0. -1.
    9900012    2    1    2    0    0 -0.39887600197E+02 -0.59025369456E+01 -0.16055136016E+02  0.47787216777E+02  0.19999752573E+02 0.  0.
        -12    1    1    2    0    0  0.39887600197E+02  0.59025369456E+01  0.16055136016E+02  0.43400783223E+02  0.00000000000E+00 0.  1.
         11    1    3    3    0    0 -0.29262831980E+02  0.23405169146E+01 -0.46294341663E+01  0.29719068220E+02  0.51100000000E-03 0. -1.
        -11    1    3    3    0    0 -0.41791959943E+01 -0.47604019114E+01 -0.33552822305E+01  0.71683348572E+01  0.51100000000E-03 0.  1.
        -12    1    3    3    0    0 -0.64455722227E+01 -0.34826519487E+01 -0.80704196190E+01  0.10899813700E+02  0.00000000000E+00 0.  1.
</event>
<event>
 7    1  0.2505412E-009  0.4778727E+02  0.7816164E-02  0.1312668E+00
        -11   -1    0    0    0    0  0.00000000000E+00  0.00000000000E+00  0.45593999997E+02  0.45594000000E+02  0.51100000000E-03 0.  1.
         11   -1    0    0    0    0 -0.00000000000E+00 -0.00000000000E+00 -0.45593999997E+02  0.45594000000E+02  0.51100000000E-03 0. -1.
    9900012    2    1    2    0    0  0.42933228266E+02  0.29832290026E+01 -0.56090591968E+01  0.47787270862E+02  0.19999999168E+02 0.  0.
        -12    1    1    2    0    0 -0.42933228266E+02 -0.29832290026E+01  0.56090591968E+01  0.43400729138E+02  0.00000000000E+00 0.  1.
         11    1    3    3    0    0  0.40971015473E+01 -0.18263332351E+01 -0.51346456888E+01  0.68180877660E+01  0.51100000000E-03 0. -1.
        -11    1    3    3    0    0  0.33767976339E+02  0.24565552032E+01 -0.43977585906E+01  0.34141633974E+02  0.51100000000E-03 0.  1.
        -12    1    3    3    0    0  0.50681503796E+01  0.23530070345E+01  0.39233450827E+01  0.68275491220E+01  0.00000000000E+00 0.  1.
</event>
<event>
 7    1  0.2505412E-009  0.4778727E+02  0.7816164E-02  0.1312668E+00
        -11   -1    0    0    0    0  0.00000000000E+00  0.00000000000E+00  0.45593999997E+02  0.45594000000E+02  0.51100000000E-03 0. -1.
         11   -1    0    0    0    0 -0.00000000000E+00 -0.00000000000E+00 -0.45593999997E+02  0.45594000000E+02  0.51100000000E-03 0.  1.
    9900012    2    1    2    0    0 -0.29187609255E+02  0.32051180070E+02 -0.21045259561E+01  0.47787266050E+02  0.19999977227E+02 0.  0.
        -12    1    1    2    0    0  0.29187609255E+02 -0.32051180070E+02  0.21045259561E+01  0.43400733950E+02  0.00000000000E+00 0.  1.
         11    1    3    3    0    0 -0.22625049216E+02  0.17975243271E+02 -0.80702523876E-01  0.28896517711E+02  0.51100000000E-03 0. -1.
        -11    1    3    3    0    0 -0.64436147710E+01  0.24818845204E+01  0.81674822439E+00  0.69532007027E+01  0.51100000000E-03 0.  1.
        -12    1    3    3    0    0 -0.11894526831E+00  0.11594052279E+02 -0.28405716566E+01  0.11937547636E+02  0.00000000000E+00 0.  1.
</event>
<event>
 7    1  0.2505412E-009  0.4778727E+02  0.7816164E-02  0.1312668E+00
        -11   -1    0    0    0    0  0.00000000000E+00  0.00000000000E+00  0.45593999997E+02  0.45594000000E+02  0.51100000000E-03 0.  1.
         11   -1    0    0    0    0 -0.00000000000E+00 -0.00000000000E+00 -0.45593999997E+02  0.45594000000E+02  0.51100000000E-03 0. -1.
    9900012    2    1    2    0    0 -0.65417165879E+01 -0.36246157434E+02  0.22957474619E+02  0.47787266993E+02  0.19999981528E+02 0.  0.
        -12    1    1    2    0    0  0.65417165879E+01  0.36246157434E+02 -0.22957474619E+02  0.43400733007E+02  0.00000000000E+00 0.  1.
         11    1    3    3    0    0 -0.13952131344E+01 -0.19256436886E+02  0.55860334075E+01  0.20098774857E+02  0.51100000000E-03 0. -1.
        -11    1    3    3    0    0 -0.76622613507E+00 -0.15264805808E+02  0.17154820016E+02  0.22975840549E+02  0.51100000000E-03 0.  1.
        -12    1    3    3    0    0 -0.43802773184E+01 -0.17249147396E+01  0.21662119478E+00  0.47126515877E+01  0.00000000000E+00 0.  1.
</event>
<event>
 7    1  0.2505412E-009  0.4778729E+02  0.7816164E-02  0.1312668E+00
        -11   -1    0    0    0    0  0.00000000000E+00  0.00000000000E+00  0.45593999997E+02  0.45594000000E+02  0.51100000000E-03 0.  1.
         11   -1    0    0    0    0 -0.00000000000E+00 -0.00000000000E+00 -0.45593999997E+02  0.45594000000E+02  0.51100000000E-03 0. -1.
    9900012    2    1    2    0    0 -0.22164187648E+02 -0.35063817370E+01 -0.37149368562E+02  0.47787291348E+02  0.20000092570E+02 0.  0.
        -12    1    1    2    0    0  0.22164187648E+02  0.35063817370E+01  0.37149368562E+02  0.43400708652E+02  0.00000000000E+00 0.  1.
         11    1    3    3    0    0 -0.14786097898E+01 -0.18914762704E+01 -0.17640876122E+01  0.29792574170E+01  0.51100000000E-03 0. -1.
        -11    1    3    3    0    0 -0.60611996917E+01  0.48494205607E+01 -0.23559984822E+01  0.81120743701E+01  0.51100000000E-03 0.  1.
         12    1    3    3    0    0 -0.14624378166E+02 -0.64643260272E+01 -0.33029282468E+02  0.36695959561E+02  0.00000000000E+00 0. -1.
</event>
<event>
 7    1  0.2505412E-009  0.4778727E+02  0.7816164E-02  0.1312668E+00
        -11   -1    0    0    0    0  0.00000000000E+00  0.00000000000E+00  0.45593999997E+02  0.45594000000E+02  0.51100000000E-03 0.  1.
         11   -1    0    0    0    0 -0.00000000000E+00 -0.00000000000E+00 -0.45593999997E+02  0.45594000000E+02  0.51100000000E-03 0. -1.
    9900012    2    1    2    0    0  0.52810859684E+01 -0.78128166959E+01 -0.42363822055E+02  0.47787269673E+02  0.19999993749E+02 0.  0.
        -12    1    1    2    0    0 -0.52810859684E+01  0.78128166959E+01  0.42363822055E+02  0.43400730327E+02  0.00000000000E+00 0.  1.
         11    1    3    3    0    0  0.44733765731E+00 -0.59559264903E+01 -0.39109717533E+02  0.39563154286E+02  0.51100000000E-03 0. -1.
        -11    1    3    3    0    0  0.31853252995E+01  0.12856618903E+01 -0.31704109988E+01  0.46744764330E+01  0.51100000000E-03 0.  1.
         12    1    3    3    0    0  0.16484230115E+01 -0.31425520959E+01 -0.83693524110E-01  0.35496389543E+01  0.00000000000E+00 0. -1.
</event>
<event>
 7    1  0.2505412E-009  0.4778727E+02  0.7816164E-02  0.1312668E+00
        -11   -1    0    0    0    0  0.00000000000E+00  0.00000000000E+00  0.45593999997E+02  0.45594000000E+02  0.51100000000E-03 0. -1.
         11   -1    0    0    0    0 -0.00000000000E+00 -0.00000000000E+00 -0.45593999997E+02  0.45594000000E+02  0.51100000000E-03 0.  1.
    9900012    2    1    2    0    0  0.39117538830E+02  0.26119978683E+01  0.18617706789E+02  0.47787269787E+02  0.19999994267E+02 0.  0.
        -12    1    1    2    0    0 -0.39117538830E+02 -0.26119978683E+01 -0.18617706789E+02  0.43400730213E+02  0.00000000000E+00 0.  1.
         11    1    3    3    0    0  0.31539934954E+02 -0.41610556756E+01  0.15011031806E+02  0.35176881008E+02  0.51100000000E-03 0. -1.
        -11    1    3    3    0    0  0.86145618909E+01  0.48234640058E+01  0.28500216280E+01  0.10276142522E+02  0.51100000000E-03 0.  1.
        -12    1    3    3    0    0 -0.10369580156E+01  0.19495895381E+01  0.75665335412E+00  0.23342462576E+01  0.00000000000E+00 0.  1.
</event>
<event>
 7    1  0.2505412E-009  0.4778723E+02  0.7816164E-02  0.1312668E+00
        -11   -1    0    0    0    0  0.00000000000E+00  0.00000000000E+00  0.45593999997E+02  0.45594000000E+02  0.51100000000E-03 0.  1.
         11   -1    0    0    0    0 -0.00000000000E+00 -0.00000000000E+00 -0.45593999997E+02  0.45594000000E+02  0.51100000000E-03 0. -1.
    9900012    2    1    2    0    0 -0.13286828338E+02 -0.40007843317E+02 -0.10317909331E+02  0.47787232874E+02  0.19999825965E+02 0.  0.
        -12    1    1    2    0    0  0.13286828338E+02  0.40007843317E+02  0.10317909331E+02  0.43400767126E+02  0.00000000000E+00 0.  1.
         11    1    3    3    0    0  0.19768270766E+01 -0.98090996622E+01 -0.87130333489E+01  0.13268128424E+02  0.51100000000E-03 0. -1.
        -11    1    3    3    0    0 -0.43622320883E+01 -0.46001261788E+01  0.15250028306E+01  0.65204189702E+01  0.51100000000E-03 0.  1.
         12    1    3    3    0    0 -0.10901423326E+02 -0.25598617476E+02 -0.31298788129E+01  0.27998685480E+02  0.00000000000E+00 0. -1.
</event>
<event>
 7    1  0.2505412E-009  0.4778727E+02  0.7816164E-02  0.1312668E+00
        -11   -1    0    0    0    0  0.00000000000E+00  0.00000000000E+00  0.45593999997E+02  0.45594000000E+02  0.51100000000E-03 0. -1.
         11   -1    0    0    0    0 -0.00000000000E+00 -0.00000000000E+00 -0.45593999997E+02  0.45594000000E+02  0.51100000000E-03 0.  1.
    9900012    2    1    2    0    0  0.73665707074E+01 -0.64359325764E+01  0.42283985031E+02  0.47787274405E+02  0.20000015322E+02 0.  0.
        -12    1    1    2    0    0 -0.73665707074E+01  0.64359325764E+01 -0.42283985031E+02  0.43400725595E+02  0.00000000000E+00 0.  1.
         11    1    3    3    0    0  0.16527398889E+01 -0.84088149970E+01  0.55000970798E+01  0.10182867324E+02  0.51100000000E-03 0. -1.
        -11    1    3    3    0    0  0.46396959092E+00 -0.65512144357E+00  0.15639806124E+02  0.15660395516E+02  0.51100000000E-03 0.  1.
        -12    1    3    3    0    0  0.52498612276E+01  0.26280038642E+01  0.21144081827E+02  0.21944011564E+02  0.00000000000E+00 0.  1.
</event>
<event>
 7    1  0.2505412E-009  0.4778727E+02  0.7816164E-02  0.1312668E+00
        -11   -1    0    0    0    0  0.00000000000E+00  0.00000000000E+00  0.45593999997E+02  0.45594000000E+02  0.51100000000E-03 0.  1.
         11   -1    0    0    0    0 -0.00000000000E+00 -0.00000000000E+00 -0.45593999997E+02  0.45594000000E+02  0.51100000000E-03 0. -1.
    9900012    2    1    2    0    0 -0.28292594381E+02 -0.65417233538E+01 -0.32254581255E+02  0.47787273587E+02  0.20000011591E+02 0.  0.
        -12    1    1    2    0    0  0.28292594381E+02  0.65417233538E+01  0.32254581255E+02  0.43400726413E+02  0.00000000000E+00 0.  1.
         11    1    3    3    0    0 -0.25529508922E+02 -0.66424982784E+01 -0.19236853286E+02  0.32648662052E+02  0.51100000000E-03 0. -1.
        -11    1    3    3    0    0 -0.66179453512E+00  0.17587125196E+01 -0.31454171691E-01  0.18793699368E+01  0.51100000000E-03 0.  1.
         12    1    3    3    0    0 -0.21012909242E+01 -0.16579375950E+01 -0.12986273797E+02  0.13259241598E+02  0.00000000000E+00 0. -1.
</event>
<event>
 7    1  0.2505412E-009  0.4778727E+02  0.7816164E-02  0.1312668E+00
        -11   -1    0    0    0    0  0.00000000000E+00  0.00000000000E+00  0.45593999997E+02  0.45594000000E+02  0.51100000000E-03 0. -1.
         11   -1    0    0    0    0 -0.00000000000E+00 -0.00000000000E+00 -0.45593999997E+02  0.45594000000E+02  0.51100000000E-03 0.  1.
    9900012    2    1    2    0    0 -0.48978998273E+01  0.22221961706E+02  0.36956978764E+02  0.47787270926E+02  0.19999999459E+02 0.  0.
        -12    1    1    2    0    0  0.48978998273E+01 -0.22221961706E+02 -0.36956978764E+02  0.43400729074E+02  0.00000000000E+00 0.  1.
         11    1    3    3    0    0 -0.51060374592E+01  0.32798377929E+01  0.23128677249E+01  0.64944831862E+01  0.51100000000E-03 0. -1.
        -11    1    3    3    0    0 -0.34246279779E+01  0.10761995401E+02  0.10040100479E+02  0.15111328190E+02  0.51100000000E-03 0.  1.
         12    1    3    3    0    0  0.36327656099E+01  0.81801285125E+01  0.24604010561E+02  0.26181459549E+02  0.00000000000E+00 0. -1.
</event>
<event>
 7    1  0.2505412E-009  0.4778727E+02  0.7816164E-02  0.1312668E+00
        -11   -1    0    0    0    0  0.00000000000E+00  0.00000000000E+00  0.45593999997E+02  0.45594000000E+02  0.51100000000E-03 0.  1.
         11   -1    0    0    0    0 -0.00000000000E+00 -0.00000000000E+00 -0.45593999997E+02  0.45594000000E+02  0.51100000000E-03 0. -1.
    9900012    2    1    2    0    0  0.21568062204E+00  0.14389175382E+02 -0.40945434902E+02  0.47787268144E+02  0.19999986778E+02 0.  0.
        -12    1    1    2    0    0 -0.21568062204E+00 -0.14389175382E+02  0.40945434902E+02  0.43400731856E+02  0.00000000000E+00 0.  1.
         11    1    3    3    0    0 -0.17609348530E+01 -0.78696127689E+00 -0.92445148901E+01  0.94435827641E+01  0.51100000000E-03 0. -1.
        -11    1    3    3    0    0 -0.52356251078E+01  0.20902310753E+01 -0.14510961223E+02  0.15567557036E+02  0.51100000000E-03 0.  1.
         12    1    3    3    0    0  0.72122405828E+01  0.13085905584E+02 -0.17189958789E+02  0.22776128344E+02  0.00000000000E+00 0. -1.
</event>
<event>
 7    1  0.2505412E-009  0.4778727E+02  0.7816164E-02  0.1312668E+00
        -11   -1    0    0    0    0  0.00000000000E+00  0.00000000000E+00  0.45593999997E+02  0.45594000000E+02  0.51100000000E-03 0.  1.
         11   -1    0    0    0    0 -0.00000000000E+00 -0.00000000000E+00 -0.45593999997E+02  0.45594000000E+02  0.51100000000E-03 0. -1.
    9900012    2    1    2    0    0  0.29895528516E+02 -0.10519631327E+02  0.29651609178E+02  0.47787271949E+02  0.20000004125E+02 0.  0.
        -12    1    1    2    0    0 -0.29895528516E+02  0.10519631327E+02 -0.29651609178E+02  0.43400728051E+02  0.00000000000E+00 0.  1.
         11    1    3    3    0    0  0.41390753479E+01  0.17866242184E+01  0.85013826220E+01  0.96227583145E+01  0.51100000000E-03 0. -1.
        -11    1    3    3    0    0  0.41638366655E+01 -0.81471419382E+01  0.29297898911E+01  0.96071393560E+01  0.51100000000E-03 0.  1.
         12    1    3    3    0    0  0.21592616503E+02 -0.41591136076E+01  0.18220436665E+02  0.28557374279E+02  0.00000000000E+00 0. -1.
</event>
<event>
 7    1  0.2505412E-009  0.4778727E+02  0.7816164E-02  0.1312668E+00
        -11   -1    0    0    0    0  0.00000000000E+00  0.00000000000E+00  0.45593999997E+02  0.45594000000E+02  0.51100000000E-03 0.  1.
         11   -1    0    0    0    0 -0.00000000000E+00 -0.00000000000E+00 -0.45593999997E+02  0.45594000000E+02  0.51100000000E-03 0. -1.
    9900012    2    1    2    0    0 -0.39567727438E+02 -0.80949652112E+01 -0.15889920922E+02  0.47787273010E+02  0.20000008961E+02 0.  0.
        -12    1    1    2    0    0  0.39567727438E+02  0.80949652112E+01  0.15889920922E+02  0.43400726990E+02  0.00000000000E+00 0.  1.
         11    1    3    3    0    0 -0.68025476400E+01 -0.27273517332E+01 -0.46456438725E+01  0.86772754435E+01  0.51100000000E-03 0. -1.
        -11    1    3    3    0    0 -0.15367346266E+02  0.61792143750E+01 -0.55176518053E+01  0.17458021173E+02  0.51100000000E-03 0.  1.
        -12    1    3    3    0    0 -0.17397833532E+02 -0.11546827853E+02 -0.57266252441E+01  0.21651976394E+02  0.00000000000E+00 0.  1.
</event>
<event>
 7    1  0.2505412E-009  0.4778727E+02  0.7816164E-02  0.1312668E+00
        -11   -1    0    0    0    0  0.00000000000E+00  0.00000000000E+00  0.45593999997E+02  0.45594000000E+02  0.51100000000E-03 0.  1.
         11   -1    0    0    0    0 -0.00000000000E+00 -0.00000000000E+00 -0.45593999997E+02  0.45594000000E+02  0.51100000000E-03 0. -1.
    9900012    2    1    2    0    0 -0.20970410551E+02  0.15618116361E+02 -0.34640142331E+02  0.47787272609E+02  0.20000007135E+02 0.  0.
        -12    1    1    2    0    0  0.20970410551E+02 -0.15618116361E+02  0.34640142331E+02  0.43400727391E+02  0.00000000000E+00 0.  1.
         11    1    3    3    0    0 -0.38703222072E+01  0.58367362765E+01 -0.11508413229E+02  0.13471839506E+02  0.51100000000E-03 0. -1.
        -11    1    3    3    0    0 -0.19426398491E+02  0.10603007715E+02 -0.17662830322E+02  0.28315796054E+02  0.51100000000E-03 0.  1.
        -12    1    3    3    0    0  0.23263101470E+01 -0.82162763078E+00 -0.54688987795E+01  0.59996370493E+01  0.00000000000E+00 0.  1.
</event>
<event>
 7    1  0.2505412E-009  0.4778727E+02  0.7816164E-02  0.1312668E+00
        -11   -1    0    0    0    0  0.00000000000E+00  0.00000000000E+00  0.45593999997E+02  0.45594000000E+02  0.51100000000E-03 0.  1.
         11   -1    0    0    0    0 -0.00000000000E+00 -0.00000000000E+00 -0.45593999997E+02  0.45594000000E+02  0.51100000000E-03 0. -1.
    9900012    2    1    2    0    0  0.39250003921E+02  0.43314669503E+01 -0.18008303505E+02  0.47787269489E+02  0.19999992907E+02 0.  0.
        -12    1    1    2    0    0 -0.39250003921E+02 -0.43314669503E+01  0.18008303505E+02  0.43400730511E+02  0.00000000000E+00 0.  1.
         11    1    3    3    0    0  0.14166444997E+02  0.45077116059E+01 -0.37537834620E+01  0.15332922693E+02  0.51100000000E-03 0. -1.
        -11    1    3    3    0    0  0.17259338258E+02 -0.69427657580E+01 -0.72731903072E+01  0.19974635190E+02  0.51100000000E-03 0.  1.
         12    1    3    3    0    0  0.78242206661E+01  0.67665211024E+01 -0.69813297362E+01  0.12479711605E+02  0.00000000000E+00 0. -1.
</event>
<event>
 7    1  0.2505412E-009  0.4778727E+02  0.7816164E-02  0.1312668E+00
        -11   -1    0    0    0    0  0.00000000000E+00  0.00000000000E+00  0.45593999997E+02  0.45594000000E+02  0.51100000000E-03 0.  1.
         11   -1    0    0    0    0 -0.00000000000E+00 -0.00000000000E+00 -0.45593999997E+02  0.45594000000E+02  0.51100000000E-03 0. -1.
    9900012    2    1    2    0    0 -0.31785559318E+02  0.22426415941E+02 -0.19244671520E+02  0.47787270800E+02  0.19999998887E+02 0.  0.
        -12    1    1    2    0    0  0.31785559318E+02 -0.22426415941E+02  0.19244671520E+02  0.43400729200E+02  0.00000000000E+00 0.  1.
         11    1    3    3    0    0 -0.67085531044E+01  0.78891337868E+01  0.55900859150E+00  0.10370901963E+02  0.51100000000E-03 0. -1.
        -11    1    3    3    0    0 -0.11315200847E+02 -0.86882850660E-02 -0.10089395147E+02  0.15160136556E+02  0.51100000000E-03 0.  1.
         12    1    3    3    0    0 -0.13761805366E+02  0.14545970440E+02 -0.97142849647E+01  0.22256232281E+02  0.00000000000E+00 0. -1.
</event>
<event>
 7    1  0.2505412E-009  0.4778727E+02  0.7816164E-02  0.1312668E+00
        -11   -1    0    0    0    0  0.00000000000E+00  0.00000000000E+00  0.45593999997E+02  0.45594000000E+02  0.51100000000E-03 0. -1.
         11   -1    0    0    0    0 -0.00000000000E+00 -0.00000000000E+00 -0.45593999997E+02  0.45594000000E+02  0.51100000000E-03 0.  1.
    9900012    2    1    2    0    0 -0.29580478645E+02  0.26206436364E+02  0.17939935096E+02  0.47787270801E+02  0.19999998891E+02 0.  0.
        -12    1    1    2    0    0  0.29580478645E+02 -0.26206436364E+02 -0.17939935096E+02  0.43400729199E+02  0.00000000000E+00 0.  1.
         11    1    3    3    0    0 -0.24916325333E+02  0.13545249119E+02  0.12769802609E+02  0.31102490266E+02  0.51100000000E-03 0. -1.
        -11    1    3    3    0    0 -0.55325917876E+01  0.49484048472E+01  0.49468148262E+01  0.89200481840E+01  0.51100000000E-03 0.  1.
        -12    1    3    3    0    0  0.86843847621E+00  0.77127823980E+01  0.22331766037E+00  0.77647323510E+01  0.00000000000E+00 0.  1.
</event>
<event>
 7    1  0.2505412E-009  0.4778727E+02  0.7816164E-02  0.1312668E+00
        -11   -1    0    0    0    0  0.00000000000E+00  0.00000000000E+00  0.45593999997E+02  0.45594000000E+02  0.51100000000E-03 0. -1.
         11   -1    0    0    0    0 -0.00000000000E+00 -0.00000000000E+00 -0.45593999997E+02  0.45594000000E+02  0.51100000000E-03 0.  1.
    9900012    2    1    2    0    0 -0.11826750099E+02  0.40657176211E+01  0.41559851472E+02  0.47787270374E+02  0.19999996945E+02 0.  0.
        -12    1    1    2    0    0  0.11826750099E+02 -0.40657176211E+01 -0.41559851472E+02  0.43400729626E+02  0.00000000000E+00 0.  1.
         11    1    3    3    0    0  0.49945958460E+01  0.15142192689E+01  0.11124087541E+02  0.12287561660E+02  0.51100000000E-03 0. -1.
        -11    1    3    3    0    0 -0.47535763677E+01 -0.22055284940E+01  0.74884281138E+01  0.91398796545E+01  0.51100000000E-03 0.  1.
        -12    1    3    3    0    0 -0.12067769577E+02  0.47570268463E+01  0.22947335817E+02  0.26359829060E+02  0.00000000000E+00 0.  1.
</event>
<event>
 7    1  0.2505412E-009  0.4778727E+02  0.7816164E-02  0.1312668E+00
        -11   -1    0    0    0    0  0.00000000000E+00  0.00000000000E+00  0.45593999997E+02  0.45594000000E+02  0.51100000000E-03 0.  1.
         11   -1    0    0    0    0 -0.00000000000E+00 -0.00000000000E+00 -0.45593999997E+02  0.45594000000E+02  0.51100000000E-03 0. -1.
    9900012    2    1    2    0    0  0.12074012814E+02  0.79071701841E+01 -0.40930650886E+02  0.47787270655E+02  0.19999998224E+02 0.  0.
        -12    1    1    2    0    0 -0.12074012814E+02 -0.79071701841E+01  0.40930650886E+02  0.43400729345E+02  0.00000000000E+00 0.  1.
         11    1    3    3    0    0  0.62350568297E+01  0.55816953723E+01 -0.39563836382E+02  0.40439193939E+02  0.51100000000E-03 0. -1.
        -11    1    3    3    0    0  0.37191146337E+01  0.83906409302E+00 -0.24603915278E+01  0.45375509851E+01  0.51100000000E-03 0.  1.
         12    1    3    3    0    0  0.21198413509E+01  0.14864107189E+01  0.10935770241E+01  0.28105257312E+01  0.00000000000E+00 0. -1.
</event>
<event>
 7    1  0.2505412E-009  0.4778727E+02  0.7816164E-02  0.1312668E+00
        -11   -1    0    0    0    0  0.00000000000E+00  0.00000000000E+00  0.45593999997E+02  0.45594000000E+02  0.51100000000E-03 0. -1.
         11   -1    0    0    0    0 -0.00000000000E+00 -0.00000000000E+00 -0.45593999997E+02  0.45594000000E+02  0.51100000000E-03 0.  1.
    9900012    2    1    2    0    0 -0.27811223767E+02 -0.19611925177E+02  0.26935688673E+02  0.47787273038E+02  0.20000009089E+02 0.  0.
        -12    1    1    2    0    0  0.27811223767E+02  0.19611925177E+02 -0.26935688673E+02  0.43400726962E+02  0.00000000000E+00 0.  1.
         11    1    3    3    0    0 -0.44555662900E+01  0.70332080510E+00  0.65727124509E+01  0.79716548057E+01  0.51100000000E-03 0. -1.
        -11    1    3    3    0    0 -0.27645054552E+00 -0.12567472115E+01  0.68598569440E+01  0.69795039947E+01  0.51100000000E-03 0.  1.
         12    1    3    3    0    0 -0.23079206932E+02 -0.19058498770E+02  0.13503119278E+02  0.32836114237E+02  0.00000000000E+00 0. -1.
</event>
<event>
 7    1  0.2505412E-009  0.4778727E+02  0.7816164E-02  0.1312668E+00
        -11   -1    0    0    0    0  0.00000000000E+00  0.00000000000E+00  0.45593999997E+02  0.45594000000E+02  0.51100000000E-03 0.  1.
         11   -1    0    0    0    0 -0.00000000000E+00 -0.00000000000E+00 -0.45593999997E+02  0.45594000000E+02  0.51100000000E-03 0. -1.
    9900012    2    1    2    0    0 -0.12117657649E+02 -0.41646742378E+02 -0.15278929878E+01  0.47787271498E+02  0.20000002066E+02 0.  0.
        -12    1    1    2    0    0  0.12117657649E+02  0.41646742378E+02  0.15278929878E+01  0.43400728502E+02  0.00000000000E+00 0.  1.
         11    1    3    3    0    0 -0.64076075480E+01 -0.16539340458E+02 -0.16492294969E+00  0.17737937228E+02  0.51100000000E-03 0. -1.
        -11    1    3    3    0    0 -0.15486383168E+01 -0.25711924420E+02 -0.53831272533E+00  0.25764144054E+02  0.51100000000E-03 0.  1.
        -12    1    3    3    0    0 -0.41614117845E+01  0.60452250029E+00 -0.82465731274E+00  0.42851902148E+01  0.00000000000E+00 0.  1.
</event>
<event>
 7    1  0.2505412E-009  0.4778727E+02  0.7816164E-02  0.1312668E+00
        -11   -1    0    0    0    0  0.00000000000E+00  0.00000000000E+00  0.45593999997E+02  0.45594000000E+02  0.51100000000E-03 0.  1.
         11   -1    0    0    0    0 -0.00000000000E+00 -0.00000000000E+00 -0.45593999997E+02  0.45594000000E+02  0.51100000000E-03 0. -1.
    9900012    2    1    2    0    0 -0.13016852346E+02  0.94231559429E+01 -0.40316112819E+02  0.47787271138E+02  0.20000000427E+02 0.  0.
        -12    1    1    2    0    0  0.13016852346E+02 -0.94231559429E+01  0.40316112819E+02  0.43400728862E+02  0.00000000000E+00 0.  1.
         11    1    3    3    0    0 -0.25875788555E+01  0.55945793038E+01 -0.30925004331E+02  0.31533328005E+02  0.51100000000E-03 0. -1.
        -11    1    3    3    0    0 -0.46072790802E+01  0.17212628602E+01  0.10287976728E+00  0.49193852120E+01  0.51100000000E-03 0.  1.
         12    1    3    3    0    0 -0.58219944105E+01  0.21073137789E+01 -0.94939882548E+01  0.11334557921E+02  0.00000000000E+00 0. -1.
</event>
<event>
 7    1  0.2505412E-009  0.4778727E+02  0.7816164E-02  0.1312668E+00
        -11   -1    0    0    0    0  0.00000000000E+00  0.00000000000E+00  0.45593999997E+02  0.45594000000E+02  0.51100000000E-03 0.  1.
         11   -1    0    0    0    0 -0.00000000000E+00 -0.00000000000E+00 -0.45593999997E+02  0.45594000000E+02  0.51100000000E-03 0. -1.
    9900012    2    1    2    0    0  0.31798866765E+02  0.58964804180E+01  0.28942817414E+02  0.47787273178E+02  0.20000009726E+02 0.  0.
        -12    1    1    2    0    0 -0.31798866765E+02 -0.58964804180E+01 -0.28942817414E+02  0.43400726822E+02  0.00000000000E+00 0.  1.
         11    1    3    3    0    0  0.21692506546E+02  0.67126207231E+01  0.13690054241E+02  0.26514933578E+02  0.51100000000E-03 0. -1.
        -11    1    3    3    0    0  0.97107731718E+01 -0.46967671441E+01  0.12426764236E+02  0.16455491692E+02  0.51100000000E-03 0.  1.
         12    1    3    3    0    0  0.39558704664E+00  0.38806268390E+01  0.28259989368E+01  0.48168479077E+01  0.00000000000E+00 0. -1.
</event>
<event>
 7    1  0.2505412E-009  0.4778727E+02  0.7816164E-02  0.1312668E+00
        -11   -1    0    0    0    0  0.00000000000E+00  0.00000000000E+00  0.45593999997E+02  0.45594000000E+02  0.51100000000E-03 0.  1.
         11   -1    0    0    0    0 -0.00000000000E+00 -0.00000000000E+00 -0.45593999997E+02  0.45594000000E+02  0.51100000000E-03 0. -1.
    9900012    2    1    2    0    0  0.20012599726E+02  0.33838731532E+02 -0.18386398925E+02  0.47787267691E+02  0.19999984711E+02 0.  0.
        -12    1    1    2    0    0 -0.20012599726E+02 -0.33838731532E+02  0.18386398925E+02  0.43400732309E+02  0.00000000000E+00 0.  1.
         11    1    3    3    0    0  0.63727514741E+01  0.62214730154E+01 -0.33368633218E+00  0.89123529251E+01  0.51100000000E-03 0. -1.
        -11    1    3    3    0    0  0.65084793874E+01  0.86339316697E+01  0.12423952251E+01  0.10883410595E+02  0.51100000000E-03 0.  1.
        -12    1    3    3    0    0  0.71313688645E+01  0.18983326847E+02 -0.19295107818E+02  0.27991504171E+02  0.00000000000E+00 0.  1.
</event>
<event>
 7    1  0.2505412E-009  0.4778728E+02  0.7816164E-02  0.1312668E+00
        -11   -1    0    0    0    0  0.00000000000E+00  0.00000000000E+00  0.45593999997E+02  0.45594000000E+02  0.51100000000E-03 0.  1.
         11   -1    0    0    0    0 -0.00000000000E+00 -0.00000000000E+00 -0.45593999997E+02  0.45594000000E+02  0.51100000000E-03 0. -1.
    9900012    2    1    2    0    0 -0.28675207954E+02  0.11746571619E+02  0.30387060207E+02  0.47787275075E+02  0.20000018376E+02 0.  0.
        -12    1    1    2    0    0  0.28675207954E+02 -0.11746571619E+02 -0.30387060207E+02  0.43400724925E+02  0.00000000000E+00 0.  1.
         11    1    3    3    0    0 -0.10378651178E+02  0.60405062037E+01  0.22480025514E+01  0.12217104043E+02  0.51100000000E-03 0. -1.
        -11    1    3    3    0    0 -0.15451995169E+01 -0.26251874810E+01  0.41651342706E+01  0.51601932726E+01  0.51100000000E-03 0.  1.
         12    1    3    3    0    0 -0.16751357260E+02  0.83312528960E+01  0.23973923385E+02  0.30409977759E+02  0.00000000000E+00 0. -1.
</event>
<event>
 7    1  0.2505412E-009  0.4778727E+02  0.7816164E-02  0.1312668E+00
        -11   -1    0    0    0    0  0.00000000000E+00  0.00000000000E+00  0.45593999997E+02  0.45594000000E+02  0.51100000000E-03 0. -1.
         11   -1    0    0    0    0 -0.00000000000E+00 -0.00000000000E+00 -0.45593999997E+02  0.45594000000E+02  0.51100000000E-03 0.  1.
    9900012    2    1    2    0    0  0.10689588733E+02  0.41129162393E+02  0.88174900477E+01  0.47787269163E+02  0.19999991423E+02 0.  0.
        -12    1    1    2    0    0 -0.10689588733E+02 -0.41129162393E+02 -0.88174900477E+01  0.43400730837E+02  0.00000000000E+00 0.  1.
         11    1    3    3    0    0  0.11454275075E+02  0.20824659789E+02  0.86391445691E+00  0.23782624356E+02  0.51100000000E-03 0. -1.
        -11    1    3    3    0    0 -0.47730608638E+00 -0.79177693803E+00  0.18062163127E+01  0.20290760087E+01  0.51100000000E-03 0.  1.
         12    1    3    3    0    0 -0.28738025510E+00  0.21096279542E+02  0.61473592781E+01  0.21975568798E+02  0.00000000000E+00 0. -1.
</event>
<event>
 7    1  0.2505412E-009  0.4778727E+02  0.7816164E-02  0.1312668E+00
        -11   -1    0    0    0    0  0.00000000000E+00  0.00000000000E+00  0.45593999997E+02  0.45594000000E+02  0.51100000000E-03 0. -1.
         11   -1    0    0    0    0 -0.00000000000E+00 -0.00000000000E+00 -0.45593999997E+02  0.45594000000E+02  0.51100000000E-03 0.  1.
    9900012    2    1    2    0    0  0.37851081997E+02  0.72904050009E+00 -0.21222330657E+02  0.47787271585E+02  0.20000002465E+02 0.  0.
        -12    1    1    2    0    0 -0.37851081997E+02 -0.72904050009E+00  0.21222330657E+02  0.43400728415E+02  0.00000000000E+00 0.  1.
         11    1    3    3    0    0  0.15908361215E+02  0.12159394925E+01 -0.15570379778E+02  0.22293299264E+02  0.51100000000E-03 0. -1.
        -11    1    3    3    0    0  0.19272586380E+02 -0.39602456626E-01 -0.89312514258E+01  0.21241501981E+02  0.51100000000E-03 0.  1.
        -12    1    3    3    0    0  0.26701344022E+01 -0.44729653578E+00  0.32793005462E+01  0.42524703396E+01  0.00000000000E+00 0.  1.
</event>
<event>
 7    1  0.2505412E-009  0.4778727E+02  0.7816164E-02  0.1312668E+00
        -11   -1    0    0    0    0  0.00000000000E+00  0.00000000000E+00  0.45593999997E+02  0.45594000000E+02  0.51100000000E-03 0. -1.
         11   -1    0    0    0    0 -0.00000000000E+00 -0.00000000000E+00 -0.45593999997E+02  0.45594000000E+02  0.51100000000E-03 0.  1.
    9900012    2    1    2    0    0 -0.12158879673E+02  0.36484482687E+02 -0.20116347974E+02  0.47787270886E+02  0.19999999276E+02 0.  0.
        -12    1    1    2    0    0  0.12158879673E+02 -0.36484482687E+02  0.20116347974E+02  0.43400729114E+02  0.00000000000E+00 0.  1.
         11    1    3    3    0    0  0.18542359296E+01  0.86764203697E+01 -0.67126454175E+01  0.11125559315E+02  0.51100000000E-03 0. -1.
        -11    1    3    3    0    0 -0.40257008942E+01  0.20307735980E+02 -0.12397615207E+02  0.24131126608E+02  0.51100000000E-03 0.  1.
         12    1    3    3    0    0 -0.99874147088E+01  0.75003263373E+01 -0.10060873499E+01  0.12530584962E+02  0.00000000000E+00 0. -1.
</event>
<event>
 7    1  0.2505412E-009  0.4778728E+02  0.7816164E-02  0.1312668E+00
        -11   -1    0    0    0    0  0.00000000000E+00  0.00000000000E+00  0.45593999997E+02  0.45594000000E+02  0.51100000000E-03 0.  1.
         11   -1    0    0    0    0 -0.00000000000E+00 -0.00000000000E+00 -0.45593999997E+02  0.45594000000E+02  0.51100000000E-03 0. -1.
    9900012    2    1    2    0    0 -0.29135312222E+01 -0.75328239144E+01 -0.42642594012E+02  0.47787275071E+02  0.20000018357E+02 0.  0.
        -12    1    1    2    0    0  0.29135312222E+01  0.75328239144E+01  0.42642594012E+02  0.43400724929E+02  0.00000000000E+00 0.  1.
         11    1    3    3    0    0 -0.42086357361E+01 -0.54915264663E+01 -0.24976378123E+02  0.25916962440E+02  0.51100000000E-03 0. -1.
        -11    1    3    3    0    0  0.24608011449E+01  0.33100472443E+01 -0.15400617660E+02  0.15943367888E+02  0.51100000000E-03 0.  1.
         12    1    3    3    0    0 -0.11656966310E+01 -0.53513446924E+01 -0.22655982288E+01  0.59269447431E+01  0.00000000000E+00 0. -1.
</event>
<event>
 7    1  0.2505412E-009  0.4778726E+02  0.7816164E-02  0.1312668E+00
        -11   -1    0    0    0    0  0.00000000000E+00  0.00000000000E+00  0.45593999997E+02  0.45594000000E+02  0.51100000000E-03 0.  1.
         11   -1    0    0    0    0 -0.00000000000E+00 -0.00000000000E+00 -0.45593999997E+02  0.45594000000E+02  0.51100000000E-03 0. -1.
    9900012    2    1    2    0    0 -0.26975936930E+01  0.42590386166E+02 -0.78997500924E+01  0.47787262022E+02  0.19999958864E+02 0.  0.
        -12    1    1    2    0    0  0.26975936930E+01 -0.42590386166E+02  0.78997500924E+01  0.43400737978E+02  0.00000000000E+00 0.  1.
         11    1    3    3    0    0  0.47869279076E+01  0.24614479477E+02 -0.48992659748E+01  0.25549757065E+02  0.51100000000E-03 0. -1.
        -11    1    3    3    0    0 -0.10145958733E+01  0.57205312629E+01  0.36549520568E+01  0.68638587919E+01  0.51100000000E-03 0.  1.
         12    1    3    3    0    0 -0.64699257273E+01  0.12255375426E+02 -0.66554361744E+01  0.15373646165E+02  0.00000000000E+00 0. -1.
</event>
<event>
 7    1  0.2841353E-009  0.4778727E+02  0.7816164E-02  0.1312668E+00
        -11   -1    0    0    0    0  0.00000000000E+00  0.00000000000E+00  0.45593999997E+02  0.45594000000E+02  0.51100000000E-03 0.  1.
         11   -1    0    0    0    0 -0.00000000000E+00 -0.00000000000E+00 -0.45593999997E+02  0.45594000000E+02  0.51100000000E-03 0. -1.
    9900012    2    1    2    0    0  0.54909534275E+01 -0.35495392881E+02  0.24362875204E+02  0.47787272201E+02  0.20000005271E+02 0.  0.
        -12    1    1    2    0    0 -0.54909534275E+01  0.35495392881E+02 -0.24362875204E+02  0.43400727799E+02  0.00000000000E+00 0.  1.
         11    1    3    3    0    0  0.10312728560E+02 -0.29427305201E+02  0.17905944371E+02  0.35957495823E+02  0.51100000000E-03 0. -1.
        -11    1    3    3    0    0 -0.30470499999E+01 -0.42734674724E+01  0.74536630206E+01  0.91161466983E+01  0.51100000000E-03 0.  1.
        -12    1    3    3    0    0 -0.17747251327E+01 -0.17946202074E+01 -0.99673218732E+00  0.27136296797E+01  0.00000000000E+00 0.  1.
</event>
<event>
 7    1  0.2505412E-009  0.4778727E+02  0.7816164E-02  0.1312668E+00
        -11   -1    0    0    0    0  0.00000000000E+00  0.00000000000E+00  0.45593999997E+02  0.45594000000E+02  0.51100000000E-03 0.  1.
         11   -1    0    0    0    0 -0.00000000000E+00 -0.00000000000E+00 -0.45593999997E+02  0.45594000000E+02  0.51100000000E-03 0. -1.
    9900012    2    1    2    0    0 -0.10056507734E+02 -0.19835811563E+02 -0.37269695864E+02  0.47787274223E+02  0.20000014492E+02 0.  0.
        -12    1    1    2    0    0  0.10056507734E+02  0.19835811563E+02  0.37269695864E+02  0.43400725777E+02  0.00000000000E+00 0.  1.
         11    1    3    3    0    0 -0.98360118021E+00 -0.32771694631E+01 -0.41072957326E+01  0.53457636936E+01  0.51100000000E-03 0. -1.
        -11    1    3    3    0    0 -0.40111893287E+01 -0.56089060626E+01 -0.28799789631E+02  0.29613803371E+02  0.51100000000E-03 0.  1.
        -12    1    3    3    0    0 -0.50617172255E+01 -0.10949736037E+02 -0.43626105002E+01  0.12827707158E+02  0.00000000000E+00 0.  1.
</event>
<event>
 7    1  0.2505412E-009  0.4778727E+02  0.7816164E-02  0.1312668E+00
        -11   -1    0    0    0    0  0.00000000000E+00  0.00000000000E+00  0.45593999997E+02  0.45594000000E+02  0.51100000000E-03 0.  1.
         11   -1    0    0    0    0 -0.00000000000E+00 -0.00000000000E+00 -0.45593999997E+02  0.45594000000E+02  0.51100000000E-03 0. -1.
    9900012    2    1    2    0    0 -0.15464926193E+02  0.10809300800E+02 -0.39084762161E+02  0.47787267759E+02  0.19999985019E+02 0.  0.
        -12    1    1    2    0    0  0.15464926193E+02 -0.10809300800E+02  0.39084762161E+02  0.43400732241E+02  0.00000000000E+00 0.  1.
         11    1    3    3    0    0 -0.55888741809E+01  0.35477502569E+01 -0.53081336293E+01  0.84851829316E+01  0.51100000000E-03 0. -1.
        -11    1    3    3    0    0  0.21620745805E+01  0.58945528504E+01 -0.19968404906E+02  0.20932212366E+02  0.51100000000E-03 0.  1.
        -12    1    3    3    0    0 -0.12038126592E+02  0.13669976928E+01 -0.13808223626E+02  0.18369872461E+02  0.00000000000E+00 0.  1.
</event>
<event>
 7    1  0.2505412E-009  0.4778727E+02  0.7816164E-02  0.1312668E+00
        -11   -1    0    0    0    0  0.00000000000E+00  0.00000000000E+00  0.45593999997E+02  0.45594000000E+02  0.51100000000E-03 0. -1.
         11   -1    0    0    0    0 -0.00000000000E+00 -0.00000000000E+00 -0.45593999997E+02  0.45594000000E+02  0.51100000000E-03 0.  1.
    9900012    2    1    2    0    0  0.23580868776E+02  0.33882046062E+02  0.13400475655E+02  0.47787272295E+02  0.20000005702E+02 0.  0.
        -12    1    1    2    0    0 -0.23580868776E+02 -0.33882046062E+02 -0.13400475655E+02  0.43400727705E+02  0.00000000000E+00 0.  1.
         11    1    3    3    0    0  0.76580757225E+01  0.15008841905E+02  0.62061674048E+01  0.17956279493E+02  0.51100000000E-03 0. -1.
        -11    1    3    3    0    0  0.15570917945E+02  0.16432018884E+02  0.44163920975E+00  0.22641991426E+02  0.51100000000E-03 0.  1.
         12    1    3    3    0    0  0.35187510841E+00  0.24411852720E+01  0.67526690401E+01  0.71890013764E+01  0.00000000000E+00 0. -1.
</event>
<event>
 7    1  0.2505412E-009  0.4778727E+02  0.7816164E-02  0.1312668E+00
        -11   -1    0    0    0    0  0.00000000000E+00  0.00000000000E+00  0.45593999997E+02  0.45594000000E+02  0.51100000000E-03 0. -1.
         11   -1    0    0    0    0 -0.00000000000E+00 -0.00000000000E+00 -0.45593999997E+02  0.45594000000E+02  0.51100000000E-03 0.  1.
    9900012    2    1    2    0    0  0.21847774760E+01  0.34992013255E+02  0.25581419832E+02  0.47787270918E+02  0.19999999422E+02 0.  0.
        -12    1    1    2    0    0 -0.21847774760E+01 -0.34992013255E+02 -0.25581419832E+02  0.43400729082E+02  0.00000000000E+00 0.  1.
         11    1    3    3    0    0  0.20670040951E+01  0.29950836286E+02  0.27060925823E+02  0.40418050508E+02  0.51100000000E-03 0. -1.
        -11    1    3    3    0    0  0.22649925142E+01  0.71748597113E+00 -0.26030080168E+00  0.23901326275E+01  0.51100000000E-03 0.  1.
        -12    1    3    3    0    0 -0.21472191334E+01  0.43236909980E+01 -0.12192051898E+01  0.49790877827E+01  0.00000000000E+00 0.  1.
</event>
<event>
 7    1  0.2505412E-009  0.4778727E+02  0.7816164E-02  0.1312668E+00
        -11   -1    0    0    0    0  0.00000000000E+00  0.00000000000E+00  0.45593999997E+02  0.45594000000E+02  0.51100000000E-03 0.  1.
         11   -1    0    0    0    0 -0.00000000000E+00 -0.00000000000E+00 -0.45593999997E+02  0.45594000000E+02  0.51100000000E-03 0. -1.
    9900012    2    1    2    0    0  0.15489053064E+02 -0.40255851493E+02 -0.48144678203E+01  0.47787269077E+02  0.19999991032E+02 0.  0.
        -12    1    1    2    0    0 -0.15489053064E+02  0.40255851493E+02  0.48144678203E+01  0.43400730923E+02  0.00000000000E+00 0.  1.
         11    1    3    3    0    0  0.13242826209E+02 -0.25856571718E+02  0.44341143477E+01  0.29387005926E+02  0.51100000000E-03 0. -1.
        -11    1    3    3    0    0  0.20613304861E+00 -0.11850747028E+01 -0.37584456430E+01  0.39462395768E+01  0.51100000000E-03 0.  1.
        -12    1    3    3    0    0  0.20400938064E+01 -0.13214205072E+02 -0.54901365250E+01  0.14454023574E+02  0.00000000000E+00 0.  1.
</event>
<event>
 7    1  0.3525258E-009  0.4778727E+02  0.7816164E-02  0.1312668E+00
        -11   -1    0    0    0    0  0.00000000000E+00  0.00000000000E+00  0.45593999997E+02  0.45594000000E+02  0.51100000000E-03 0.  1.
         11   -1    0    0    0    0 -0.00000000000E+00 -0.00000000000E+00 -0.45593999997E+02  0.45594000000E+02  0.51100000000E-03 0. -1.
    9900012    2    1    2    0    0  0.19072891404E+02  0.38757643785E+02 -0.42063207354E+01  0.47787271062E+02  0.20000000079E+02 0.  0.
        -12    1    1    2    0    0 -0.19072891404E+02 -0.38757643785E+02  0.42063207354E+01  0.43400728938E+02  0.00000000000E+00 0.  1.
         11    1    3    3    0    0  0.15939375386E+02  0.20846666550E+02 -0.59031606412E+01  0.26897853069E+02  0.51100000000E-03 0. -1.
        -11    1    3    3    0    0  0.45253406704E+01  0.18684716458E+02  0.16617075469E+01  0.19296595802E+02  0.51100000000E-03 0.  1.
        -12    1    3    3    0    0 -0.13918246526E+01 -0.77373922285E+00  0.35132358842E-01  0.15928221907E+01  0.00000000000E+00 0.  1.
</event>
<event>
 7    1  0.2505412E-009  0.4778725E+02  0.7816164E-02  0.1312668E+00
        -11   -1    0    0    0    0  0.00000000000E+00  0.00000000000E+00  0.45593999997E+02  0.45594000000E+02  0.51100000000E-03 0. -1.
         11   -1    0    0    0    0 -0.00000000000E+00 -0.00000000000E+00 -0.45593999997E+02  0.45594000000E+02  0.51100000000E-03 0.  1.
    9900012    2    1    2    0    0  0.10761137718E+02  0.39068395333E+02  0.15539727693E+02  0.47787254204E+02  0.19999923217E+02 0.  0.
        -12    1    1    2    0    0 -0.10761137718E+02 -0.39068395333E+02 -0.15539727693E+02  0.43400745796E+02  0.00000000000E+00 0.  1.
         11    1    3    3    0    0  0.12397635551E+02  0.20848938271E+02  0.10193685790E+02  0.26311420040E+02  0.51100000000E-03 0. -1.
        -11    1    3    3    0    0  0.15299500499E+01  0.11077673438E+02  0.73857629183E+01  0.13401682361E+02  0.51100000000E-03 0.  1.
        -12    1    3    3    0    0 -0.31664478822E+01  0.71417836234E+01 -0.20397210153E+01  0.80741518028E+01  0.00000000000E+00 0.  1.
</event>
<event>
 7    1  0.2505412E-009  0.4778727E+02  0.7816164E-02  0.1312668E+00
        -11   -1    0    0    0    0  0.00000000000E+00  0.00000000000E+00  0.45593999997E+02  0.45594000000E+02  0.51100000000E-03 0.  1.
         11   -1    0    0    0    0 -0.00000000000E+00 -0.00000000000E+00 -0.45593999997E+02  0.45594000000E+02  0.51100000000E-03 0. -1.
    9900012    2    1    2    0    0  0.51732291839E+01  0.19937729659E+02 -0.38201412668E+02  0.47787270812E+02  0.19999998941E+02 0.  0.
        -12    1    1    2    0    0 -0.51732291839E+01 -0.19937729659E+02  0.38201412668E+02  0.43400729188E+02  0.00000000000E+00 0.  1.
         11    1    3    3    0    0  0.42259584309E+01  0.12768747705E+02 -0.13644675354E+02  0.19159248638E+02  0.51100000000E-03 0. -1.
        -11    1    3    3    0    0  0.32414311435E+00 -0.14208368299E+01  0.92776121387E+00  0.17275957823E+01  0.51100000000E-03 0.  1.
         12    1    3    3    0    0  0.62312763863E+00  0.85898187844E+01 -0.25484498529E+02  0.26900426392E+02  0.00000000000E+00 0. -1.
</event>
<event>
 7    1  0.2505412E-009  0.4778727E+02  0.7816164E-02  0.1312668E+00
        -11   -1    0    0    0    0  0.00000000000E+00  0.00000000000E+00  0.45593999997E+02  0.45594000000E+02  0.51100000000E-03 0.  1.
         11   -1    0    0    0    0 -0.00000000000E+00 -0.00000000000E+00 -0.45593999997E+02  0.45594000000E+02  0.51100000000E-03 0. -1.
    9900012    2    1    2    0    0  0.19616221105E+02 -0.35728871567E+02 -0.14908879489E+02  0.47787273260E+02  0.20000010104E+02 0.  0.
        -12    1    1    2    0    0 -0.19616221105E+02  0.35728871567E+02  0.14908879489E+02  0.43400726740E+02  0.00000000000E+00 0.  1.
         11    1    3    3    0    0  0.16106645934E+01 -0.18576418327E+01 -0.60784571443E+01  0.65568830344E+01  0.51100000000E-03 0. -1.
        -11    1    3    3    0    0  0.37726595332E+01 -0.18262759430E+01 -0.40749444880E+01  0.58458033336E+01  0.51100000000E-03 0.  1.
         12    1    3    3    0    0  0.14232896978E+02 -0.32044953792E+02 -0.47554778564E+01  0.35384586892E+02  0.00000000000E+00 0. -1.
</event>
<event>
 7    1  0.2505412E-009  0.4778727E+02  0.7816164E-02  0.1312668E+00
        -11   -1    0    0    0    0  0.00000000000E+00  0.00000000000E+00  0.45593999997E+02  0.45594000000E+02  0.51100000000E-03 0.  1.
         11   -1    0    0    0    0 -0.00000000000E+00 -0.00000000000E+00 -0.45593999997E+02  0.45594000000E+02  0.51100000000E-03 0. -1.
    9900012    2    1    2    0    0 -0.21524317072E+01  0.92262753607E+01 -0.42354057422E+02  0.47787270750E+02  0.19999998658E+02 0.  0.
        -12    1    1    2    0    0  0.21524317072E+01 -0.92262753607E+01  0.42354057422E+02  0.43400729250E+02  0.00000000000E+00 0.  1.
         11    1    3    3    0    0 -0.41797567052E+01 -0.10447744162E+01 -0.99033492518E+01  0.10799918813E+02  0.51100000000E-03 0.  1.
        -11    1    3    3    0    0  0.70796654270E+01  0.10326466093E+02 -0.20629300569E+02  0.24131423637E+02  0.51100000000E-03 0. -1.
         12    1    3    3    0    0 -0.50523404290E+01 -0.55416316298E-01 -0.11821407601E+02  0.12855928300E+02  0.00000000000E+00 0. -1.
</event>
<event>
 7    1  0.2505412E-009  0.4778728E+02  0.7816164E-02  0.1312668E+00
        -11   -1    0    0    0    0  0.00000000000E+00  0.00000000000E+00  0.45593999997E+02  0.45594000000E+02  0.51100000000E-03 0.  1.
         11   -1    0    0    0    0 -0.00000000000E+00 -0.00000000000E+00 -0.45593999997E+02  0.45594000000E+02  0.51100000000E-03 0. -1.
    9900012    2    1    2    0    0  0.21455213491E+02  0.25225300926E+02 -0.28053168919E+02  0.47787282504E+02  0.20000052249E+02 0.  0.
        -12    1    1    2    0    0 -0.21455213491E+02 -0.25225300926E+02  0.28053168919E+02  0.43400717496E+02  0.00000000000E+00 0.  1.
         11    1    3    3    0    0  0.64923245195E+01  0.48199565525E+01 -0.47398022657E+00  0.80998096491E+01  0.51100000000E-03 0. -1.
        -11    1    3    3    0    0  0.16450808251E+02  0.13019153482E+02 -0.21018061641E+02  0.29696571602E+02  0.51100000000E-03 0.  1.
        -12    1    3    3    0    0 -0.14879192790E+01  0.73861908917E+01 -0.65611270512E+01  0.99909012532E+01  0.00000000000E+00 0.  1.
</event>
<event>
 7    1  0.2505412E-009  0.4778727E+02  0.7816164E-02  0.1312668E+00
        -11   -1    0    0    0    0  0.00000000000E+00  0.00000000000E+00  0.45593999997E+02  0.45594000000E+02  0.51100000000E-03 0. -1.
         11   -1    0    0    0    0 -0.00000000000E+00 -0.00000000000E+00 -0.45593999997E+02  0.45594000000E+02  0.51100000000E-03 0.  1.
    9900012    2    1    2    0    0  0.10002964669E+01 -0.15187812196E+02 -0.40644224906E+02  0.47787271313E+02  0.20000001226E+02 0.  0.
        -12    1    1    2    0    0 -0.10002964669E+01  0.15187812196E+02  0.40644224906E+02  0.43400728687E+02  0.00000000000E+00 0.  1.
         11    1    3    3    0    0  0.38076374572E+01 -0.60553781826E+01 -0.68685808282E+01  0.99168095068E+01  0.51100000000E-03 0. -1.
        -11    1    3    3    0    0  0.47877782463E+01 -0.67083789849E+01 -0.11036838252E+02  0.13774504274E+02  0.51100000000E-03 0.  1.
         12    1    3    3    0    0 -0.75951192366E+01 -0.24240550286E+01 -0.22738805826E+02  0.24095957532E+02  0.00000000000E+00 0. -1.
</event>
<event>
 7    1  0.2505412E-009  0.4778727E+02  0.7816164E-02  0.1312668E+00
        -11   -1    0    0    0    0  0.00000000000E+00  0.00000000000E+00  0.45593999997E+02  0.45594000000E+02  0.51100000000E-03 0.  1.
         11   -1    0    0    0    0 -0.00000000000E+00 -0.00000000000E+00 -0.45593999997E+02  0.45594000000E+02  0.51100000000E-03 0. -1.
    9900012    2    1    2    0    0 -0.98815405173E+01 -0.21295246395E+02 -0.36503306377E+02  0.47787265692E+02  0.19999975595E+02 0.  0.
        -12    1    1    2    0    0  0.98815405173E+01  0.21295246395E+02  0.36503306377E+02  0.43400734308E+02  0.00000000000E+00 0.  1.
         11    1    3    3    0    0 -0.54016409941E+00 -0.17101819899E+01 -0.11451342003E+02  0.11590933251E+02  0.51100000000E-03 0. -1.
        -11    1    3    3    0    0 -0.76322299729E+01 -0.71391334441E+01 -0.20173200540E+02  0.22719511020E+02  0.51100000000E-03 0.  1.
        -12    1    3    3    0    0 -0.17091464450E+01 -0.12445930961E+02 -0.48787638339E+01  0.13476821421E+02  0.00000000000E+00 0.  1.
</event>
<event>
 7    1  0.2505412E-009  0.4778727E+02  0.7816164E-02  0.1312668E+00
        -11   -1    0    0    0    0  0.00000000000E+00  0.00000000000E+00  0.45593999997E+02  0.45594000000E+02  0.51100000000E-03 0. -1.
         11   -1    0    0    0    0 -0.00000000000E+00 -0.00000000000E+00 -0.45593999997E+02  0.45594000000E+02  0.51100000000E-03 0.  1.
    9900012    2    1    2    0    0 -0.40661312738E+02 -0.10572206753E+02  0.10886195812E+02  0.47787272259E+02  0.20000005539E+02 0.  0.
        -12    1    1    2    0    0  0.40661312738E+02  0.10572206753E+02 -0.10886195812E+02  0.43400727741E+02  0.00000000000E+00 0.  1.
         11    1    3    3    0    0 -0.77967418761E+01  0.33267385072E+01 -0.34959508284E+00  0.84840196818E+01  0.51100000000E-03 0. -1.
        -11    1    3    3    0    0 -0.45839127019E+01 -0.70857242337E+01  0.11632324427E+01  0.85189702166E+01  0.51100000000E-03 0.  1.
         12    1    3    3    0    0 -0.28280658160E+02 -0.68132210267E+01  0.10072558452E+02  0.30784282361E+02  0.00000000000E+00 0. -1.
</event>
<event>
 7    1  0.2505412E-009  0.4778727E+02  0.7816164E-02  0.1312668E+00
        -11   -1    0    0    0    0  0.00000000000E+00  0.00000000000E+00  0.45593999997E+02  0.45594000000E+02  0.51100000000E-03 0.  1.
         11   -1    0    0    0    0 -0.00000000000E+00 -0.00000000000E+00 -0.45593999997E+02  0.45594000000E+02  0.51100000000E-03 0. -1.
    9900012    2    1    2    0    0 -0.23447437529E+02 -0.70667734205E+01 -0.35831574690E+02  0.47787270075E+02  0.19999995581E+02 0.  0.
        -12    1    1    2    0    0  0.23447437529E+02  0.70667734205E+01  0.35831574690E+02  0.43400729925E+02  0.00000000000E+00 0.  1.
         11    1    3    3    0    0  0.13351419386E+00  0.81069866165E+00  0.29975409363E+00  0.87459198358E+00  0.51100000000E-03 0.  1.
        -11    1    3    3    0    0 -0.17022646293E+02 -0.77951891212E+01 -0.12807199190E+02  0.22683910853E+02  0.51100000000E-03 0. -1.
         12    1    3    3    0    0 -0.65583054300E+01 -0.82282960906E-01 -0.23324129594E+02  0.24228767238E+02  0.00000000000E+00 0. -1.
</event>
<event>
 7    1  0.2505412E-009  0.4778727E+02  0.7816164E-02  0.1312668E+00
        -11   -1    0    0    0    0  0.00000000000E+00  0.00000000000E+00  0.45593999997E+02  0.45594000000E+02  0.51100000000E-03 0. -1.
         11   -1    0    0    0    0 -0.00000000000E+00 -0.00000000000E+00 -0.45593999997E+02  0.45594000000E+02  0.51100000000E-03 0.  1.
    9900012    2    1    2    0    0 -0.36064777824E+02  0.22429668035E+02  0.89367352239E+01  0.47787269083E+02  0.19999991057E+02 0.  0.
        -12    1    1    2    0    0  0.36064777824E+02 -0.22429668035E+02 -0.89367352239E+01  0.43400730917E+02  0.00000000000E+00 0.  1.
         11    1    3    3    0    0 -0.10155466679E+02  0.48339935203E+01  0.73578904072E+01  0.13440221290E+02  0.51100000000E-03 0. -1.
        -11    1    3    3    0    0 -0.27559510362E+02  0.15955939680E+02  0.67821844642E+00  0.31852450503E+02  0.51100000000E-03 0.  1.
        -12    1    3    3    0    0  0.16501992171E+01  0.16397348342E+01  0.90062637018E+00  0.24945972904E+01  0.00000000000E+00 0.  1.
</event>
<event>
 7    1  0.2505412E-009  0.4778727E+02  0.7816164E-02  0.1312668E+00
        -11   -1    0    0    0    0  0.00000000000E+00  0.00000000000E+00  0.45593999997E+02  0.45594000000E+02  0.51100000000E-03 0. -1.
         11   -1    0    0    0    0 -0.00000000000E+00 -0.00000000000E+00 -0.45593999997E+02  0.45594000000E+02  0.51100000000E-03 0.  1.
    9900012    2    1    2    0    0  0.42602833237E+02  0.44344308294E+01  0.69969793486E+01  0.47787270783E+02  0.19999998806E+02 0.  0.
        -12    1    1    2    0    0 -0.42602833237E+02 -0.44344308294E+01 -0.69969793486E+01  0.43400729217E+02  0.00000000000E+00 0.  1.
         11    1    3    3    0    0  0.89261529604E+01  0.23612893770E+01  0.22930754887E+01  0.95136790808E+01  0.51100000000E-03 0. -1.
        -11    1    3    3    0    0  0.19707397331E+02 -0.64545361447E+01 -0.14506632862E+01  0.20788144954E+02  0.51100000000E-03 0.  1.
        -12    1    3    3    0    0  0.13969282946E+02  0.85276775971E+01  0.61545671461E+01  0.17485446748E+02  0.00000000000E+00 0.  1.
</event>
<event>
 7    1  0.2505412E-009  0.4778725E+02  0.7816164E-02  0.1312668E+00
        -11   -1    0    0    0    0  0.00000000000E+00  0.00000000000E+00  0.45593999997E+02  0.45594000000E+02  0.51100000000E-03 0.  1.
         11   -1    0    0    0    0 -0.00000000000E+00 -0.00000000000E+00 -0.45593999997E+02  0.45594000000E+02  0.51100000000E-03 0. -1.
    9900012    2    1    2    0    0 -0.19275758804E+02 -0.42969916758E+01 -0.38647200609E+02  0.47787249663E+02  0.19999902513E+02 0.  0.
        -12    1    1    2    0    0  0.19275758804E+02  0.42969916758E+01  0.38647200609E+02  0.43400750337E+02  0.00000000000E+00 0.  1.
         11    1    3    3    0    0 -0.94474962622E+01  0.32429178452E+01 -0.11999022600E+02  0.15612438804E+02  0.51100000000E-03 0. -1.
        -11    1    3    3    0    0 -0.98459923837E+01 -0.97709643628E+01 -0.15478973721E+02  0.20784944992E+02  0.51100000000E-03 0.  1.
         12    1    3    3    0    0  0.17729842277E-01  0.22310548419E+01 -0.11169204288E+02  0.11389865867E+02  0.00000000000E+00 0. -1.
</event>
<event>
 7    1  0.2505412E-009  0.4778726E+02  0.7816164E-02  0.1312668E+00
        -11   -1    0    0    0    0  0.00000000000E+00  0.00000000000E+00  0.45593999997E+02  0.45594000000E+02  0.51100000000E-03 0. -1.
         11   -1    0    0    0    0 -0.00000000000E+00 -0.00000000000E+00 -0.45593999997E+02  0.45594000000E+02  0.51100000000E-03 0.  1.
    9900012    2    1    2    0    0  0.34540294600E+02  0.24962559381E+02  0.82135680640E+01  0.47787262423E+02  0.19999960689E+02 0.  0.
        -12    1    1    2    0    0 -0.34540294600E+02 -0.24962559381E+02 -0.82135680640E+01  0.43400737577E+02  0.00000000000E+00 0.  1.
         11    1    3    3    0    0  0.28880420266E+02  0.11337849795E+02  0.97759177935E+00  0.31041604319E+02  0.51100000000E-03 0. -1.
        -11    1    3    3    0    0  0.13401678214E+00  0.18268785162E+01  0.19804923058E+01  0.26977389876E+01  0.51100000000E-03 0.  1.
         12    1    3    3    0    0  0.55258575516E+01  0.11797831070E+02  0.52554839788E+01  0.14047919116E+02  0.00000000000E+00 0. -1.
</event>
<event>
 7    1  0.2505412E-009  0.4778727E+02  0.7816164E-02  0.1312668E+00
        -11   -1    0    0    0    0  0.00000000000E+00  0.00000000000E+00  0.45593999997E+02  0.45594000000E+02  0.51100000000E-03 0.  1.
         11   -1    0    0    0    0 -0.00000000000E+00 -0.00000000000E+00 -0.45593999997E+02  0.45594000000E+02  0.51100000000E-03 0. -1.
    9900012    2    1    2    0    0 -0.17994038272E+02  0.46708643546E+01 -0.39217605285E+02  0.47787274759E+02  0.20000016937E+02 0.  0.
        -12    1    1    2    0    0  0.17994038272E+02 -0.46708643546E+01  0.39217605285E+02  0.43400725241E+02  0.00000000000E+00 0.  1.
         11    1    3    3    0    0 -0.76539990237E+01  0.55209086102E+01 -0.27022472476E+02  0.28623035337E+02  0.51100000000E-03 0. -1.
        -11    1    3    3    0    0 -0.17161413724E+01  0.34940309760E+01 -0.38901720830E+00  0.39121258058E+01  0.51100000000E-03 0.  1.
         12    1    3    3    0    0 -0.86238978758E+01 -0.43440752316E+01 -0.11806115601E+02  0.15252113616E+02  0.00000000000E+00 0. -1.
</event>
<event>
 7    1  0.2505412E-009  0.4778727E+02  0.7816164E-02  0.1312668E+00
        -11   -1    0    0    0    0  0.00000000000E+00  0.00000000000E+00  0.45593999997E+02  0.45594000000E+02  0.51100000000E-03 0.  1.
         11   -1    0    0    0    0 -0.00000000000E+00 -0.00000000000E+00 -0.45593999997E+02  0.45594000000E+02  0.51100000000E-03 0. -1.
    9900012    2    1    2    0    0  0.37764312796E+02  0.19365990268E+02  0.90795752810E+01  0.47787267434E+02  0.19999983538E+02 0.  0.
        -12    1    1    2    0    0 -0.37764312796E+02 -0.19365990268E+02 -0.90795752810E+01  0.43400732566E+02  0.00000000000E+00 0.  1.
         11    1    3    3    0    0  0.12841292268E+02  0.12139672384E+02  0.28322321766E+00  0.17673444722E+02  0.51100000000E-03 0. -1.
        -11    1    3    3    0    0  0.15147181404E+02  0.97441142949E+01  0.24168676674E+01  0.18172124737E+02  0.51100000000E-03 0.  1.
        -12    1    3    3    0    0  0.97758391244E+01 -0.25177964114E+01  0.63794843960E+01  0.11941697975E+02  0.00000000000E+00 0.  1.
</event>
<event>
 7    1  0.2505412E-009  0.4778727E+02  0.7816164E-02  0.1312668E+00
        -11   -1    0    0    0    0  0.00000000000E+00  0.00000000000E+00  0.45593999997E+02  0.45594000000E+02  0.51100000000E-03 0.  1.
         11   -1    0    0    0    0 -0.00000000000E+00 -0.00000000000E+00 -0.45593999997E+02  0.45594000000E+02  0.51100000000E-03 0. -1.
    9900012    2    1    2    0    0  0.33406325395E+02 -0.25439449716E+02 -0.10976116908E+02  0.47787270506E+02  0.19999997543E+02 0.  0.
        -12    1    1    2    0    0 -0.33406325395E+02  0.25439449716E+02  0.10976116908E+02  0.43400729494E+02  0.00000000000E+00 0.  1.
         11    1    3    3    0    0  0.15995298160E+02 -0.62174207436E+01 -0.63347039864E+01  0.18293013934E+02  0.51100000000E-03 0. -1.
        -11    1    3    3    0    0  0.49599998548E+01  0.94121974256E-01 -0.42137725817E+01  0.65089428586E+01  0.51100000000E-03 0.  1.
         12    1    3    3    0    0  0.12451027380E+02 -0.19316150947E+02 -0.42764034038E+00  0.22985313713E+02  0.00000000000E+00 0. -1.
</event>
<event>
 7    1  0.2505412E-009  0.4778726E+02  0.7816164E-02  0.1312668E+00
        -11   -1    0    0    0    0  0.00000000000E+00  0.00000000000E+00  0.45593999997E+02  0.45594000000E+02  0.51100000000E-03 0. -1.
         11   -1    0    0    0    0 -0.00000000000E+00 -0.00000000000E+00 -0.45593999997E+02  0.45594000000E+02  0.51100000000E-03 0.  1.
    9900012    2    1    2    0    0  0.80209130557E+01 -0.30195459187E+02  0.30125125903E+02  0.47787262536E+02  0.19999961206E+02 0.  0.
        -12    1    1    2    0    0 -0.80209130557E+01  0.30195459187E+02 -0.30125125903E+02  0.43400737464E+02  0.00000000000E+00 0.  1.
         11    1    3    3    0    0  0.19115289078E+01  0.12542217397E+00  0.52169721587E+01  0.55575599190E+01  0.51100000000E-03 0. -1.
        -11    1    3    3    0    0  0.67269968044E+01 -0.25550093792E+02  0.26241131373E+02  0.37237840362E+02  0.51100000000E-03 0.  1.
        -12    1    3    3    0    0 -0.61761265650E+00 -0.47707875682E+01 -0.13329776289E+01  0.49918622551E+01  0.00000000000E+00 0.  1.
</event>
<event>
 7    1  0.2505412E-009  0.4778727E+02  0.7816164E-02  0.1312668E+00
        -11   -1    0    0    0    0  0.00000000000E+00  0.00000000000E+00  0.45593999997E+02  0.45594000000E+02  0.51100000000E-03 0.  1.
         11   -1    0    0    0    0 -0.00000000000E+00 -0.00000000000E+00 -0.45593999997E+02  0.45594000000E+02  0.51100000000E-03 0. -1.
    9900012    2    1    2    0    0 -0.26483993040E+02  0.49378906446E+01 -0.34027031248E+02  0.47787268359E+02  0.19999987757E+02 0.  0.
        -12    1    1    2    0    0  0.26483993040E+02 -0.49378906446E+01  0.34027031248E+02  0.43400731641E+02  0.00000000000E+00 0.  1.
         11    1    3    3    0    0 -0.23089302046E+02  0.70006938757E+01 -0.31287607622E+02  0.39509998414E+02  0.51100000000E-03 0. -1.
        -11    1    3    3    0    0 -0.37524307361E+01  0.15916045388E+01 -0.19635385665E+01  0.45243149095E+01  0.51100000000E-03 0.  1.
        -12    1    3    3    0    0  0.35773974161E+00 -0.36544077699E+01 -0.77588505958E+00  0.37529550353E+01  0.00000000000E+00 0.  1.
</event>
<event>
 7    1  0.2505412E-009  0.4778727E+02  0.7816164E-02  0.1312668E+00
        -11   -1    0    0    0    0  0.00000000000E+00  0.00000000000E+00  0.45593999997E+02  0.45594000000E+02  0.51100000000E-03 0.  1.
         11   -1    0    0    0    0 -0.00000000000E+00 -0.00000000000E+00 -0.45593999997E+02  0.45594000000E+02  0.51100000000E-03 0. -1.
    9900012    2    1    2    0    0 -0.18028409182E+02 -0.70332063562E+01 -0.38847568412E+02  0.47787273038E+02  0.20000009090E+02 0.  0.
        -12    1    1    2    0    0  0.18028409182E+02  0.70332063562E+01  0.38847568412E+02  0.43400726962E+02  0.00000000000E+00 0.  1.
         11    1    3    3    0    0 -0.13920927023E+02 -0.87515044315E+01 -0.39565917577E+02  0.42846737017E+02  0.51100000000E-03 0. -1.
        -11    1    3    3    0    0 -0.53283481039E+00 -0.45103427622E+00  0.20601886980E+00  0.72786598308E+00  0.51100000000E-03 0.  1.
         12    1    3    3    0    0 -0.35746473491E+01  0.21693323515E+01  0.51233029535E+00  0.42126700384E+01  0.00000000000E+00 0. -1.
</event>
<event>
 7    1  0.2505412E-009  0.4778727E+02  0.7816164E-02  0.1312668E+00
        -11   -1    0    0    0    0  0.00000000000E+00  0.00000000000E+00  0.45593999997E+02  0.45594000000E+02  0.51100000000E-03 0.  1.
         11   -1    0    0    0    0 -0.00000000000E+00 -0.00000000000E+00 -0.45593999997E+02  0.45594000000E+02  0.51100000000E-03 0. -1.
    9900012    2    1    2    0    0  0.23298727323E+02  0.17646570241E+00 -0.36616409804E+02  0.47787270721E+02  0.19999998527E+02 0.  0.
        -12    1    1    2    0    0 -0.23298727323E+02 -0.17646570241E+00  0.36616409804E+02  0.43400729279E+02  0.00000000000E+00 0.  1.
         11    1    3    3    0    0  0.80093943658E+01 -0.29220525352E+01 -0.21105412222E+02  0.22762407923E+02  0.51100000000E-03 0. -1.
        -11    1    3    3    0    0  0.56651448341E+01  0.61439392485E+01 -0.11377106559E+02  0.14116671328E+02  0.51100000000E-03 0.  1.
        -12    1    3    3    0    0  0.96241881231E+01 -0.30454210109E+01 -0.41338910228E+01  0.10908191470E+02  0.00000000000E+00 0.  1.
</event>
<event>
 7    1  0.2505412E-009  0.4778727E+02  0.7816164E-02  0.1312668E+00
        -11   -1    0    0    0    0  0.00000000000E+00  0.00000000000E+00  0.45593999997E+02  0.45594000000E+02  0.51100000000E-03 0.  1.
         11   -1    0    0    0    0 -0.00000000000E+00 -0.00000000000E+00 -0.45593999997E+02  0.45594000000E+02  0.51100000000E-03 0. -1.
    9900012    2    1    2    0    0  0.16278878731E+02 -0.15495449503E+02 -0.37128325014E+02  0.47787269979E+02  0.19999995141E+02 0.  0.
        -12    1    1    2    0    0 -0.16278878731E+02  0.15495449503E+02  0.37128325014E+02  0.43400730021E+02  0.00000000000E+00 0.  1.
         11    1    3    3    0    0  0.88061456375E+00 -0.61831559554E+01 -0.13284610038E+02  0.14679501480E+02  0.51100000000E-03 0. -1.
        -11    1    3    3    0    0  0.78628787604E+01 -0.63751090927E+01 -0.27095141805E+01  0.10478947738E+02  0.51100000000E-03 0.  1.
        -12    1    3    3    0    0  0.75353854071E+01 -0.29371844547E+01 -0.21134200795E+02  0.22628820761E+02  0.00000000000E+00 0.  1.
</event>
<event>
 7    1  0.2505412E-009  0.4778728E+02  0.7816164E-02  0.1312668E+00
        -11   -1    0    0    0    0  0.00000000000E+00  0.00000000000E+00  0.45593999997E+02  0.45594000000E+02  0.51100000000E-03 0.  1.
         11   -1    0    0    0    0 -0.00000000000E+00 -0.00000000000E+00 -0.45593999997E+02  0.45594000000E+02  0.51100000000E-03 0. -1.
    9900012    2    1    2    0    0 -0.36780991001E+02  0.22552514905E+02  0.47080318986E+01  0.47787276597E+02  0.20000025314E+02 0.  0.
        -12    1    1    2    0    0  0.36780991001E+02 -0.22552514905E+02 -0.47080318986E+01  0.43400723403E+02  0.00000000000E+00 0.  1.
         11    1    3    3    0    0 -0.13119580270E+02  0.90703586705E+01 -0.44240892487E+01  0.16551959364E+02  0.51100000000E-03 0. -1.
        -11    1    3    3    0    0 -0.76523104245E+01  0.11146746042E+02  0.58259109056E+01  0.14722399271E+02  0.51100000000E-03 0.  1.
         12    1    3    3    0    0 -0.16009100307E+02  0.23354101921E+01  0.33062102417E+01  0.16512917961E+02  0.00000000000E+00 0. -1.
</event>
<event>
 7    1  0.2505412E-009  0.4778727E+02  0.7816164E-02  0.1312668E+00
        -11   -1    0    0    0    0  0.00000000000E+00  0.00000000000E+00  0.45593999997E+02  0.45594000000E+02  0.51100000000E-03 0.  1.
         11   -1    0    0    0    0 -0.00000000000E+00 -0.00000000000E+00 -0.45593999997E+02  0.45594000000E+02  0.51100000000E-03 0. -1.
    9900012    2    1    2    0    0  0.26368994124E+01 -0.43238860205E+02  0.26591077080E+01  0.47787272769E+02  0.20000007863E+02 0.  0.
        -12    1    1    2    0    0 -0.26368994124E+01  0.43238860205E+02 -0.26591077080E+01  0.43400727231E+02  0.00000000000E+00 0.  1.
         11    1    3    3    0    0  0.42075118295E+01 -0.41837770225E+01 -0.25492940898E+00  0.59390348740E+01  0.51100000000E-03 0. -1.
        -11    1    3    3    0    0 -0.69197173260E+01 -0.10796561746E+02  0.26081311053E+01  0.13086274547E+02  0.51100000000E-03 0.  1.
         12    1    3    3    0    0  0.53491049088E+01 -0.28258521437E+02  0.30590601174E+00  0.28761963348E+02  0.00000000000E+00 0. -1.
</event>
<event>
 7    1  0.2505412E-009  0.4778727E+02  0.7816164E-02  0.1312668E+00
        -11   -1    0    0    0    0  0.00000000000E+00  0.00000000000E+00  0.45593999997E+02  0.45594000000E+02  0.51100000000E-03 0. -1.
         11   -1    0    0    0    0 -0.00000000000E+00 -0.00000000000E+00 -0.45593999997E+02  0.45594000000E+02  0.51100000000E-03 0.  1.
    9900012    2    1    2    0    0 -0.35725171505E+02 -0.16346530646E+02 -0.18442506510E+02  0.47787274320E+02  0.20000014933E+02 0.  0.
        -12    1    1    2    0    0  0.35725171505E+02  0.16346530646E+02  0.18442506510E+02  0.43400725680E+02  0.00000000000E+00 0.  1.
         11    1    3    3    0    0 -0.24947193425E+00 -0.45461543761E+01  0.24851273287E+00  0.45597713426E+01  0.51100000000E-03 0. -1.
        -11    1    3    3    0    0 -0.15876048808E+02 -0.22027348166E+01 -0.28954722357E+01  0.16287563542E+02  0.51100000000E-03 0.  1.
         12    1    3    3    0    0 -0.19599650763E+02 -0.95976414530E+01 -0.15795547007E+02  0.26939939435E+02  0.00000000000E+00 0. -1.
</event>
<event>
 7    1  0.2505412E-009  0.4778727E+02  0.7816164E-02  0.1312668E+00
        -11   -1    0    0    0    0  0.00000000000E+00  0.00000000000E+00  0.45593999997E+02  0.45594000000E+02  0.51100000000E-03 0.  1.
         11   -1    0    0    0    0 -0.00000000000E+00 -0.00000000000E+00 -0.45593999997E+02  0.45594000000E+02  0.51100000000E-03 0. -1.
    9900012    2    1    2    0    0  0.14788636080E+02 -0.11349731558E+02 -0.39193150355E+02  0.47787271915E+02  0.20000003971E+02 0.  0.
        -12    1    1    2    0    0 -0.14788636080E+02  0.11349731558E+02  0.39193150355E+02  0.43400728085E+02  0.00000000000E+00 0.  1.
         11    1    3    3    0    0  0.93064614988E+01  0.34531338600E+01 -0.19350990603E+02  0.21748452742E+02  0.51100000000E-03 0. -1.
        -11    1    3    3    0    0  0.22434603814E+01 -0.42510275859E+01 -0.23378866348E+01  0.53450972112E+01  0.51100000000E-03 0.  1.
         12    1    3    3    0    0  0.32387141996E+01 -0.10551837832E+02 -0.17504273117E+02  0.20693721962E+02  0.00000000000E+00 0. -1.
</event>
<event>
 7    1  0.2505412E-009  0.4778727E+02  0.7816164E-02  0.1312668E+00
        -11   -1    0    0    0    0  0.00000000000E+00  0.00000000000E+00  0.45593999997E+02  0.45594000000E+02  0.51100000000E-03 0. -1.
         11   -1    0    0    0    0 -0.00000000000E+00 -0.00000000000E+00 -0.45593999997E+02  0.45594000000E+02  0.51100000000E-03 0.  1.
    9900012    2    1    2    0    0 -0.94632276660E+00 -0.42196730051E+02 -0.10107606875E+02  0.47787271084E+02  0.20000000178E+02 0.  0.
        -12    1    1    2    0    0  0.94632276660E+00  0.42196730051E+02  0.10107606875E+02  0.43400728916E+02  0.00000000000E+00 0.  1.
         11    1    3    3    0    0 -0.19845086615E+01  0.74992883527E+00 -0.20170039754E+01  0.29272808515E+01  0.51100000000E-03 0.  1.
        -11    1    3    3    0    0  0.47788378008E+01 -0.18405578497E+02 -0.60348509903E+01  0.19950489650E+02  0.51100000000E-03 0. -1.
         12    1    3    3    0    0 -0.37406519059E+01 -0.24541080389E+02 -0.20557519090E+01  0.24909500582E+02  0.00000000000E+00 0. -1.
</event>
<event>
 7    1  0.2505412E-009  0.4778727E+02  0.7816164E-02  0.1312668E+00
        -11   -1    0    0    0    0  0.00000000000E+00  0.00000000000E+00  0.45593999997E+02  0.45594000000E+02  0.51100000000E-03 0.  1.
         11   -1    0    0    0    0 -0.00000000000E+00 -0.00000000000E+00 -0.45593999997E+02  0.45594000000E+02  0.51100000000E-03 0. -1.
    9900012    2    1    2    0    0 -0.87324924427E+01  0.24910472228E+02 -0.34450472757E+02  0.47787272770E+02  0.20000007869E+02 0.  0.
        -12    1    1    2    0    0  0.87324924427E+01 -0.24910472228E+02  0.34450472757E+02  0.43400727230E+02  0.00000000000E+00 0.  1.
         11    1    3    3    0    0 -0.19561270340E+01  0.11989561587E+02 -0.22465666800E+02  0.25539816073E+02  0.51100000000E-03 0. -1.
        -11    1    3    3    0    0 -0.45441504373E+01  0.14973805144E+02 -0.93406594070E+01  0.18223942003E+02  0.51100000000E-03 0.  1.
        -12    1    3    3    0    0 -0.22322149714E+01 -0.20528945031E+01 -0.26441465504E+01  0.40235146948E+01  0.00000000000E+00 0.  1.
</event>
<event>
 7    1  0.2505412E-009  0.4778727E+02  0.7816164E-02  0.1312668E+00
        -11   -1    0    0    0    0  0.00000000000E+00  0.00000000000E+00  0.45593999997E+02  0.45594000000E+02  0.51100000000E-03 0.  1.
         11   -1    0    0    0    0 -0.00000000000E+00 -0.00000000000E+00 -0.45593999997E+02  0.45594000000E+02  0.51100000000E-03 0. -1.
    9900012    2    1    2    0    0 -0.21513799594E+02  0.15456401671E+02 -0.34378468137E+02  0.47787274234E+02  0.20000014542E+02 0.  0.
        -12    1    1    2    0    0  0.21513799594E+02 -0.15456401671E+02  0.34378468137E+02  0.43400725766E+02  0.00000000000E+00 0.  1.
         11    1    3    3    0    0 -0.99644221760E+01  0.84343171782E+01 -0.22475826442E+02  0.25992117845E+02  0.51100000000E-03 0. -1.
        -11    1    3    3    0    0 -0.14023225795E+02  0.45794775888E+01 -0.91338646414E+01  0.17350791343E+02  0.51100000000E-03 0.  1.
        -12    1    3    3    0    0  0.24738483778E+01  0.24426069039E+01 -0.27687770537E+01  0.44443650454E+01  0.00000000000E+00 0.  1.
</event>
<event>
 7    1  0.2505412E-009  0.4778727E+02  0.7816164E-02  0.1312668E+00
        -11   -1    0    0    0    0  0.00000000000E+00  0.00000000000E+00  0.45593999997E+02  0.45594000000E+02  0.51100000000E-03 0.  1.
         11   -1    0    0    0    0 -0.00000000000E+00 -0.00000000000E+00 -0.45593999997E+02  0.45594000000E+02  0.51100000000E-03 0. -1.
    9900012    2    1    2    0    0  0.16306944877E+02  0.30317450800E+01 -0.40106299469E+02  0.47787272050E+02  0.20000004587E+02 0.  0.
        -12    1    1    2    0    0 -0.16306944877E+02 -0.30317450800E+01  0.40106299469E+02  0.43400727950E+02  0.00000000000E+00 0.  1.
         11    1    3    3    0    0  0.16568713887E+02  0.29357936603E+01 -0.33469176613E+02  0.37461005695E+02  0.51100000000E-03 0. -1.
        -11    1    3    3    0    0  0.50102038586E+00  0.39494395797E+01 -0.32427317857E+01  0.51346279433E+01  0.51100000000E-03 0.  1.
         12    1    3    3    0    0 -0.76278939607E+00 -0.38534881600E+01 -0.33943910704E+01  0.51916384120E+01  0.00000000000E+00 0. -1.
</event>
<event>
 7    1  0.2505412E-009  0.4778727E+02  0.7816164E-02  0.1312668E+00
        -11   -1    0    0    0    0  0.00000000000E+00  0.00000000000E+00  0.45593999997E+02  0.45594000000E+02  0.51100000000E-03 0. -1.
         11   -1    0    0    0    0 -0.00000000000E+00 -0.00000000000E+00 -0.45593999997E+02  0.45594000000E+02  0.51100000000E-03 0.  1.
    9900012    2    1    2    0    0  0.39825313842E+02  0.78362259621E+01  0.15367535881E+02  0.47787271677E+02  0.20000002883E+02 0.  0.
        -12    1    1    2    0    0 -0.39825313842E+02 -0.78362259621E+01 -0.15367535881E+02  0.43400728323E+02  0.00000000000E+00 0.  1.
         11    1    3    3    0    0  0.89360832641E+01 -0.24318518187E+01  0.76147094198E+01  0.11989632487E+02  0.51100000000E-03 0. -1.
        -11    1    3    3    0    0  0.15263019707E+02  0.66871642346E+01  0.10263702440E+02  0.19570935698E+02  0.51100000000E-03 0.  1.
        -12    1    3    3    0    0  0.15626210871E+02  0.35809135463E+01 -0.25108759790E+01  0.16226703491E+02  0.00000000000E+00 0.  1.
</event>
<event>
 7    1  0.2505412E-009  0.4778727E+02  0.7816164E-02  0.1312668E+00
        -11   -1    0    0    0    0  0.00000000000E+00  0.00000000000E+00  0.45593999997E+02  0.45594000000E+02  0.51100000000E-03 0. -1.
         11   -1    0    0    0    0 -0.00000000000E+00 -0.00000000000E+00 -0.45593999997E+02  0.45594000000E+02  0.51100000000E-03 0.  1.
    9900012    2    1    2    0    0 -0.27969454377E+02  0.13620725783E+02  0.30262331286E+02  0.47787271390E+02  0.20000001575E+02 0.  0.
        -12    1    1    2    0    0  0.27969454377E+02 -0.13620725783E+02 -0.30262331286E+02  0.43400728610E+02  0.00000000000E+00 0.  1.
         11    1    3    3    0    0 -0.12525190590E+02  0.71461943733E+01  0.92820126952E+01  0.17149468017E+02  0.51100000000E-03 0. -1.
        -11    1    3    3    0    0 -0.88906185819E+01 -0.75406531570E+00  0.18547225260E+02  0.20581819122E+02  0.51100000000E-03 0.  1.
         12    1    3    3    0    0 -0.65536452058E+01  0.72285967253E+01  0.24330933309E+01  0.10055984251E+02  0.00000000000E+00 0. -1.
</event>
<event>
 7    1  0.2505412E-009  0.4778727E+02  0.7816164E-02  0.1312668E+00
        -11   -1    0    0    0    0  0.00000000000E+00  0.00000000000E+00  0.45593999997E+02  0.45594000000E+02  0.51100000000E-03 0.  1.
         11   -1    0    0    0    0 -0.00000000000E+00 -0.00000000000E+00 -0.45593999997E+02  0.45594000000E+02  0.51100000000E-03 0. -1.
    9900012    2    1    2    0    0 -0.97487812904E+01  0.34637187073E+02 -0.24266234530E+02  0.47787267250E+02  0.19999982700E+02 0.  0.
        -12    1    1    2    0    0  0.97487812904E+01 -0.34637187073E+02  0.24266234530E+02  0.43400732750E+02  0.00000000000E+00 0.  1.
         11    1    3    3    0    0  0.56199896709E+00  0.16818483623E+02 -0.47110685436E+01  0.17474879150E+02  0.51100000000E-03 0. -1.
        -11    1    3    3    0    0 -0.81989846072E+00  0.84098878362E+01 -0.12801114989E+02  0.15338415568E+02  0.51100000000E-03 0.  1.
         12    1    3    3    0    0 -0.94908817968E+01  0.94088156130E+01 -0.67540509977E+01  0.14973972532E+02  0.00000000000E+00 0. -1.
</event>
<event>
 7    1  0.2505412E-009  0.4778727E+02  0.7816164E-02  0.1312668E+00
        -11   -1    0    0    0    0  0.00000000000E+00  0.00000000000E+00  0.45593999997E+02  0.45594000000E+02  0.51100000000E-03 0. -1.
         11   -1    0    0    0    0 -0.00000000000E+00 -0.00000000000E+00 -0.45593999997E+02  0.45594000000E+02  0.51100000000E-03 0.  1.
    9900012    2    1    2    0    0  0.37168634334E+02  0.16235903298E+02  0.15443817799E+02  0.47787269104E+02  0.19999991151E+02 0.  0.
        -12    1    1    2    0    0 -0.37168634334E+02 -0.16235903298E+02 -0.15443817799E+02  0.43400730896E+02  0.00000000000E+00 0.  1.
         11    1    3    3    0    0  0.11067358815E+02  0.73389001700E+01  0.49203235014E+01  0.14161760853E+02  0.51100000000E-03 0. -1.
        -11    1    3    3    0    0  0.13061910307E+02  0.98628698545E+01 -0.71684469664E+00  0.16383026864E+02  0.51100000000E-03 0.  1.
         12    1    3    3    0    0  0.13039365212E+02 -0.96586672697E+00  0.11240338994E+02  0.17242481387E+02  0.00000000000E+00 0. -1.
</event>
<event>
 7    1  0.2505412E-009  0.4778727E+02  0.7816164E-02  0.1312668E+00
        -11   -1    0    0    0    0  0.00000000000E+00  0.00000000000E+00  0.45593999997E+02  0.45594000000E+02  0.51100000000E-03 0. -1.
         11   -1    0    0    0    0 -0.00000000000E+00 -0.00000000000E+00 -0.45593999997E+02  0.45594000000E+02  0.51100000000E-03 0.  1.
    9900012    2    1    2    0    0 -0.30412713807E+01 -0.31992277295E+02  0.29169645318E+02  0.47787270212E+02  0.19999996205E+02 0.  0.
        -12    1    1    2    0    0  0.30412713807E+01  0.31992277295E+02 -0.29169645318E+02  0.43400729788E+02  0.00000000000E+00 0.  1.
         11    1    3    3    0    0 -0.64037215453E+00  0.15241032370E+01  0.51690072998E+00  0.17320952050E+01  0.51100000000E-03 0. -1.
        -11    1    3    3    0    0  0.11038606506E+01  0.82408492951E+00  0.36209821068E+00  0.14243383314E+01  0.51100000000E-03 0.  1.
         12    1    3    3    0    0 -0.35047598768E+01 -0.34340465462E+02  0.28290646377E+02  0.44630836676E+02  0.00000000000E+00 0. -1.
</event>
<event>
 7    1  0.2505412E-009  0.4778727E+02  0.7816164E-02  0.1312668E+00
        -11   -1    0    0    0    0  0.00000000000E+00  0.00000000000E+00  0.45593999997E+02  0.45594000000E+02  0.51100000000E-03 0.  1.
         11   -1    0    0    0    0 -0.00000000000E+00 -0.00000000000E+00 -0.45593999997E+02  0.45594000000E+02  0.51100000000E-03 0. -1.
    9900012    2    1    2    0    0 -0.16634336083E+02  0.60501219719E+01 -0.39627240796E+02  0.47787270445E+02  0.19999997266E+02 0.  0.
        -12    1    1    2    0    0  0.16634336083E+02 -0.60501219719E+01  0.39627240796E+02  0.43400729555E+02  0.00000000000E+00 0.  1.
         11    1    3    3    0    0 -0.57461850632E+01  0.89606374933E+01 -0.16958893629E+02  0.20022880423E+02  0.51100000000E-03 0. -1.
        -11    1    3    3    0    0 -0.74031697365E+01 -0.53239875879E+01 -0.21520385516E+02  0.23372607022E+02  0.51100000000E-03 0.  1.
        -12    1    3    3    0    0 -0.34849812836E+01  0.24134720665E+01 -0.11479616515E+01  0.43917829997E+01  0.00000000000E+00 0.  1.
</event>
<event>
 7    1  0.2505412E-009  0.4778725E+02  0.7816164E-02  0.1312668E+00
        -11   -1    0    0    0    0  0.00000000000E+00  0.00000000000E+00  0.45593999997E+02  0.45594000000E+02  0.51100000000E-03 0. -1.
         11   -1    0    0    0    0 -0.00000000000E+00 -0.00000000000E+00 -0.45593999997E+02  0.45594000000E+02  0.51100000000E-03 0.  1.
    9900012    2    1    2    0    0 -0.13092727880E+02 -0.10312011813E+02  0.40073285699E+02  0.47787247268E+02  0.19999891595E+02 0.  0.
        -12    1    1    2    0    0  0.13092727880E+02  0.10312011813E+02 -0.40073285699E+02  0.43400752732E+02  0.00000000000E+00 0.  1.
         11    1    3    3    0    0 -0.70631738033E+01 -0.38433030540E+01  0.98384984965E+01  0.12706512325E+02  0.51100000000E-03 0. -1.
        -11    1    3    3    0    0  0.24828019420E+01 -0.83478085380E+01  0.11578811950E+02  0.14488585138E+02  0.51100000000E-03 0.  1.
        -12    1    3    3    0    0 -0.85123560190E+01  0.18790997795E+01  0.18655975252E+02  0.20592149805E+02  0.00000000000E+00 0.  1.
</event>
<event>
 7    1  0.2505412E-009  0.4778727E+02  0.7816164E-02  0.1312668E+00
        -11   -1    0    0    0    0  0.00000000000E+00  0.00000000000E+00  0.45593999997E+02  0.45594000000E+02  0.51100000000E-03 0.  1.
         11   -1    0    0    0    0 -0.00000000000E+00 -0.00000000000E+00 -0.45593999997E+02  0.45594000000E+02  0.51100000000E-03 0. -1.
    9900012    2    1    2    0    0 -0.40858039109E+02 -0.11954505506E+02  0.84459532625E+01  0.47787266271E+02  0.19999978235E+02 0.  0.
        -12    1    1    2    0    0  0.40858039109E+02  0.11954505506E+02 -0.84459532625E+01  0.43400733729E+02  0.00000000000E+00 0.  1.
         11    1    3    3    0    0 -0.16445125353E+02 -0.48403364735E+01 -0.14507839799E+01  0.17203946625E+02  0.51100000000E-03 0. -1.
        -11    1    3    3    0    0 -0.20469893253E+02 -0.11798519112E+01  0.31006553231E+01  0.20736987342E+02  0.51100000000E-03 0.  1.
        -12    1    3    3    0    0 -0.39430205024E+01 -0.59343171215E+01  0.67960819193E+01  0.98463323037E+01  0.00000000000E+00 0.  1.
</event>
<event>
 7    1  0.2505412E-009  0.4778727E+02  0.7816164E-02  0.1312668E+00
        -11   -1    0    0    0    0  0.00000000000E+00  0.00000000000E+00  0.45593999997E+02  0.45594000000E+02  0.51100000000E-03 0.  1.
         11   -1    0    0    0    0 -0.00000000000E+00 -0.00000000000E+00 -0.45593999997E+02  0.45594000000E+02  0.51100000000E-03 0. -1.
    9900012    2    1    2    0    0  0.18021098083E+02 -0.25294365844E+02 -0.30315980089E+02  0.47787267652E+02  0.19999984532E+02 0.  0.
        -12    1    1    2    0    0 -0.18021098083E+02  0.25294365844E+02  0.30315980089E+02  0.43400732348E+02  0.00000000000E+00 0.  1.
         11    1    3    3    0    0 -0.14430815439E+01 -0.38695579816E+00  0.18768104793E+00  0.15058032969E+01  0.51100000000E-03 0. -1.
        -11    1    3    3    0    0  0.21289661635E+01  0.56876137404E+00 -0.75287329189E+01  0.78446036261E+01  0.51100000000E-03 0.  1.
        -12    1    3    3    0    0  0.17335213463E+02 -0.25476171420E+02 -0.22974928218E+02  0.38436860729E+02  0.00000000000E+00 0.  1.
</event>
<event>
 7    1  0.2505412E-009  0.4778726E+02  0.7816164E-02  0.1312668E+00
        -11   -1    0    0    0    0  0.00000000000E+00  0.00000000000E+00  0.45593999997E+02  0.45594000000E+02  0.51100000000E-03 0.  1.
         11   -1    0    0    0    0 -0.00000000000E+00 -0.00000000000E+00 -0.45593999997E+02  0.45594000000E+02  0.51100000000E-03 0. -1.
    9900012    2    1    2    0    0 -0.18399929575E+02 -0.27435016019E+02 -0.28149362973E+02  0.47787260973E+02  0.19999954080E+02 0.  0.
        -12    1    1    2    0    0  0.18399929575E+02  0.27435016019E+02  0.28149362973E+02  0.43400739027E+02  0.00000000000E+00 0.  1.
         11    1    3    3    0    0 -0.84407394628E+01 -0.17450968933E+02 -0.16329119793E+02  0.25346055962E+02  0.51100000000E-03 0. -1.
        -11    1    3    3    0    0 -0.11376936525E+02 -0.88738164191E+01 -0.48187080631E+01  0.15211812850E+02  0.51100000000E-03 0.  1.
        -12    1    3    3    0    0  0.14177464120E+01 -0.11102306667E+01 -0.70015351168E+01  0.72293921608E+01  0.00000000000E+00 0.  1.
</event>
<event>
 7    1  0.2505412E-009  0.4778728E+02  0.7816164E-02  0.1312668E+00
        -11   -1    0    0    0    0  0.00000000000E+00  0.00000000000E+00  0.45593999997E+02  0.45594000000E+02  0.51100000000E-03 0.  1.
         11   -1    0    0    0    0 -0.00000000000E+00 -0.00000000000E+00 -0.45593999997E+02  0.45594000000E+02  0.51100000000E-03 0. -1.
    9900012    2    1    2    0    0  0.19603648529E+02  0.28812501662E+02 -0.25868118819E+02  0.47787275825E+02  0.20000021797E+02 0.  0.
        -12    1    1    2    0    0 -0.19603648529E+02 -0.28812501662E+02  0.25868118819E+02  0.43400724175E+02  0.00000000000E+00 0.  1.
         11    1    3    3    0    0  0.21368755620E+02  0.26115347644E+02 -0.20200504334E+02  0.39328049467E+02  0.51100000000E-03 0. -1.
        -11    1    3    3    0    0  0.20472543316E+00 -0.15682268128E+01 -0.14112504556E+01  0.21196405235E+01  0.51100000000E-03 0.  1.
        -12    1    3    3    0    0 -0.19698325236E+01  0.42653808311E+01 -0.42563640289E+01  0.63395858344E+01  0.00000000000E+00 0.  1.
</event>
<event>
 7    1  0.2505412E-009  0.4778727E+02  0.7816164E-02  0.1312668E+00
        -11   -1    0    0    0    0  0.00000000000E+00  0.00000000000E+00  0.45593999997E+02  0.45594000000E+02  0.51100000000E-03 0.  1.
         11   -1    0    0    0    0 -0.00000000000E+00 -0.00000000000E+00 -0.45593999997E+02  0.45594000000E+02  0.51100000000E-03 0. -1.
    9900012    2    1    2    0    0 -0.58812608872E+01  0.42612871406E+01 -0.42788727464E+02  0.47787274249E+02  0.20000014609E+02 0.  0.
        -12    1    1    2    0    0  0.58812608872E+01 -0.42612871406E+01  0.42788727464E+02  0.43400725751E+02  0.00000000000E+00 0.  1.
         11    1    3    3    0    0 -0.10059400548E+00  0.17762488434E+01  0.61810457069E+00  0.18834098410E+01  0.51100000000E-03 0.  1.
        -11    1    3    3    0    0  0.35021993627E+01  0.36723333836E+01 -0.10041491989E+02  0.11250910829E+02  0.51100000000E-03 0. -1.
         12    1    3    3    0    0 -0.92828662445E+01 -0.11872950864E+01 -0.33365340046E+02  0.34652953578E+02  0.00000000000E+00 0. -1.
</event>
<event>
 7    1  0.2505412E-009  0.4778727E+02  0.7816164E-02  0.1312668E+00
        -11   -1    0    0    0    0  0.00000000000E+00  0.00000000000E+00  0.45593999997E+02  0.45594000000E+02  0.51100000000E-03 0. -1.
         11   -1    0    0    0    0 -0.00000000000E+00 -0.00000000000E+00 -0.45593999997E+02  0.45594000000E+02  0.51100000000E-03 0.  1.
    9900012    2    1    2    0    0 -0.26131330604E+02  0.25603553553E+02  0.23350271350E+02  0.47787267681E+02  0.19999984667E+02 0.  0.
        -12    1    1    2    0    0  0.26131330604E+02 -0.25603553553E+02 -0.23350271350E+02  0.43400732319E+02  0.00000000000E+00 0.  1.
         11    1    3    3    0    0 -0.18856256832E+02  0.11337376628E+02  0.10604706919E+02  0.24424461910E+02  0.51100000000E-03 0. -1.
        -11    1    3    3    0    0 -0.64854506485E+01  0.13804252274E+02  0.14713826597E+02  0.21192336925E+02  0.51100000000E-03 0.  1.
         12    1    3    3    0    0 -0.78962312312E+00  0.46192465167E+00 -0.19682621656E+01  0.21704688463E+01  0.00000000000E+00 0. -1.
</event>
<event>
 7    1  0.2505412E-009  0.4778727E+02  0.7816164E-02  0.1312668E+00
        -11   -1    0    0    0    0  0.00000000000E+00  0.00000000000E+00  0.45593999997E+02  0.45594000000E+02  0.51100000000E-03 0.  1.
         11   -1    0    0    0    0 -0.00000000000E+00 -0.00000000000E+00 -0.45593999997E+02  0.45594000000E+02  0.51100000000E-03 0. -1.
    9900012    2    1    2    0    0  0.28279108169E+02 -0.11323833123E+02 -0.30914172906E+02  0.47787271413E+02  0.20000001681E+02 0.  0.
        -12    1    1    2    0    0 -0.28279108169E+02  0.11323833123E+02  0.30914172906E+02  0.43400728587E+02  0.00000000000E+00 0.  1.
         11    1    3    3    0    0  0.17161598044E+02 -0.93713397908E+00 -0.14108257854E+02  0.22236042981E+02  0.51100000000E-03 0. -1.
        -11    1    3    3    0    0  0.10592480684E+02 -0.96511139496E+01 -0.74481217266E+01  0.16149896749E+02  0.51100000000E-03 0.  1.
        -12    1    3    3    0    0  0.52502944099E+00 -0.73558519408E+00 -0.93577933247E+01  0.94013316822E+01  0.00000000000E+00 0.  1.
</event>
<event>
 7    1  0.2505412E-009  0.4778728E+02  0.7816164E-02  0.1312668E+00
        -11   -1    0    0    0    0  0.00000000000E+00  0.00000000000E+00  0.45593999997E+02  0.45594000000E+02  0.51100000000E-03 0.  1.
         11   -1    0    0    0    0 -0.00000000000E+00 -0.00000000000E+00 -0.45593999997E+02  0.45594000000E+02  0.51100000000E-03 0. -1.
    9900012    2    1    2    0    0 -0.10141902710E+02 -0.39770258655E+00 -0.42197233856E+02  0.47787275317E+02  0.20000019480E+02 0.  0.
        -12    1    1    2    0    0  0.10141902710E+02  0.39770258655E+00  0.42197233856E+02  0.43400724683E+02  0.00000000000E+00 0.  1.
         11    1    3    3    0    0 -0.11790622887E+02 -0.12492139174E+01 -0.17530925560E+02  0.21163947522E+02  0.51100000000E-03 0. -1.
        -11    1    3    3    0    0 -0.69688386744E+00  0.50408787486E+01 -0.10557542384E+02  0.11719974707E+02  0.51100000000E-03 0.  1.
         12    1    3    3    0    0  0.23456040444E+01 -0.41893674177E+01 -0.14108765912E+02  0.14903353087E+02  0.00000000000E+00 0. -1.
</event>
<event>
 7    1  0.2505412E-009  0.4778727E+02  0.7816164E-02  0.1312668E+00
        -11   -1    0    0    0    0  0.00000000000E+00  0.00000000000E+00  0.45593999997E+02  0.45594000000E+02  0.51100000000E-03 0.  1.
         11   -1    0    0    0    0 -0.00000000000E+00 -0.00000000000E+00 -0.45593999997E+02  0.45594000000E+02  0.51100000000E-03 0. -1.
    9900012    2    1    2    0    0 -0.32533059919E+02  0.27273096582E+02 -0.90222720783E+01  0.47787272146E+02  0.20000005022E+02 0.  0.
        -12    1    1    2    0    0  0.32533059919E+02 -0.27273096582E+02  0.90222720783E+01  0.43400727854E+02  0.00000000000E+00 0.  1.
         11    1    3    3    0    0 -0.20265779434E+02  0.18856112382E+02 -0.98203913285E+01  0.29371667918E+02  0.51100000000E-03 0. -1.
        -11    1    3    3    0    0 -0.74345484017E+01  0.94965569282E+01  0.37753495743E+01  0.12637656749E+02  0.51100000000E-03 0.  1.
        -12    1    3    3    0    0 -0.48327320833E+01 -0.10795727283E+01 -0.29772303242E+01  0.57779474788E+01  0.00000000000E+00 0.  1.
</event>
<event>
 7    1  0.2505412E-009  0.4778727E+02  0.7816164E-02  0.1312668E+00
        -11   -1    0    0    0    0  0.00000000000E+00  0.00000000000E+00  0.45593999997E+02  0.45594000000E+02  0.51100000000E-03 0.  1.
         11   -1    0    0    0    0 -0.00000000000E+00 -0.00000000000E+00 -0.45593999997E+02  0.45594000000E+02  0.51100000000E-03 0. -1.
    9900012    2    1    2    0    0 -0.42936948836E+02  0.27839514269E+01  0.56825738406E+01  0.47787267214E+02  0.19999982536E+02 0.  0.
        -12    1    1    2    0    0  0.42936948836E+02 -0.27839514269E+01 -0.56825738406E+01  0.43400732786E+02  0.00000000000E+00 0.  1.
         11    1    3    3    0    0 -0.28953177062E+02 -0.98177590354E+00 -0.26628765416E+01  0.29091944893E+02  0.51100000000E-03 0. -1.
        -11    1    3    3    0    0 -0.44000342510E+01 -0.20782429626E+01  0.28192601557E+00  0.48743079264E+01  0.51100000000E-03 0.  1.
        -12    1    3    3    0    0 -0.95837375232E+01  0.58439702930E+01  0.80635243667E+01  0.13821014395E+02  0.00000000000E+00 0.  1.
</event>
<event>
 7    1  0.2505412E-009  0.4778727E+02  0.7816164E-02  0.1312668E+00
        -11   -1    0    0    0    0  0.00000000000E+00  0.00000000000E+00  0.45593999997E+02  0.45594000000E+02  0.51100000000E-03 0.  1.
         11   -1    0    0    0    0 -0.00000000000E+00 -0.00000000000E+00 -0.45593999997E+02  0.45594000000E+02  0.51100000000E-03 0. -1.
    9900012    2    1    2    0    0 -0.20516263115E+02 -0.35789501948E+02 -0.13483977392E+02  0.47787272493E+02  0.20000006603E+02 0.  0.
        -12    1    1    2    0    0  0.20516263115E+02  0.35789501948E+02  0.13483977392E+02  0.43400727507E+02  0.00000000000E+00 0.  1.
         11    1    3    3    0    0 -0.18394855553E+01 -0.16194213935E+02 -0.72888041480E+01  0.17853933411E+02  0.51100000000E-03 0. -1.
        -11    1    3    3    0    0 -0.14052468512E+02 -0.19708590170E+02 -0.31839933414E+01  0.24413893824E+02  0.51100000000E-03 0.  1.
         12    1    3    3    0    0 -0.46243090471E+01  0.11330215791E+00 -0.30111799029E+01  0.55194452574E+01  0.00000000000E+00 0. -1.
</event>
<event>
 7    1  0.2505412E-009  0.4778727E+02  0.7816164E-02  0.1312668E+00
        -11   -1    0    0    0    0  0.00000000000E+00  0.00000000000E+00  0.45593999997E+02  0.45594000000E+02  0.51100000000E-03 0. -1.
         11   -1    0    0    0    0 -0.00000000000E+00 -0.00000000000E+00 -0.45593999997E+02  0.45594000000E+02  0.51100000000E-03 0.  1.
    9900012    2    1    2    0    0 -0.87140222046E+01  0.36017034387E+02  0.22593423535E+02  0.47787265720E+02  0.19999975722E+02 0.  0.
        -12    1    1    2    0    0  0.87140222046E+01 -0.36017034387E+02 -0.22593423535E+02  0.43400734280E+02  0.00000000000E+00 0.  1.
         11    1    3    3    0    0 -0.77468219256E+01  0.11913993315E+02  0.16946548021E+01  0.14311825244E+02  0.51100000000E-03 0. -1.
        -11    1    3    3    0    0 -0.13251586575E+01  0.78231333568E+01  0.13760539525E+01  0.80530109727E+01  0.51100000000E-03 0.  1.
         12    1    3    3    0    0  0.35795837853E+00  0.16279907715E+02  0.19522714781E+02  0.25422429503E+02  0.00000000000E+00 0. -1.
</event>
<event>
 7    1  0.2505412E-009  0.4778727E+02  0.7816164E-02  0.1312668E+00
        -11   -1    0    0    0    0  0.00000000000E+00  0.00000000000E+00  0.45593999997E+02  0.45594000000E+02  0.51100000000E-03 0.  1.
         11   -1    0    0    0    0 -0.00000000000E+00 -0.00000000000E+00 -0.45593999997E+02  0.45594000000E+02  0.51100000000E-03 0. -1.
    9900012    2    1    2    0    0 -0.16846552078E+02 -0.38370740324E+02 -0.11291724586E+02  0.47787273347E+02  0.20000010496E+02 0.  0.
        -12    1    1    2    0    0  0.16846552078E+02  0.38370740324E+02  0.11291724586E+02  0.43400726653E+02  0.00000000000E+00 0.  1.
         11    1    3    3    0    0 -0.11604468512E+02 -0.19151534321E+02 -0.14081096010E+02  0.26452263067E+02  0.51100000000E-03 0. -1.
        -11    1    3    3    0    0 -0.60587017679E+01 -0.13788325534E+02 -0.24065492471E+00  0.15062659234E+02  0.51100000000E-03 0.  1.
         12    1    3    3    0    0  0.81661820284E+00 -0.54308804692E+01  0.30300263482E+01  0.62723510450E+01  0.00000000000E+00 0. -1.
</event>
<event>
 7    1  0.2505412E-009  0.4778727E+02  0.7816164E-02  0.1312668E+00
        -11   -1    0    0    0    0  0.00000000000E+00  0.00000000000E+00  0.45593999997E+02  0.45594000000E+02  0.51100000000E-03 0.  1.
         11   -1    0    0    0    0 -0.00000000000E+00 -0.00000000000E+00 -0.45593999997E+02  0.45594000000E+02  0.51100000000E-03 0. -1.
    9900012    2    1    2    0    0  0.11104203755E+02 -0.13616319764E+02 -0.39685205687E+02  0.47787273562E+02  0.20000011477E+02 0.  0.
        -12    1    1    2    0    0 -0.11104203755E+02  0.13616319764E+02  0.39685205687E+02  0.43400726438E+02  0.00000000000E+00 0.  1.
         11    1    3    3    0    0  0.70572795184E+01 -0.10160603178E+02 -0.35876097301E+02  0.37949142401E+02  0.51100000000E-03 0. -1.
        -11    1    3    3    0    0  0.20717040719E+01 -0.56302398245E+01 -0.33303222460E+01  0.68616765273E+01  0.51100000000E-03 0.  1.
        -12    1    3    3    0    0  0.19752201651E+01  0.21745232388E+01 -0.47878613986E+00  0.29764546334E+01  0.00000000000E+00 0.  1.
</event>
<event>
 7    1  0.2505412E-009  0.4778727E+02  0.7816164E-02  0.1312668E+00
        -11   -1    0    0    0    0  0.00000000000E+00  0.00000000000E+00  0.45593999997E+02  0.45594000000E+02  0.51100000000E-03 0.  1.
         11   -1    0    0    0    0 -0.00000000000E+00 -0.00000000000E+00 -0.45593999997E+02  0.45594000000E+02  0.51100000000E-03 0. -1.
    9900012    2    1    2    0    0 -0.33234300882E+01  0.69564977359E+01 -0.42710483827E+02  0.47787268704E+02  0.19999989327E+02 0.  0.
        -12    1    1    2    0    0  0.33234300882E+01 -0.69564977359E+01  0.42710483827E+02  0.43400731296E+02  0.00000000000E+00 0.  1.
         11    1    3    3    0    0 -0.56849681781E+00  0.59388855423E+01 -0.16580638143E+02  0.17621325479E+02  0.51100000000E-03 0. -1.
        -11    1    3    3    0    0 -0.59224931849E+01 -0.53318768417E+01 -0.13302963117E+02  0.15507213293E+02  0.51100000000E-03 0.  1.
        -12    1    3    3    0    0  0.31675599145E+01  0.63494890353E+01 -0.12826882567E+02  0.14658729932E+02  0.00000000000E+00 0.  1.
</event>
<event>
 7    1  0.2505412E-009  0.4778727E+02  0.7816164E-02  0.1312668E+00
        -11   -1    0    0    0    0  0.00000000000E+00  0.00000000000E+00  0.45593999997E+02  0.45594000000E+02  0.51100000000E-03 0. -1.
         11   -1    0    0    0    0 -0.00000000000E+00 -0.00000000000E+00 -0.45593999997E+02  0.45594000000E+02  0.51100000000E-03 0.  1.
    9900012    2    1    2    0    0  0.11538882200E+02  0.61670278982E+01  0.41381700562E+02  0.47787272161E+02  0.20000005093E+02 0.  0.
        -12    1    1    2    0    0 -0.11538882200E+02 -0.61670278982E+01 -0.41381700562E+02  0.43400727839E+02  0.00000000000E+00 0.  1.
         11    1    3    3    0    0 -0.98010402568E+00  0.23546453902E+01  0.21451892166E+02  0.21602977494E+02  0.51100000000E-03 0. -1.
        -11    1    3    3    0    0  0.14460354098E+02  0.37581586193E+01  0.16633696817E+02  0.22358565851E+02  0.51100000000E-03 0.  1.
        -12    1    3    3    0    0 -0.19413678718E+01  0.54223888731E-01  0.32961115785E+01  0.38257288171E+01  0.00000000000E+00 0.  1.
</event>
<event>
 7    1  0.2505412E-009  0.4778727E+02  0.7816164E-02  0.1312668E+00
        -11   -1    0    0    0    0  0.00000000000E+00  0.00000000000E+00  0.45593999997E+02  0.45594000000E+02  0.51100000000E-03 0.  1.
         11   -1    0    0    0    0 -0.00000000000E+00 -0.00000000000E+00 -0.45593999997E+02  0.45594000000E+02  0.51100000000E-03 0. -1.
    9900012    2    1    2    0    0 -0.17087430366E+02  0.32057908568E+02 -0.23747294475E+02  0.47787265293E+02  0.19999973775E+02 0.  0.
        -12    1    1    2    0    0  0.17087430366E+02 -0.32057908568E+02  0.23747294475E+02  0.43400734707E+02  0.00000000000E+00 0.  1.
         11    1    3    3    0    0 -0.93160004403E+01  0.11503004125E+02 -0.10312714454E+02  0.18040483579E+02  0.51100000000E-03 0. -1.
        -11    1    3    3    0    0  0.21853178544E+01  0.10898246252E+02 -0.11049402259E+02  0.15672800517E+02  0.51100000000E-03 0.  1.
        -12    1    3    3    0    0 -0.99567477797E+01  0.96566581910E+01 -0.23851777618E+01  0.14073981197E+02  0.00000000000E+00 0.  1.
</event>
<event>
 7    1  0.2505412E-009  0.4778726E+02  0.7816164E-02  0.1312668E+00
        -11   -1    0    0    0    0  0.00000000000E+00  0.00000000000E+00  0.45593999997E+02  0.45594000000E+02  0.51100000000E-03 0. -1.
         11   -1    0    0    0    0 -0.00000000000E+00 -0.00000000000E+00 -0.45593999997E+02  0.45594000000E+02  0.51100000000E-03 0.  1.
    9900012    2    1    2    0    0 -0.26094848617E+02 -0.32987292498E+02  0.10701472158E+02  0.47787261561E+02  0.19999956759E+02 0.  0.
        -12    1    1    2    0    0  0.26094848617E+02  0.32987292498E+02 -0.10701472158E+02  0.43400738439E+02  0.00000000000E+00 0.  1.
         11    1    3    3    0    0  0.11161854009E+01 -0.23792143576E+00 -0.71502172770E+00  0.13467489711E+01  0.51100000000E-03 0. -1.
        -11    1    3    3    0    0 -0.20046348235E+02 -0.12730047720E+02  0.56508184043E+01  0.24409873851E+02  0.51100000000E-03 0.  1.
         12    1    3    3    0    0 -0.71646857829E+01 -0.20019323343E+02  0.57656754815E+01  0.22030638738E+02  0.00000000000E+00 0. -1.
</event>
<event>
 7    1  0.2505412E-009  0.4778729E+02  0.7816164E-02  0.1312668E+00
        -11   -1    0    0    0    0  0.00000000000E+00  0.00000000000E+00  0.45593999997E+02  0.45594000000E+02  0.51100000000E-03 0. -1.
         11   -1    0    0    0    0 -0.00000000000E+00 -0.00000000000E+00 -0.45593999997E+02  0.45594000000E+02  0.51100000000E-03 0.  1.
    9900012    2    1    2    0    0  0.41116746905E+02  0.67358050429E+01  0.12151691014E+02  0.47787291018E+02  0.20000091067E+02 0.  0.
        -12    1    1    2    0    0 -0.41116746905E+02 -0.67358050429E+01 -0.12151691014E+02  0.43400708982E+02  0.00000000000E+00 0.  1.
         11    1    3    3    0    0  0.22473746637E+02  0.12570440969E+02  0.73148830640E+01  0.26769250803E+02  0.51100000000E-03 0. -1.
        -11    1    3    3    0    0  0.22779131937E+01  0.74630813927E+00 -0.75670249022E+00  0.25136553616E+01  0.51100000000E-03 0.  1.
        -12    1    3    3    0    0  0.16365087074E+02 -0.65809440654E+01  0.55935104403E+01  0.18504384853E+02  0.00000000000E+00 0.  1.
</event>
<event>
 7    1  0.2505412E-009  0.4778727E+02  0.7816164E-02  0.1312668E+00
        -11   -1    0    0    0    0  0.00000000000E+00  0.00000000000E+00  0.45593999997E+02  0.45594000000E+02  0.51100000000E-03 0.  1.
         11   -1    0    0    0    0 -0.00000000000E+00 -0.00000000000E+00 -0.45593999997E+02  0.45594000000E+02  0.51100000000E-03 0. -1.
    9900012    2    1    2    0    0  0.12286498357E+02 -0.13388164677E+02 -0.39413483584E+02  0.47787266325E+02  0.19999978482E+02 0.  0.
        -12    1    1    2    0    0 -0.12286498357E+02  0.13388164677E+02  0.39413483584E+02  0.43400733675E+02  0.00000000000E+00 0.  1.
         11    1    3    3    0    0  0.30055070601E+01 -0.46679950972E+01 -0.16519027910E+02  0.17427034580E+02  0.51100000000E-03 0. -1.
        -11    1    3    3    0    0 -0.17979333117E+01 -0.47212164575E+01 -0.52487827935E+00  0.50791678946E+01  0.51100000000E-03 0.  1.
        -12    1    3    3    0    0  0.11078924608E+02 -0.39989531225E+01 -0.22369577395E+02  0.25281063850E+02  0.00000000000E+00 0.  1.
</event>
<event>
 7    1  0.2505412E-009  0.4778729E+02  0.7816164E-02  0.1312668E+00
        -11   -1    0    0    0    0  0.00000000000E+00  0.00000000000E+00  0.45593999997E+02  0.45594000000E+02  0.51100000000E-03 0.  1.
         11   -1    0    0    0    0 -0.00000000000E+00 -0.00000000000E+00 -0.45593999997E+02  0.45594000000E+02  0.51100000000E-03 0. -1.
    9900012    2    1    2    0    0 -0.17714476083E+01 -0.14905269639E+02 -0.40722427801E+02  0.47787294757E+02  0.20000108113E+02 0.  0.
        -12    1    1    2    0    0  0.17714476083E+01  0.14905269639E+02  0.40722427801E+02  0.43400705243E+02  0.00000000000E+00 0.  1.
         11    1    3    3    0    0 -0.46954202954E+01 -0.46607878727E+01 -0.28654412584E+02  0.29408251838E+02  0.51100000000E-03 0. -1.
        -11    1    3    3    0    0  0.17902484643E+01  0.79864732496E+00 -0.45983408887E+01  0.49987564757E+01  0.51100000000E-03 0.  1.
        -12    1    3    3    0    0  0.11337242229E+01 -0.11043129091E+02 -0.74696743280E+01  0.13380286443E+02  0.00000000000E+00 0.  1.
</event>
<event>
 7    1  0.2505412E-009  0.4778727E+02  0.7816164E-02  0.1312668E+00
        -11   -1    0    0    0    0  0.00000000000E+00  0.00000000000E+00  0.45593999997E+02  0.45594000000E+02  0.51100000000E-03 0.  1.
         11   -1    0    0    0    0 -0.00000000000E+00 -0.00000000000E+00 -0.45593999997E+02  0.45594000000E+02  0.51100000000E-03 0. -1.
    9900012    2    1    2    0    0  0.34658001774E+00 -0.14546594986E+02 -0.40888874055E+02  0.47787267692E+02  0.19999984716E+02 0.  0.
        -12    1    1    2    0    0 -0.34658001774E+00  0.14546594986E+02  0.40888874055E+02  0.43400732308E+02  0.00000000000E+00 0.  1.
         11    1    3    3    0    0  0.49237120232E+01 -0.25364774305E+01 -0.14485059145E+02  0.15507855962E+02  0.51100000000E-03 0. -1.
        -11    1    3    3    0    0 -0.34720591331E+01 -0.93912356447E+01 -0.59875973324E+01  0.11666268625E+02  0.51100000000E-03 0.  1.
        -12    1    3    3    0    0 -0.11050728724E+01 -0.26188819110E+01 -0.20416217577E+02  0.20613143105E+02  0.00000000000E+00 0.  1.
</event>
<event>
 7    1  0.2505412E-009  0.4778728E+02  0.7816164E-02  0.1312668E+00
        -11   -1    0    0    0    0  0.00000000000E+00  0.00000000000E+00  0.45593999997E+02  0.45594000000E+02  0.51100000000E-03 0.  1.
         11   -1    0    0    0    0 -0.00000000000E+00 -0.00000000000E+00 -0.45593999997E+02  0.45594000000E+02  0.51100000000E-03 0. -1.
    9900012    2    1    2    0    0 -0.20468724588E+02 -0.19561621584E+02 -0.32893723334E+02  0.47787276964E+02  0.20000026991E+02 0.  0.
        -12    1    1    2    0    0  0.20468724588E+02  0.19561621584E+02  0.32893723334E+02  0.43400723036E+02  0.00000000000E+00 0.  1.
         11    1    3    3    0    0 -0.64964738257E+01 -0.11034184954E+02 -0.21872173114E+02  0.25344612184E+02  0.51100000000E-03 0. -1.
        -11    1    3    3    0    0  0.14578601687E+00 -0.13661297580E+01  0.16630449771E+01  0.21571469434E+01  0.51100000000E-03 0.  1.
        -12    1    3    3    0    0 -0.14118036779E+02 -0.71613068726E+01 -0.12684595197E+02  0.20285517837E+02  0.00000000000E+00 0.  1.
</event>
<event>
 7    1  0.2505412E-009  0.4778727E+02  0.7816164E-02  0.1312668E+00
        -11   -1    0    0    0    0  0.00000000000E+00  0.00000000000E+00  0.45593999997E+02  0.45594000000E+02  0.51100000000E-03 0. -1.
         11   -1    0    0    0    0 -0.00000000000E+00 -0.00000000000E+00 -0.45593999997E+02  0.45594000000E+02  0.51100000000E-03 0.  1.
    9900012    2    1    2    0    0  0.19469007042E+02  0.31005021408E+02  0.23308151598E+02  0.47787268225E+02  0.19999987143E+02 0.  0.
        -12    1    1    2    0    0 -0.19469007042E+02 -0.31005021408E+02 -0.23308151598E+02  0.43400731775E+02  0.00000000000E+00 0.  1.
         11    1    3    3    0    0  0.21437874721E+02  0.29755729533E+02  0.16335241819E+02  0.40147553327E+02  0.51100000000E-03 0. -1.
        -11    1    3    3    0    0 -0.31877417612E-01 -0.27672491004E+00  0.26368431965E+01  0.26515156325E+01  0.51100000000E-03 0.  1.
         12    1    3    3    0    0 -0.19369902611E+01  0.15260167852E+01  0.43360665825E+01  0.49881992651E+01  0.00000000000E+00 0. -1.
</event>
<event>
 7    1  0.2505412E-009  0.4778728E+02  0.7816164E-02  0.1312668E+00
        -11   -1    0    0    0    0  0.00000000000E+00  0.00000000000E+00  0.45593999997E+02  0.45594000000E+02  0.51100000000E-03 0.  1.
         11   -1    0    0    0    0 -0.00000000000E+00 -0.00000000000E+00 -0.45593999997E+02  0.45594000000E+02  0.51100000000E-03 0. -1.
    9900012    2    1    2    0    0 -0.21773740989E+02  0.54491788701E+01 -0.37146107477E+02  0.47787278258E+02  0.20000032890E+02 0.  0.
        -12    1    1    2    0    0  0.21773740989E+02 -0.54491788701E+01  0.37146107477E+02  0.43400721742E+02  0.00000000000E+00 0.  1.
         11    1    3    3    0    0 -0.18050990485E+02  0.88046894408E+01 -0.18813845606E+02  0.27519476746E+02  0.51100000000E-03 0. -1.
        -11    1    3    3    0    0 -0.33500673002E+01  0.58001907290E+00 -0.13983169958E+02  0.14390566888E+02  0.51100000000E-03 0.  1.
         12    1    3    3    0    0 -0.37268320357E+00 -0.39355296436E+01 -0.43490919134E+01  0.58772346233E+01  0.00000000000E+00 0. -1.
</event>
<event>
 7    1  0.2505412E-009  0.4778727E+02  0.7816164E-02  0.1312668E+00
        -11   -1    0    0    0    0  0.00000000000E+00  0.00000000000E+00  0.45593999997E+02  0.45594000000E+02  0.51100000000E-03 0.  1.
         11   -1    0    0    0    0 -0.00000000000E+00 -0.00000000000E+00 -0.45593999997E+02  0.45594000000E+02  0.51100000000E-03 0. -1.
    9900012    2    1    2    0    0  0.22161270473E+02  0.34654080929E+02 -0.13841819700E+02  0.47787271819E+02  0.20000003530E+02 0.  0.
        -12    1    1    2    0    0 -0.22161270473E+02 -0.34654080929E+02  0.13841819700E+02  0.43400728181E+02  0.00000000000E+00 0.  1.
         11    1    3    3    0    0  0.59397387703E+01  0.58606926242E+01 -0.81371179189E+01  0.11655080565E+02  0.51100000000E-03 0. -1.
        -11    1    3    3    0    0  0.87232075800E+01  0.69180762717E+01  0.28219395375E+01  0.11485533196E+02  0.51100000000E-03 0.  1.
         12    1    3    3    0    0  0.74983241229E+01  0.21875312034E+02 -0.85266413187E+01  0.24646658057E+02  0.00000000000E+00 0. -1.
</event>
<event>
 7    1 -0.2505412E-009  0.4778727E+02  0.7816164E-02  0.1312668E+00
        -11   -1    0    0    0    0  0.00000000000E+00  0.00000000000E+00  0.45593999997E+02  0.45594000000E+02  0.51100000000E-03 0.  1.
         11   -1    0    0    0    0 -0.00000000000E+00 -0.00000000000E+00 -0.45593999997E+02  0.45594000000E+02  0.51100000000E-03 0. -1.
    9900012    2    1    2    0    0  0.27177939392E+02 -0.41501064113E+01 -0.33582137661E+02  0.47787265643E+02  0.19999975371E+02 0.  0.
        -12    1    1    2    0    0 -0.27177939392E+02  0.41501064113E+01  0.33582137661E+02  0.43400734357E+02  0.00000000000E+00 0.  1.
         11    1    3    3    0    0  0.15795319260E+02  0.53254098989E+01 -0.16602049944E+02  0.23526159136E+02  0.51100000000E-03 0. -1.
        -11    1    3    3    0    0 -0.11738736232E+01 -0.14312692367E+01 -0.43188863816E+01  0.46988605799E+01  0.51100000000E-03 0.  1.
         12    1    3    3    0    0  0.12556493756E+02 -0.80442470735E+01 -0.12661201336E+02  0.19562245927E+02  0.00000000000E+00 0. -1.
</event>
<event>
 7    1  0.2505412E-009  0.4778727E+02  0.7816164E-02  0.1312668E+00
        -11   -1    0    0    0    0  0.00000000000E+00  0.00000000000E+00  0.45593999997E+02  0.45594000000E+02  0.51100000000E-03 0.  1.
         11   -1    0    0    0    0 -0.00000000000E+00 -0.00000000000E+00 -0.45593999997E+02  0.45594000000E+02  0.51100000000E-03 0. -1.
    9900012    2    1    2    0    0  0.11814991641E+02 -0.38169215852E+02  0.16945214591E+02  0.47787270008E+02  0.19999995276E+02 0.  0.
        -12    1    1    2    0    0 -0.11814991641E+02  0.38169215852E+02 -0.16945214591E+02  0.43400729992E+02  0.00000000000E+00 0.  1.
         11    1    3    3    0    0  0.47982470933E+00 -0.46741843036E+01  0.23069516301E+00  0.47044076327E+01  0.51100000000E-03 0. -1.
        -11    1    3    3    0    0  0.11553164705E+02 -0.95559816891E+01  0.23839780641E+01  0.15181427878E+02  0.51100000000E-03 0.  1.
         12    1    3    3    0    0 -0.21799777395E+00 -0.23939049860E+02  0.14330541364E+02  0.27901434497E+02  0.00000000000E+00 0. -1.
</event>
<event>
 7    1  0.2505412E-009  0.4778727E+02  0.7816164E-02  0.1312668E+00
        -11   -1    0    0    0    0  0.00000000000E+00  0.00000000000E+00  0.45593999997E+02  0.45594000000E+02  0.51100000000E-03 0.  1.
         11   -1    0    0    0    0 -0.00000000000E+00 -0.00000000000E+00 -0.45593999997E+02  0.45594000000E+02  0.51100000000E-03 0. -1.
    9900012    2    1    2    0    0 -0.39589258940E+01 -0.21611394274E+02 -0.37428570619E+02  0.47787270106E+02  0.19999995722E+02 0.  0.
        -12    1    1    2    0    0  0.39589258940E+01  0.21611394274E+02  0.37428570619E+02  0.43400729894E+02  0.00000000000E+00 0.  1.
         11    1    3    3    0    0  0.33108962861E+01 -0.25011720310E+01 -0.51819801488E+01  0.66385852611E+01  0.51100000000E-03 0. -1.
        -11    1    3    3    0    0 -0.10116682340E+02 -0.57223813924E+01 -0.11967165178E+02  0.16682504399E+02  0.51100000000E-03 0.  1.
        -12    1    3    3    0    0  0.28468601598E+01 -0.13387840851E+02 -0.20279425293E+02  0.24466180446E+02  0.00000000000E+00 0.  1.
</event>
<event>
 7    1  0.2505412E-009  0.4778727E+02  0.7816164E-02  0.1312668E+00
        -11   -1    0    0    0    0  0.00000000000E+00  0.00000000000E+00  0.45593999997E+02  0.45594000000E+02  0.51100000000E-03 0.  1.
         11   -1    0    0    0    0 -0.00000000000E+00 -0.00000000000E+00 -0.45593999997E+02  0.45594000000E+02  0.51100000000E-03 0. -1.
    9900012    2    1    2    0    0 -0.35542067020E+02 -0.90214729040E+00 -0.24891184071E+02  0.47787269105E+02  0.19999991155E+02 0.  0.
        -12    1    1    2    0    0  0.35542067020E+02  0.90214729040E+00  0.24891184071E+02  0.43400730895E+02  0.00000000000E+00 0.  1.
         11    1    3    3    0    0 -0.36839063549E+01  0.11535200811E+01  0.11419491734E+01  0.40256456358E+01  0.51100000000E-03 0. -1.
        -11    1    3    3    0    0 -0.38899626121E+01 -0.25850352664E+01  0.10920761157E+01  0.47965453147E+01  0.51100000000E-03 0.  1.
         12    1    3    3    0    0 -0.27968198053E+02  0.52936789494E+00 -0.27125209361E+02  0.38965078154E+02  0.00000000000E+00 0. -1.
</event>
<event>
 7    1  0.4483762E-009  0.4778727E+02  0.7816164E-02  0.1312668E+00
        -11   -1    0    0    0    0  0.00000000000E+00  0.00000000000E+00  0.45593999997E+02  0.45594000000E+02  0.51100000000E-03 0. -1.
         11   -1    0    0    0    0 -0.00000000000E+00 -0.00000000000E+00 -0.45593999997E+02  0.45594000000E+02  0.51100000000E-03 0.  1.
    9900012    2    1    2    0    0 -0.79456545649E+01 -0.34404075726E+02  0.25235874135E+02  0.47787271937E+02  0.20000004071E+02 0.  0.
        -12    1    1    2    0    0  0.79456545649E+01  0.34404075726E+02 -0.25235874135E+02  0.43400728063E+02  0.00000000000E+00 0.  1.
         11    1    3    3    0    0 -0.48440676542E+01 -0.26469296621E+02  0.18867386635E+02  0.32864371799E+02  0.51100000000E-03 0. -1.
        -11    1    3    3    0    0 -0.19300784294E+00 -0.69395656341E+01 -0.92919667261E+00  0.70041580461E+01  0.51100000000E-03 0.  1.
        -12    1    3    3    0    0 -0.29085790677E+01 -0.99521347104E+00  0.72976841724E+01  0.79187420924E+01  0.00000000000E+00 0.  1.
</event>
<event>
 7    1  0.2505412E-009  0.4778727E+02  0.7816164E-02  0.1312668E+00
        -11   -1    0    0    0    0  0.00000000000E+00  0.00000000000E+00  0.45593999997E+02  0.45594000000E+02  0.51100000000E-03 0. -1.
         11   -1    0    0    0    0 -0.00000000000E+00 -0.00000000000E+00 -0.45593999997E+02  0.45594000000E+02  0.51100000000E-03 0.  1.
    9900012    2    1    2    0    0 -0.38647480017E+02  0.12334274033E+02 -0.15422743839E+02  0.47787273565E+02  0.20000011491E+02 0.  0.
        -12    1    1    2    0    0  0.38647480017E+02 -0.12334274033E+02  0.15422743839E+02  0.43400726435E+02  0.00000000000E+00 0.  1.
         11    1    3    3    0    0 -0.90397325354E+00  0.57838236815E+00  0.27815716398E+01  0.29814149083E+01  0.51100000000E-03 0.  1.
        -11    1    3    3    0    0 -0.19520043072E+02  0.56902769226E+01 -0.15154458032E+02  0.25358803826E+02  0.51100000000E-03 0. -1.
         12    1    3    3    0    0 -0.18223463692E+02  0.60656147426E+01 -0.30498574467E+01  0.19447054831E+02  0.00000000000E+00 0. -1.
</event>
<event>
 7    1  0.2505412E-009  0.4778727E+02  0.7816164E-02  0.1312668E+00
        -11   -1    0    0    0    0  0.00000000000E+00  0.00000000000E+00  0.45593999997E+02  0.45594000000E+02  0.51100000000E-03 0.  1.
         11   -1    0    0    0    0 -0.00000000000E+00 -0.00000000000E+00 -0.45593999997E+02  0.45594000000E+02  0.51100000000E-03 0. -1.
    9900012    2    1    2    0    0 -0.15707031309E+02  0.39687923135E+02 -0.78601002490E+01  0.47787271305E+02  0.20000001188E+02 0.  0.
        -12    1    1    2    0    0  0.15707031309E+02 -0.39687923135E+02  0.78601002490E+01  0.43400728695E+02  0.00000000000E+00 0.  1.
         11    1    3    3    0    0 -0.81370826326E+01  0.24871023452E+02 -0.63263930453E+01  0.26922168757E+02  0.51100000000E-03 0. -1.
        -11    1    3    3    0    0 -0.15153497841E+01  0.38673229566E+01 -0.62410170917E+01  0.74968504332E+01  0.51100000000E-03 0.  1.
        -12    1    3    3    0    0 -0.60545988921E+01  0.10949576726E+02  0.47073098880E+01  0.13368252115E+02  0.00000000000E+00 0.  1.
</event>
<event>
 7    1  0.2505412E-009  0.4778727E+02  0.7816164E-02  0.1312668E+00
        -11   -1    0    0    0    0  0.00000000000E+00  0.00000000000E+00  0.45593999997E+02  0.45594000000E+02  0.51100000000E-03 0. -1.
         11   -1    0    0    0    0 -0.00000000000E+00 -0.00000000000E+00 -0.45593999997E+02  0.45594000000E+02  0.51100000000E-03 0.  1.
    9900012    2    1    2    0    0 -0.53365739246E+01  0.42805900201E+02  0.47748546526E+01  0.47787270164E+02  0.19999995988E+02 0.  0.
        -12    1    1    2    0    0  0.53365739246E+01 -0.42805900201E+02 -0.47748546526E+01  0.43400729836E+02  0.00000000000E+00 0.  1.
         11    1    3    3    0    0 -0.60861769637E+01  0.28300634115E+02  0.51090452214E+01  0.29395063951E+02  0.51100000000E-03 0. -1.
        -11    1    3    3    0    0  0.13449261905E+01  0.10759669761E+02  0.49239401376E+01  0.11909009470E+02  0.51100000000E-03 0.  1.
        -12    1    3    3    0    0 -0.59532315142E+00  0.37455963258E+01 -0.52581307064E+01  0.64831967436E+01  0.00000000000E+00 0.  1.
</event>
<event>
 7    1  0.2505412E-009  0.4778727E+02  0.7816164E-02  0.1312668E+00
        -11   -1    0    0    0    0  0.00000000000E+00  0.00000000000E+00  0.45593999997E+02  0.45594000000E+02  0.51100000000E-03 0.  1.
         11   -1    0    0    0    0 -0.00000000000E+00 -0.00000000000E+00 -0.45593999997E+02  0.45594000000E+02  0.51100000000E-03 0. -1.
    9900012    2    1    2    0    0  0.24059963171E+02  0.33509963573E+02 -0.13484207655E+02  0.47787270254E+02  0.19999996396E+02 0.  0.
        -12    1    1    2    0    0 -0.24059963171E+02 -0.33509963573E+02  0.13484207655E+02  0.43400729746E+02  0.00000000000E+00 0.  1.
         11    1    3    3    0    0  0.15475604049E+02  0.82568555336E+01 -0.56438487254E+01  0.18426150240E+02  0.51100000000E-03 0. -1.
        -11    1    3    3    0    0  0.67185609819E+01  0.13646870236E+02  0.36013032479E-01  0.15211095494E+02  0.51100000000E-03 0.  1.
         12    1    3    3    0    0  0.18657981397E+01  0.11606237803E+02 -0.78763719621E+01  0.14150024520E+02  0.00000000000E+00 0. -1.
</event>
<event>
 7    1  0.2505412E-009  0.4778727E+02  0.7816164E-02  0.1312668E+00
        -11   -1    0    0    0    0  0.00000000000E+00  0.00000000000E+00  0.45593999997E+02  0.45594000000E+02  0.51100000000E-03 0. -1.
         11   -1    0    0    0    0 -0.00000000000E+00 -0.00000000000E+00 -0.45593999997E+02  0.45594000000E+02  0.51100000000E-03 0.  1.
    9900012    2    1    2    0    0 -0.23734948578E+01 -0.20566886893E+02  0.38144371758E+02  0.47787269463E+02  0.19999992790E+02 0.  0.
        -12    1    1    2    0    0  0.23734948578E+01  0.20566886893E+02 -0.38144371758E+02  0.43400730537E+02  0.00000000000E+00 0.  1.
         11    1    3    3    0    0  0.13352944019E+01  0.28409661178E+01  0.68935974743E+00  0.32139254417E+01  0.51100000000E-03 0.  1.
        -11    1    3    3    0    0 -0.25541966398E+01 -0.10099486504E+02  0.12535148046E+02  0.16298879867E+02  0.51100000000E-03 0. -1.
        -12    1    3    3    0    0 -0.11545926198E+01 -0.13308366506E+02  0.24919863965E+02  0.28274464154E+02  0.00000000000E+00 0.  1.
</event>
<event>
 7    1  0.2505412E-009  0.4778727E+02  0.7816164E-02  0.1312668E+00
        -11   -1    0    0    0    0  0.00000000000E+00  0.00000000000E+00  0.45593999997E+02  0.45594000000E+02  0.51100000000E-03 0. -1.
         11   -1    0    0    0    0 -0.00000000000E+00 -0.00000000000E+00 -0.45593999997E+02  0.45594000000E+02  0.51100000000E-03 0.  1.
    9900012    2    1    2    0    0 -0.79317011179E+01  0.40408763773E+02  0.13705582018E+02  0.47787273615E+02  0.20000011722E+02 0.  0.
        -12    1    1    2    0    0  0.79317011179E+01 -0.40408763773E+02 -0.13705582018E+02  0.43400726385E+02  0.00000000000E+00 0.  1.
         11    1    3    3    0    0 -0.60524637498E+01  0.65166470946E+01 -0.14472196556E+01  0.90107409125E+01  0.51100000000E-03 0. -1.
        -11    1    3    3    0    0 -0.13653140097E+01  0.12344880906E+02  0.11478917012E+02  0.16912294432E+02  0.51100000000E-03 0.  1.
         12    1    3    3    0    0 -0.51392335846E+00  0.21547235773E+02  0.36738846609E+01  0.21864238271E+02  0.00000000000E+00 0. -1.
</event>
<event>
 7    1  0.2505412E-009  0.4778727E+02  0.7816164E-02  0.1312668E+00
        -11   -1    0    0    0    0  0.00000000000E+00  0.00000000000E+00  0.45593999997E+02  0.45594000000E+02  0.51100000000E-03 0.  1.
         11   -1    0    0    0    0 -0.00000000000E+00 -0.00000000000E+00 -0.45593999997E+02  0.45594000000E+02  0.51100000000E-03 0. -1.
    9900012    2    1    2    0    0  0.10046004701E+02  0.42028220104E+02 -0.40410220184E+01  0.47787270116E+02  0.19999995765E+02 0.  0.
        -12    1    1    2    0    0 -0.10046004701E+02 -0.42028220104E+02  0.40410220184E+01  0.43400729884E+02  0.00000000000E+00 0.  1.
         11    1    3    3    0    0  0.98702193130E+01  0.26103908129E+02 -0.21585843520E+01  0.27990975967E+02  0.51100000000E-03 0. -1.
        -11    1    3    3    0    0  0.23351003597E+01 -0.10270403788E+01  0.30246976583E+00  0.25688506866E+01  0.51100000000E-03 0.  1.
         12    1    3    3    0    0 -0.21593149714E+01  0.16951352353E+02 -0.21849074322E+01  0.17227443462E+02  0.00000000000E+00 0. -1.
</event>
<event>
 7    1  0.2505412E-009  0.4778727E+02  0.7816164E-02  0.1312668E+00
        -11   -1    0    0    0    0  0.00000000000E+00  0.00000000000E+00  0.45593999997E+02  0.45594000000E+02  0.51100000000E-03 0.  1.
         11   -1    0    0    0    0 -0.00000000000E+00 -0.00000000000E+00 -0.45593999997E+02  0.45594000000E+02  0.51100000000E-03 0. -1.
    9900012    2    1    2    0    0 -0.27604179825E+02  0.32365842381E+02  0.86072663916E+01  0.47787268076E+02  0.19999986464E+02 0.  0.
        -12    1    1    2    0    0  0.27604179825E+02 -0.32365842381E+02 -0.86072663916E+01  0.43400731924E+02  0.00000000000E+00 0.  1.
         11    1    3    3    0    0 -0.13458238972E+01  0.46883311889E+01  0.63186265530E+00  0.49184288117E+01  0.51100000000E-03 0. -1.
        -11    1    3    3    0    0 -0.70406939508E+01  0.69694536581E+01 -0.57555499580E+01  0.11457356204E+02  0.51100000000E-03 0.  1.
        -12    1    3    3    0    0 -0.19217661977E+02  0.20708057534E+02  0.13730953694E+02  0.31411483060E+02  0.00000000000E+00 0.  1.
</event>
<event>
 7    1  0.4254770E-009  0.4778727E+02  0.7816164E-02  0.1312668E+00
        -11   -1    0    0    0    0  0.00000000000E+00  0.00000000000E+00  0.45593999997E+02  0.45594000000E+02  0.51100000000E-03 0. -1.
         11   -1    0    0    0    0 -0.00000000000E+00 -0.00000000000E+00 -0.45593999997E+02  0.45594000000E+02  0.51100000000E-03 0.  1.
    9900012    2    1    2    0    0  0.35429443698E+02  0.36273721379E+00  0.25064838593E+02  0.47787271980E+02  0.20000004265E+02 0.  0.
        -12    1    1    2    0    0 -0.35429443698E+02 -0.36273721379E+00 -0.25064838593E+02  0.43400728020E+02  0.00000000000E+00 0.  1.
         11    1    3    3    0    0  0.16785419426E+02 -0.27701597214E+01  0.19331401318E+02  0.25751255647E+02  0.51100000000E-03 0. -1.
        -11    1    3    3    0    0  0.16191790735E+02 -0.12449507454E+01  0.39753324309E+01  0.16719068687E+02  0.51100000000E-03 0.  1.
        -12    1    3    3    0    0  0.24522335363E+01  0.43778476806E+01  0.17581048433E+01  0.53169476461E+01  0.00000000000E+00 0.  1.
</event>
<event>
 7    1  0.2505412E-009  0.4778727E+02  0.7816164E-02  0.1312668E+00
        -11   -1    0    0    0    0  0.00000000000E+00  0.00000000000E+00  0.45593999997E+02  0.45594000000E+02  0.51100000000E-03 0. -1.
         11   -1    0    0    0    0 -0.00000000000E+00 -0.00000000000E+00 -0.45593999997E+02  0.45594000000E+02  0.51100000000E-03 0.  1.
    9900012    2    1    2    0    0 -0.26734088990E+01 -0.14452086359E+01  0.43294199611E+02  0.47787268864E+02  0.19999990061E+02 0.  0.
        -12    1    1    2    0    0  0.26734088990E+01  0.14452086359E+01 -0.43294199611E+02  0.43400731136E+02  0.00000000000E+00 0.  1.
         11    1    3    3    0    0 -0.70645848259E+01  0.22716582113E+01  0.32957224885E+02  0.33782354302E+02  0.51100000000E-03 0. -1.
        -11    1    3    3    0    0  0.81300919940E+00  0.14040346422E+01 -0.31826215755E+00  0.16533566756E+01  0.51100000000E-03 0.  1.
         12    1    3    3    0    0  0.35781667275E+01 -0.51209014893E+01  0.10655236884E+02  0.12351557887E+02  0.00000000000E+00 0. -1.
</event>
<event>
 7    1  0.2505412E-009  0.4778728E+02  0.7816164E-02  0.1312668E+00
        -11   -1    0    0    0    0  0.00000000000E+00  0.00000000000E+00  0.45593999997E+02  0.45594000000E+02  0.51100000000E-03 0.  1.
         11   -1    0    0    0    0 -0.00000000000E+00 -0.00000000000E+00 -0.45593999997E+02  0.45594000000E+02  0.51100000000E-03 0. -1.
    9900012    2    1    2    0    0 -0.28863049258E+02 -0.53829888486E+01 -0.31962017111E+02  0.47787277434E+02  0.20000029132E+02 0.  0.
        -12    1    1    2    0    0  0.28863049258E+02  0.53829888486E+01  0.31962017111E+02  0.43400722566E+02  0.00000000000E+00 0.  1.
         11    1    3    3    0    0 -0.64962508878E+01 -0.11203766431E+01  0.18929028031E+00  0.65948730459E+01  0.51100000000E-03 0. -1.
        -11    1    3    3    0    0 -0.21106178101E+00 -0.27846212832E+00 -0.86215480729E+01  0.86286255955E+01  0.51100000000E-03 0.  1.
         12    1    3    3    0    0 -0.22155736590E+02 -0.39841500772E+01 -0.23529759319E+02  0.32563778793E+02  0.00000000000E+00 0. -1.
</event>
<event>
 7    1  0.2505412E-009  0.4778727E+02  0.7816164E-02  0.1312668E+00
        -11   -1    0    0    0    0  0.00000000000E+00  0.00000000000E+00  0.45593999997E+02  0.45594000000E+02  0.51100000000E-03 0. -1.
         11   -1    0    0    0    0 -0.00000000000E+00 -0.00000000000E+00 -0.45593999997E+02  0.45594000000E+02  0.51100000000E-03 0.  1.
    9900012    2    1    2    0    0  0.16675751702E+02  0.36989774667E+02  0.15404529675E+02  0.47787266605E+02  0.19999979758E+02 0.  0.
        -12    1    1    2    0    0 -0.16675751702E+02 -0.36989774667E+02 -0.15404529675E+02  0.43400733395E+02  0.00000000000E+00 0.  1.
         11    1    3    3    0    0  0.60794557982E+01  0.11438399964E+01 -0.17801557314E+01  0.64371661023E+01  0.51100000000E-03 0.  1.
        -11    1    3    3    0    0  0.33176271687E+01  0.90512878437E+01  0.63593549263E+01  0.11548759977E+02  0.51100000000E-03 0. -1.
        -12    1    3    3    0    0  0.72786687349E+01  0.26794646827E+02  0.10825330480E+02  0.29801340526E+02  0.00000000000E+00 0.  1.
</event>
<event>
 7    1  0.2505412E-009  0.4778727E+02  0.7816164E-02  0.1312668E+00
        -11   -1    0    0    0    0  0.00000000000E+00  0.00000000000E+00  0.45593999997E+02  0.45594000000E+02  0.51100000000E-03 0.  1.
         11   -1    0    0    0    0 -0.00000000000E+00 -0.00000000000E+00 -0.45593999997E+02  0.45594000000E+02  0.51100000000E-03 0. -1.
    9900012    2    1    2    0    0 -0.32553343517E+02  0.18683500556E+02 -0.21790593039E+02  0.47787270604E+02  0.19999997991E+02 0.  0.
        -12    1    1    2    0    0  0.32553343517E+02 -0.18683500556E+02  0.21790593039E+02  0.43400729396E+02  0.00000000000E+00 0.  1.
         11    1    3    3    0    0 -0.89697160172E+01  0.15868709187E+02 -0.89825749978E+01  0.20321377674E+02  0.51100000000E-03 0. -1.
        -11    1    3    3    0    0 -0.16484361783E+02  0.40018644122E+01 -0.10290761766E+02  0.19840586689E+02  0.51100000000E-03 0.  1.
        -12    1    3    3    0    0 -0.70992657165E+01 -0.11870730437E+01 -0.25172562754E+01  0.76253062418E+01  0.00000000000E+00 0.  1.
</event>
<event>
 7    1  0.2505412E-009  0.4778727E+02  0.7816164E-02  0.1312668E+00
        -11   -1    0    0    0    0  0.00000000000E+00  0.00000000000E+00  0.45593999997E+02  0.45594000000E+02  0.51100000000E-03 0.  1.
         11   -1    0    0    0    0 -0.00000000000E+00 -0.00000000000E+00 -0.45593999997E+02  0.45594000000E+02  0.51100000000E-03 0. -1.
    9900012    2    1    2    0    0 -0.36028383104E+01 -0.36994739478E+02 -0.22406081149E+02  0.47787266534E+02  0.19999979435E+02 0.  0.
        -12    1    1    2    0    0  0.36028383104E+01  0.36994739478E+02  0.22406081149E+02  0.43400733466E+02  0.00000000000E+00 0.  1.
         11    1    3    3    0    0 -0.29084638716E+01 -0.18987930070E+02 -0.61470999087E+01  0.20168973399E+02  0.51100000000E-03 0. -1.
        -11    1    3    3    0    0  0.93779962515E+00 -0.18149081226E+02 -0.17749756781E+02  0.25403198293E+02  0.51100000000E-03 0.  1.
        -12    1    3    3    0    0 -0.16321740640E+01  0.14227181779E+00  0.14907755403E+01  0.22150948415E+01  0.00000000000E+00 0.  1.
</event>
<event>
 7    1  0.2505412E-009  0.4778727E+02  0.7816164E-02  0.1312668E+00
        -11   -1    0    0    0    0  0.00000000000E+00  0.00000000000E+00  0.45593999997E+02  0.45594000000E+02  0.51100000000E-03 0.  1.
         11   -1    0    0    0    0 -0.00000000000E+00 -0.00000000000E+00 -0.45593999997E+02  0.45594000000E+02  0.51100000000E-03 0. -1.
    9900012    2    1    2    0    0 -0.11278884188E+02  0.34669052017E+02 -0.23547121235E+02  0.47787270574E+02  0.19999997854E+02 0.  0.
        -12    1    1    2    0    0  0.11278884188E+02 -0.34669052017E+02  0.23547121235E+02  0.43400729426E+02  0.00000000000E+00 0.  1.
         11    1    3    3    0    0 -0.80125841092E+01  0.16100404792E+02 -0.54360731205E+01  0.18787640347E+02  0.51100000000E-03 0. -1.
        -11    1    3    3    0    0  0.37628683227E+01  0.14896588276E+01 -0.21138332933E+01  0.45658025460E+01  0.51100000000E-03 0.  1.
         12    1    3    3    0    0 -0.70291684018E+01  0.17078988397E+02 -0.15997214821E+02  0.24433827680E+02  0.00000000000E+00 0. -1.
</event>
<event>
 7    1  0.2505412E-009  0.4778731E+02  0.7816164E-02  0.1312668E+00
        -11   -1    0    0    0    0  0.00000000000E+00  0.00000000000E+00  0.45593999997E+02  0.45594000000E+02  0.51100000000E-03 0. -1.
         11   -1    0    0    0    0 -0.00000000000E+00 -0.00000000000E+00 -0.45593999997E+02  0.45594000000E+02  0.51100000000E-03 0.  1.
    9900012    2    1    2    0    0 -0.28795751006E+02  0.17437238739E+02  0.27392837641E+02  0.47787307323E+02  0.20000165408E+02 0.  0.
        -12    1    1    2    0    0  0.28795751006E+02 -0.17437238739E+02 -0.27392837641E+02  0.43400692677E+02  0.00000000000E+00 0.  1.
         11    1    3    3    0    0 -0.45778158154E+01  0.66186830571E+01  0.26768988793E+01  0.84811055247E+01  0.51100000000E-03 0. -1.
        -11    1    3    3    0    0 -0.22964035953E+02  0.12448101430E+02  0.26021721167E+02  0.36870478018E+02  0.51100000000E-03 0.  1.
        -12    1    3    3    0    0 -0.12538992373E+01 -0.16295457486E+01 -0.13057824060E+01  0.24357237807E+01  0.00000000000E+00 0.  1.
</event>
<event>
 7    1  0.2505412E-009  0.4778727E+02  0.7816164E-02  0.1312668E+00
        -11   -1    0    0    0    0  0.00000000000E+00  0.00000000000E+00  0.45593999997E+02  0.45594000000E+02  0.51100000000E-03 0.  1.
         11   -1    0    0    0    0 -0.00000000000E+00 -0.00000000000E+00 -0.45593999997E+02  0.45594000000E+02  0.51100000000E-03 0. -1.
    9900012    2    1    2    0    0 -0.17223284808E+02  0.88207490113E+01 -0.38848118811E+02  0.47787268579E+02  0.19999988760E+02 0.  0.
        -12    1    1    2    0    0  0.17223284808E+02 -0.88207490113E+01  0.38848118811E+02  0.43400731421E+02  0.00000000000E+00 0.  1.
         11    1    3    3    0    0 -0.14627139653E+02  0.13202069863E+02 -0.37611658510E+02  0.42460390003E+02  0.51100000000E-03 0. -1.
        -11    1    3    3    0    0 -0.87589528986E+00 -0.71207831422E+00 -0.25694370923E+00  0.11576996222E+01  0.51100000000E-03 0.  1.
         12    1    3    3    0    0 -0.17202498658E+01 -0.36692425371E+01 -0.97951659169E+00  0.41691789540E+01  0.00000000000E+00 0. -1.
</event>
<event>
 7    1  0.2505412E-009  0.4778727E+02  0.7816164E-02  0.1312668E+00
        -11   -1    0    0    0    0  0.00000000000E+00  0.00000000000E+00  0.45593999997E+02  0.45594000000E+02  0.51100000000E-03 0. -1.
         11   -1    0    0    0    0 -0.00000000000E+00 -0.00000000000E+00 -0.45593999997E+02  0.45594000000E+02  0.51100000000E-03 0.  1.
    9900012    2    1    2    0    0  0.28847230914E+01  0.43302633328E+02  0.42846637529E+00  0.47787271159E+02  0.20000000524E+02 0.  0.
        -12    1    1    2    0    0 -0.28847230914E+01 -0.43302633328E+02 -0.42846637529E+00  0.43400728841E+02  0.00000000000E+00 0.  1.
         11    1    3    3    0    0  0.14205848141E+01  0.23984907026E+02  0.49965951102E+01  0.24540981831E+02  0.51100000000E-03 0. -1.
        -11    1    3    3    0    0 -0.41171973600E+01  0.22372955417E+01  0.76828770452E-01  0.46864387719E+01  0.51100000000E-03 0.  1.
        -12    1    3    3    0    0  0.55813356373E+01  0.17080430760E+02 -0.46449575053E+01  0.18559850556E+02  0.00000000000E+00 0.  1.
</event>
<event>
 7    1  0.2505412E-009  0.4778728E+02  0.7816164E-02  0.1312668E+00
        -11   -1    0    0    0    0  0.00000000000E+00  0.00000000000E+00  0.45593999997E+02  0.45594000000E+02  0.51100000000E-03 0.  1.
         11   -1    0    0    0    0 -0.00000000000E+00 -0.00000000000E+00 -0.45593999997E+02  0.45594000000E+02  0.51100000000E-03 0. -1.
    9900012    2    1    2    0    0  0.11517345753E+02 -0.12449782720E+02 -0.39949667435E+02  0.47787282597E+02  0.20000052670E+02 0.  0.
        -12    1    1    2    0    0 -0.11517345753E+02  0.12449782720E+02  0.39949667435E+02  0.43400717403E+02  0.00000000000E+00 0.  1.
         11    1    3    3    0    0  0.55628679540E+01 -0.92023032497E+01 -0.19486131758E+02  0.22256172540E+02  0.51100000000E-03 0. -1.
        -11    1    3    3    0    0  0.96798150917E+01 -0.32995221026E+00 -0.93945889042E+01  0.13493183079E+02  0.51100000000E-03 0.  1.
         12    1    3    3    0    0 -0.37253372924E+01 -0.29175272596E+01 -0.11068946773E+02  0.12037926977E+02  0.00000000000E+00 0. -1.
</event>
<event>
 7    1  0.2505412E-009  0.4778728E+02  0.7816164E-02  0.1312668E+00
        -11   -1    0    0    0    0  0.00000000000E+00  0.00000000000E+00  0.45593999997E+02  0.45594000000E+02  0.51100000000E-03 0. -1.
         11   -1    0    0    0    0 -0.00000000000E+00 -0.00000000000E+00 -0.45593999997E+02  0.45594000000E+02  0.51100000000E-03 0.  1.
    9900012    2    1    2    0    0 -0.27983386731E+02 -0.22466541747E+02  0.24409167393E+02  0.47787275538E+02  0.20000020487E+02 0.  0.
        -12    1    1    2    0    0  0.27983386731E+02  0.22466541747E+02 -0.24409167393E+02  0.43400724462E+02  0.00000000000E+00 0.  1.
         11    1    3    3    0    0 -0.17467288717E+02 -0.18598941097E+02  0.17434847406E+02  0.30903085435E+02  0.51100000000E-03 0. -1.
        -11    1    3    3    0    0 -0.29303090434E+01  0.14693637850E+01  0.68660744385E+01  0.76084636740E+01  0.51100000000E-03 0.  1.
         12    1    3    3    0    0 -0.75857889708E+01 -0.53369644346E+01  0.10824554868E+00  0.92757264289E+01  0.00000000000E+00 0. -1.
</event>
<event>
 7    1  0.2505412E-009  0.4778729E+02  0.7816164E-02  0.1312668E+00
        -11   -1    0    0    0    0  0.00000000000E+00  0.00000000000E+00  0.45593999997E+02  0.45594000000E+02  0.51100000000E-03 0.  1.
         11   -1    0    0    0    0 -0.00000000000E+00 -0.00000000000E+00 -0.45593999997E+02  0.45594000000E+02  0.51100000000E-03 0. -1.
    9900012    2    1    2    0    0  0.21234038452E+02 -0.99725038641E+01 -0.36514191913E+02  0.47787292248E+02  0.20000096677E+02 0.  0.
        -12    1    1    2    0    0 -0.21234038452E+02  0.99725038641E+01  0.36514191913E+02  0.43400707752E+02  0.00000000000E+00 0.  1.
         11    1    3    3    0    0  0.18803916048E+02 -0.10461195907E+02 -0.27682943520E+02  0.35062362167E+02  0.51100000000E-03 0. -1.
        -11    1    3    3    0    0  0.19997844729E+01  0.48431899568E+00 -0.10654608972E+02  0.10851469737E+02  0.51100000000E-03 0.  1.
        -12    1    3    3    0    0  0.43033793105E+00  0.43730474469E-02  0.18233605797E+01  0.18734603444E+01  0.00000000000E+00 0.  1.
</event>
<event>
 7    1  0.2505412E-009  0.4778726E+02  0.7816164E-02  0.1312668E+00
        -11   -1    0    0    0    0  0.00000000000E+00  0.00000000000E+00  0.45593999997E+02  0.45594000000E+02  0.51100000000E-03 0.  1.
         11   -1    0    0    0    0 -0.00000000000E+00 -0.00000000000E+00 -0.45593999997E+02  0.45594000000E+02  0.51100000000E-03 0. -1.
    9900012    2    1    2    0    0  0.38392283867E+02  0.11889241814E+02 -0.16379955333E+02  0.47787257286E+02  0.19999937268E+02 0.  0.
        -12    1    1    2    0    0 -0.38392283867E+02 -0.11889241814E+02  0.16379955333E+02  0.43400742714E+02  0.00000000000E+00 0.  1.
         11    1    3    3    0    0  0.11740964163E+02  0.90781125789E+01 -0.59245794353E+01  0.15980081640E+02  0.51100000000E-03 0. -1.
        -11    1    3    3    0    0  0.55291567590E+01  0.41108444252E+01  0.20975112183E+01  0.72020948289E+01  0.51100000000E-03 0.  1.
         12    1    3    3    0    0  0.21122162945E+02 -0.12997151900E+01 -0.12552887116E+02  0.24605080817E+02  0.00000000000E+00 0. -1.
</event>
<event>
 7    1  0.2505412E-009  0.4778727E+02  0.7816164E-02  0.1312668E+00
        -11   -1    0    0    0    0  0.00000000000E+00  0.00000000000E+00  0.45593999997E+02  0.45594000000E+02  0.51100000000E-03 0. -1.
         11   -1    0    0    0    0 -0.00000000000E+00 -0.00000000000E+00 -0.45593999997E+02  0.45594000000E+02  0.51100000000E-03 0.  1.
    9900012    2    1    2    0    0 -0.39076013343E+02  0.91483545716E+01 -0.16522606991E+02  0.47787265537E+02  0.19999974888E+02 0.  0.
        -12    1    1    2    0    0  0.39076013343E+02 -0.91483545716E+01  0.16522606991E+02  0.43400734463E+02  0.00000000000E+00 0.  1.
         11    1    3    3    0    0 -0.70072612033E+01  0.57699289506E+00 -0.10194417952E+02  0.12383892280E+02  0.51100000000E-03 0. -1.
        -11    1    3    3    0    0 -0.12849479272E+02 -0.12229287306E+01  0.55263880793E-01  0.12907661547E+02  0.51100000000E-03 0.  1.
        -12    1    3    3    0    0 -0.19219272868E+02  0.97942904071E+01 -0.63834529200E+01  0.22495711710E+02  0.00000000000E+00 0.  1.
</event>
<event>
 7    1  0.2505412E-009  0.4778727E+02  0.7816164E-02  0.1312668E+00
        -11   -1    0    0    0    0  0.00000000000E+00  0.00000000000E+00  0.45593999997E+02  0.45594000000E+02  0.51100000000E-03 0. -1.
         11   -1    0    0    0    0 -0.00000000000E+00 -0.00000000000E+00 -0.45593999997E+02  0.45594000000E+02  0.51100000000E-03 0.  1.
    9900012    2    1    2    0    0  0.37851370884E+02 -0.15223322534E+02  0.14803637223E+02  0.47787268418E+02  0.19999988025E+02 0.  0.
        -12    1    1    2    0    0 -0.37851370884E+02  0.15223322534E+02 -0.14803637223E+02  0.43400731582E+02  0.00000000000E+00 0.  1.
         11    1    3    3    0    0  0.15250045412E+02 -0.75496181034E+01  0.12107541087E+02  0.20884280453E+02  0.51100000000E-03 0.  1.
        -11    1    3    3    0    0  0.10651877370E+02  0.16742026256E+00  0.60098488758E+01  0.12231467812E+02  0.51100000000E-03 0. -1.
        -12    1    3    3    0    0  0.11949448102E+02 -0.78411246935E+01 -0.33137527401E+01  0.14671520154E+02  0.00000000000E+00 0.  1.
</event>
<event>
 7    1  0.2505412E-009  0.4778727E+02  0.7816164E-02  0.1312668E+00
        -11   -1    0    0    0    0  0.00000000000E+00  0.00000000000E+00  0.45593999997E+02  0.45594000000E+02  0.51100000000E-03 0.  1.
         11   -1    0    0    0    0 -0.00000000000E+00 -0.00000000000E+00 -0.45593999997E+02  0.45594000000E+02  0.51100000000E-03 0. -1.
    9900012    2    1    2    0    0 -0.13170018674E+02 -0.23931554567E+02 -0.33726170323E+02  0.47787271198E+02  0.20000000700E+02 0.  0.
        -12    1    1    2    0    0  0.13170018674E+02  0.23931554567E+02  0.33726170323E+02  0.43400728802E+02  0.00000000000E+00 0.  1.
         11    1    3    3    0    0 -0.25541501190E+00 -0.69329911574E+01 -0.10553080896E+02  0.12629296096E+02  0.51100000000E-03 0. -1.
        -11    1    3    3    0    0 -0.30861515524E+01 -0.22504779314E+01  0.20468878409E+01  0.43334434828E+01  0.51100000000E-03 0.  1.
        -12    1    3    3    0    0 -0.98284521098E+01 -0.14748085478E+02 -0.25219977268E+02  0.30824531620E+02  0.00000000000E+00 0.  1.
</event>
<event>
 7    1  0.2505412E-009  0.4778727E+02  0.7816164E-02  0.1312668E+00
        -11   -1    0    0    0    0  0.00000000000E+00  0.00000000000E+00  0.45593999997E+02  0.45594000000E+02  0.51100000000E-03 0.  1.
         11   -1    0    0    0    0 -0.00000000000E+00 -0.00000000000E+00 -0.45593999997E+02  0.45594000000E+02  0.51100000000E-03 0. -1.
    9900012    2    1    2    0    0  0.10121519457E+02 -0.16052274165E+02 -0.39032074710E+02  0.47787268230E+02  0.19999987168E+02 0.  0.
        -12    1    1    2    0    0 -0.10121519457E+02  0.16052274165E+02  0.39032074710E+02  0.43400731770E+02  0.00000000000E+00 0.  1.
         11    1    3    3    0    0  0.94035526205E+01 -0.16426693029E+02 -0.36457893452E+02  0.41078474181E+02  0.51100000000E-03 0. -1.
        -11    1    3    3    0    0  0.34274616598E+01 -0.14290662942E-05 -0.10887535406E+01  0.35962310775E+01  0.51100000000E-03 0.  1.
         12    1    3    3    0    0 -0.27094948230E+01  0.37442029336E+00 -0.14854277172E+01  0.31125629721E+01  0.00000000000E+00 0. -1.
</event>
<event>
 7    1  0.2505412E-009  0.4778727E+02  0.7816164E-02  0.1312668E+00
        -11   -1    0    0    0    0  0.00000000000E+00  0.00000000000E+00  0.45593999997E+02  0.45594000000E+02  0.51100000000E-03 0.  1.
         11   -1    0    0    0    0 -0.00000000000E+00 -0.00000000000E+00 -0.45593999997E+02  0.45594000000E+02  0.51100000000E-03 0. -1.
    9900012    2    1    2    0    0  0.43056982728E+01 -0.38878358676E+02 -0.18803121558E+02  0.47787271996E+02  0.20000004336E+02 0.  0.
        -12    1    1    2    0    0 -0.43056982728E+01  0.38878358676E+02  0.18803121558E+02  0.43400728004E+02  0.00000000000E+00 0.  1.
         11    1    3    3    0    0 -0.20942583474E+01 -0.12718422239E+02  0.15962334409E+01  0.12988153977E+02  0.51100000000E-03 0. -1.
        -11    1    3    3    0    0  0.56490871447E+01 -0.70147265147E+01 -0.72332081857E+01  0.11551531265E+02  0.51100000000E-03 0.  1.
        -12    1    3    3    0    0  0.75086947547E+00 -0.19145209923E+02 -0.13166146814E+02  0.23247586754E+02  0.00000000000E+00 0.  1.
</event>
<event>
 7    1  0.2505412E-009  0.4778727E+02  0.7816164E-02  0.1312668E+00
        -11   -1    0    0    0    0  0.00000000000E+00  0.00000000000E+00  0.45593999997E+02  0.45594000000E+02  0.51100000000E-03 0. -1.
         11   -1    0    0    0    0 -0.00000000000E+00 -0.00000000000E+00 -0.45593999997E+02  0.45594000000E+02  0.51100000000E-03 0.  1.
    9900012    2    1    2    0    0 -0.23255494752E+01  0.89977624225E+01  0.42394046535E+02  0.47787273156E+02  0.20000009628E+02 0.  0.
        -12    1    1    2    0    0  0.23255494752E+01 -0.89977624225E+01 -0.42394046535E+02  0.43400726844E+02  0.00000000000E+00 0.  1.
         11    1    3    3    0    0  0.68604212835E+00  0.49318233049E+01  0.17007876435E+01  0.52617690734E+01  0.51100000000E-03 0. -1.
        -11    1    3    3    0    0 -0.25778838459E+01 -0.35623021159E+01  0.10565673117E+02  0.11444165770E+02  0.51100000000E-03 0.  1.
         12    1    3    3    0    0 -0.43370775760E+00  0.76282412336E+01  0.30127585774E+02  0.31081338313E+02  0.00000000000E+00 0. -1.
</event>
<event>
 7    1  0.2505412E-009  0.4778727E+02  0.7816164E-02  0.1312668E+00
        -11   -1    0    0    0    0  0.00000000000E+00  0.00000000000E+00  0.45593999997E+02  0.45594000000E+02  0.51100000000E-03 0.  1.
         11   -1    0    0    0    0 -0.00000000000E+00 -0.00000000000E+00 -0.45593999997E+02  0.45594000000E+02  0.51100000000E-03 0. -1.
    9900012    2    1    2    0    0  0.15344991693E+02 -0.36127857032E+02 -0.18518429489E+02  0.47787273571E+02  0.20000011520E+02 0.  0.
        -12    1    1    2    0    0 -0.15344991693E+02  0.36127857032E+02  0.18518429489E+02  0.43400726429E+02  0.00000000000E+00 0.  1.
         11    1    3    3    0    0  0.74011289427E+01 -0.76705690775E+01 -0.10861399257E+02  0.15217895179E+02  0.51100000000E-03 0. -1.
        -11    1    3    3    0    0 -0.15172879048E+01 -0.15554419886E+01 -0.29540019297E+01  0.36671092195E+01  0.51100000000E-03 0.  1.
         12    1    3    3    0    0  0.94611506553E+01 -0.26901845966E+02 -0.47030283020E+01  0.28902269173E+02  0.00000000000E+00 0. -1.
</event>
<event>
 7    1  0.2505412E-009  0.4778727E+02  0.7816164E-02  0.1312668E+00
        -11   -1    0    0    0    0  0.00000000000E+00  0.00000000000E+00  0.45593999997E+02  0.45594000000E+02  0.51100000000E-03 0.  1.
         11   -1    0    0    0    0 -0.00000000000E+00 -0.00000000000E+00 -0.45593999997E+02  0.45594000000E+02  0.51100000000E-03 0. -1.
    9900012    2    1    2    0    0  0.41675926912E+01  0.87304655464E+01 -0.42308788517E+02  0.47787269093E+02  0.19999991102E+02 0.  0.
        -12    1    1    2    0    0 -0.41675926912E+01 -0.87304655464E+01  0.42308788517E+02  0.43400730907E+02  0.00000000000E+00 0.  1.
         11    1    3    3    0    0  0.76659935521E+00  0.10203104901E+02 -0.14076219099E+02  0.17402039208E+02  0.51100000000E-03 0. -1.
        -11    1    3    3    0    0 -0.25468563942E+01  0.13241465431E+01 -0.17973848363E+02  0.18201622642E+02  0.51100000000E-03 0.  1.
         12    1    3    3    0    0  0.59478497302E+01 -0.27967858982E+01 -0.10258721055E+02  0.12183607243E+02  0.00000000000E+00 0. -1.
</event>
<event>
 7    1  0.2505412E-009  0.4778728E+02  0.7816164E-02  0.1312668E+00
        -11   -1    0    0    0    0  0.00000000000E+00  0.00000000000E+00  0.45593999997E+02  0.45594000000E+02  0.51100000000E-03 0. -1.
         11   -1    0    0    0    0 -0.00000000000E+00 -0.00000000000E+00 -0.45593999997E+02  0.45594000000E+02  0.51100000000E-03 0.  1.
    9900012    2    1    2    0    0 -0.30884115263E+02 -0.93068834675E+01 -0.29037488438E+02  0.47787281224E+02  0.20000046414E+02 0.  0.
        -12    1    1    2    0    0  0.30884115263E+02  0.93068834675E+01  0.29037488438E+02  0.43400718776E+02  0.00000000000E+00 0.  1.
         11    1    3    3    0    0 -0.15173119373E+02 -0.12526063936E+02 -0.22241470639E+02  0.29695266385E+02  0.51100000000E-03 0.  1.
        -11    1    3    3    0    0 -0.91428681324E+01  0.60795648088E+00 -0.60599097617E+01  0.10985634044E+02  0.51100000000E-03 0. -1.
        -12    1    3    3    0    0 -0.65681277580E+01  0.26112239877E+01 -0.73610803663E+00  0.71063807948E+01  0.00000000000E+00 0.  1.
</event>
<event>
 7    1  0.2505412E-009  0.4778727E+02  0.7816164E-02  0.1312668E+00
        -11   -1    0    0    0    0  0.00000000000E+00  0.00000000000E+00  0.45593999997E+02  0.45594000000E+02  0.51100000000E-03 0.  1.
         11   -1    0    0    0    0 -0.00000000000E+00 -0.00000000000E+00 -0.45593999997E+02  0.45594000000E+02  0.51100000000E-03 0. -1.
    9900012    2    1    2    0    0  0.25300732272E+02 -0.54997342034E+01 -0.34831730870E+02  0.47787267227E+02  0.19999982593E+02 0.  0.
        -12    1    1    2    0    0 -0.25300732272E+02  0.54997342034E+01  0.34831730870E+02  0.43400732773E+02  0.00000000000E+00 0.  1.
         11    1    3    3    0    0 -0.13706323591E+00 -0.39630444141E+01 -0.44969805293E+01  0.59956101859E+01  0.51100000000E-03 0. -1.
        -11    1    3    3    0    0  0.18923968615E+01 -0.42766998118E+01 -0.27664554440E+01  0.54336546768E+01  0.51100000000E-03 0.  1.
        -12    1    3    3    0    0  0.23545398647E+02  0.27400100226E+01 -0.27568294897E+02  0.36358002364E+02  0.00000000000E+00 0.  1.
</event>
<event>
 7    1  0.2505412E-009  0.4778727E+02  0.7816164E-02  0.1312668E+00
        -11   -1    0    0    0    0  0.00000000000E+00  0.00000000000E+00  0.45593999997E+02  0.45594000000E+02  0.51100000000E-03 0.  1.
         11   -1    0    0    0    0 -0.00000000000E+00 -0.00000000000E+00 -0.45593999997E+02  0.45594000000E+02  0.51100000000E-03 0. -1.
    9900012    2    1    2    0    0  0.37494193223E+02  0.10526468845E+02  0.19157304495E+02  0.47787269738E+02  0.19999994043E+02 0.  0.
        -12    1    1    2    0    0 -0.37494193223E+02 -0.10526468845E+02 -0.19157304495E+02  0.43400730262E+02  0.00000000000E+00 0.  1.
         11    1    3    3    0    0  0.31003806459E+02  0.37807935706E+01  0.11192628878E+02  0.33178386887E+02  0.51100000000E-03 0. -1.
        -11    1    3    3    0    0 -0.22677401218E+00  0.34927681192E+01 -0.25133103436E+00  0.35091342433E+01  0.51100000000E-03 0.  1.
         12    1    3    3    0    0  0.67171607760E+01  0.32529071552E+01  0.82160066518E+01  0.11099748608E+02  0.00000000000E+00 0. -1.
</event>
<event>
 7    1  0.2505412E-009  0.4778728E+02  0.7816164E-02  0.1312668E+00
        -11   -1    0    0    0    0  0.00000000000E+00  0.00000000000E+00  0.45593999997E+02  0.45594000000E+02  0.51100000000E-03 0. -1.
         11   -1    0    0    0    0 -0.00000000000E+00 -0.00000000000E+00 -0.45593999997E+02  0.45594000000E+02  0.51100000000E-03 0.  1.
    9900012    2    1    2    0    0 -0.58208221265E+01  0.40958119377E+01  0.42813138117E+02  0.47787280638E+02  0.20000043742E+02 0.  0.
        -12    1    1    2    0    0  0.58208221265E+01 -0.40958119377E+01 -0.42813138117E+02  0.43400719362E+02  0.00000000000E+00 0.  1.
         11    1    3    3    0    0 -0.28462632731E+01  0.54579130822E+00  0.36533759147E+02  0.36648528763E+02  0.51100000000E-03 0. -1.
        -11    1    3    3    0    0 -0.52680015946E+01  0.18983518216E+01  0.61386756615E+01  0.83089662159E+01  0.51100000000E-03 0.  1.
         12    1    3    3    0    0  0.22934427412E+01  0.16516688079E+01  0.14070330851E+00  0.28297856596E+01  0.00000000000E+00 0. -1.
</event>
<event>
 7    1  0.2505412E-009  0.4778727E+02  0.7816164E-02  0.1312668E+00
        -11   -1    0    0    0    0  0.00000000000E+00  0.00000000000E+00  0.45593999997E+02  0.45594000000E+02  0.51100000000E-03 0.  1.
         11   -1    0    0    0    0 -0.00000000000E+00 -0.00000000000E+00 -0.45593999997E+02  0.45594000000E+02  0.51100000000E-03 0. -1.
    9900012    2    1    2    0    0 -0.91337043799E+01  0.38178609369E+02 -0.18509258170E+02  0.47787269510E+02  0.19999993002E+02 0.  0.
        -12    1    1    2    0    0  0.91337043799E+01 -0.38178609369E+02  0.18509258170E+02  0.43400730490E+02  0.00000000000E+00 0.  1.
         11    1    3    3    0    0  0.20774673601E+01  0.12480934005E+02 -0.33108616742E+01  0.13078661612E+02  0.51100000000E-03 0. -1.
        -11    1    3    3    0    0 -0.85806852172E+01  0.62056425155E+01 -0.95121205948E+01  0.14234415910E+02  0.51100000000E-03 0.  1.
         12    1    3    3    0    0 -0.26304865228E+01  0.19492032849E+02 -0.56862759012E+01  0.20474191988E+02  0.00000000000E+00 0. -1.
</event>
<event>
 7    1  0.2505412E-009  0.4778727E+02  0.7816164E-02  0.1312668E+00
        -11   -1    0    0    0    0  0.00000000000E+00  0.00000000000E+00  0.45593999997E+02  0.45594000000E+02  0.51100000000E-03 0.  1.
         11   -1    0    0    0    0 -0.00000000000E+00 -0.00000000000E+00 -0.45593999997E+02  0.45594000000E+02  0.51100000000E-03 0. -1.
    9900012    2    1    2    0    0  0.28733252776E+02 -0.23390111866E+02 -0.22603672127E+02  0.47787272566E+02  0.20000006938E+02 0.  0.
        -12    1    1    2    0    0 -0.28733252776E+02  0.23390111866E+02  0.22603672127E+02  0.43400727434E+02  0.00000000000E+00 0.  1.
         11    1    3    3    0    0  0.24313607164E+02 -0.22569476568E+02 -0.15193492438E+02  0.36488011437E+02  0.51100000000E-03 0. -1.
        -11    1    3    3    0    0  0.11755973376E+00 -0.26639599887E+01 -0.16223072606E+00  0.26714831427E+01  0.51100000000E-03 0.  1.
        -12    1    3    3    0    0  0.43020858784E+01  0.18433246911E+01 -0.72479489628E+01  0.86277779868E+01  0.00000000000E+00 0.  1.
</event>
<event>
 7    1  0.2930824E-009  0.4778727E+02  0.7816164E-02  0.1312668E+00
        -11   -1    0    0    0    0  0.00000000000E+00  0.00000000000E+00  0.45593999997E+02  0.45594000000E+02  0.51100000000E-03 0.  1.
         11   -1    0    0    0    0 -0.00000000000E+00 -0.00000000000E+00 -0.45593999997E+02  0.45594000000E+02  0.51100000000E-03 0. -1.
    9900012    2    1    2    0    0  0.59318853829E+01  0.42248406575E+02 -0.79692078518E+01  0.47787269636E+02  0.19999993578E+02 0.  0.
        -12    1    1    2    0    0 -0.59318853829E+01 -0.42248406575E+02  0.79692078518E+01  0.43400730364E+02  0.00000000000E+00 0.  1.
         11    1    3    3    0    0  0.45989585201E+01  0.16741943302E+02 -0.17540755527E+01  0.17450497595E+02  0.51100000000E-03 0. -1.
        -11    1    3    3    0    0  0.28531198962E+01 -0.59631938477E+00 -0.26657485313E+01  0.39499500559E+01  0.51100000000E-03 0.  1.
        -12    1    3    3    0    0 -0.15201930334E+01  0.26102782658E+02 -0.35493837677E+01  0.26386821985E+02  0.00000000000E+00 0.  1.
</event>
<event>
 7    1  0.2505412E-009  0.4778731E+02  0.7816164E-02  0.1312668E+00
        -11   -1    0    0    0    0  0.00000000000E+00  0.00000000000E+00  0.45593999997E+02  0.45594000000E+02  0.51100000000E-03 0. -1.
         11   -1    0    0    0    0 -0.00000000000E+00 -0.00000000000E+00 -0.45593999997E+02  0.45594000000E+02  0.51100000000E-03 0.  1.
    9900012    2    1    2    0    0  0.26335227658E+02  0.26760573961E+01  0.34393525558E+02  0.47787307617E+02  0.20000166750E+02 0.  0.
        -12    1    1    2    0    0 -0.26335227658E+02 -0.26760573961E+01 -0.34393525558E+02  0.43400692383E+02  0.00000000000E+00 0.  1.
         11    1    3    3    0    0  0.97811784825E+01  0.18734678771E+01  0.16553062098E+02  0.19318001953E+02  0.51100000000E-03 0. -1.
        -11    1    3    3    0    0  0.99834252758E+01  0.20679064002E+01  0.87602996864E+00  0.10232909942E+02  0.51100000000E-03 0.  1.
         12    1    3    3    0    0  0.65706238995E+01 -0.12653168813E+01  0.16964433491E+02  0.18236395722E+02  0.00000000000E+00 0. -1.
</event>
<event>
 7    1  0.2505412E-009  0.4778727E+02  0.7816164E-02  0.1312668E+00
        -11   -1    0    0    0    0  0.00000000000E+00  0.00000000000E+00  0.45593999997E+02  0.45594000000E+02  0.51100000000E-03 0. -1.
         11   -1    0    0    0    0 -0.00000000000E+00 -0.00000000000E+00 -0.45593999997E+02  0.45594000000E+02  0.51100000000E-03 0.  1.
    9900012    2    1    2    0    0  0.18771897166E+02 -0.36633185094E+02  0.13756792289E+02  0.47787266050E+02  0.19999977226E+02 0.  0.
        -12    1    1    2    0    0 -0.18771897166E+02  0.36633185094E+02 -0.13756792289E+02  0.43400733950E+02  0.00000000000E+00 0.  1.
         11    1    3    3    0    0  0.11328258330E+02 -0.22319989845E+02  0.53102607130E+01  0.25587306473E+02  0.51100000000E-03 0. -1.
        -11    1    3    3    0    0  0.66570389321E-01 -0.16819138697E+00 -0.27206713782E+01  0.27266780098E+01  0.51100000000E-03 0.  1.
         12    1    3    3    0    0  0.73770684463E+01 -0.14145003863E+02  0.11167202955E+02  0.19473281566E+02  0.00000000000E+00 0. -1.
</event>
<event>
 7    1  0.2505412E-009  0.4778727E+02  0.7816164E-02  0.1312668E+00
        -11   -1    0    0    0    0  0.00000000000E+00  0.00000000000E+00  0.45593999997E+02  0.45594000000E+02  0.51100000000E-03 0. -1.
         11   -1    0    0    0    0 -0.00000000000E+00 -0.00000000000E+00 -0.45593999997E+02  0.45594000000E+02  0.51100000000E-03 0.  1.
    9900012    2    1    2    0    0 -0.28897400442E+02  0.48233234226E+00 -0.32377935972E+02  0.47787272649E+02  0.20000007317E+02 0.  0.
        -12    1    1    2    0    0  0.28897400442E+02 -0.48233234226E+00  0.32377935972E+02  0.43400727351E+02  0.00000000000E+00 0.  1.
         11    1    3    3    0    0 -0.80323221919E+01 -0.47801214128E+01 -0.83342507690E+01  0.12523078561E+02  0.51100000000E-03 0. -1.
        -11    1    3    3    0    0 -0.10175892195E+02  0.55853069248E+01 -0.21245953919E+02  0.24210224980E+02  0.51100000000E-03 0.  1.
         12    1    3    3    0    0 -0.10689186055E+02 -0.32285316975E+00 -0.27977312835E+01  0.11053969107E+02  0.00000000000E+00 0. -1.
</event>
<event>
 7    1  0.2505412E-009  0.4778727E+02  0.7816164E-02  0.1312668E+00
        -11   -1    0    0    0    0  0.00000000000E+00  0.00000000000E+00  0.45593999997E+02  0.45594000000E+02  0.51100000000E-03 0.  1.
         11   -1    0    0    0    0 -0.00000000000E+00 -0.00000000000E+00 -0.45593999997E+02  0.45594000000E+02  0.51100000000E-03 0. -1.
    9900012    2    1    2    0    0 -0.17554843660E+02 -0.39634378025E+02  0.21369545751E+01  0.47787273829E+02  0.20000012694E+02 0.  0.
        -12    1    1    2    0    0  0.17554843660E+02  0.39634378025E+02 -0.21369545751E+01  0.43400726171E+02  0.00000000000E+00 0.  1.
         11    1    3    3    0    0 -0.17225782092E+02 -0.30397427856E+02 -0.35320261724E+01  0.35117038572E+02  0.51100000000E-03 0. -1.
        -11    1    3    3    0    0 -0.17400685282E+01 -0.68245360904E-01  0.21064132516E+01  0.27330336551E+01  0.51100000000E-03 0.  1.
         12    1    3    3    0    0  0.14110069605E+01 -0.91687048086E+01  0.35625674959E+01  0.99372016017E+01  0.00000000000E+00 0. -1.
</event>
<event>
 7    1  0.2505412E-009  0.4778727E+02  0.7816164E-02  0.1312668E+00
        -11   -1    0    0    0    0  0.00000000000E+00  0.00000000000E+00  0.45593999997E+02  0.45594000000E+02  0.51100000000E-03 0.  1.
         11   -1    0    0    0    0 -0.00000000000E+00 -0.00000000000E+00 -0.45593999997E+02  0.45594000000E+02  0.51100000000E-03 0. -1.
    9900012    2    1    2    0    0 -0.29632185003E+02  0.28849159561E+02  0.13163686822E+02  0.47787273668E+02  0.20000011962E+02 0.  0.
        -12    1    1    2    0    0  0.29632185003E+02 -0.28849159561E+02 -0.13163686822E+02  0.43400726332E+02  0.00000000000E+00 0.  1.
         11    1    3    3    0    0 -0.13622080836E+02  0.19957256764E+02  0.64636937993E+01  0.25012647233E+02  0.51100000000E-03 0. -1.
        -11    1    3    3    0    0 -0.10604532671E+02  0.66517426005E+01  0.10031251142E+02  0.16041439852E+02  0.51100000000E-03 0.  1.
         12    1    3    3    0    0 -0.54055714957E+01  0.22401601967E+01 -0.33312581191E+01  0.67331865828E+01  0.00000000000E+00 0. -1.
</event>
<event>
 7    1  0.2505412E-009  0.4778728E+02  0.7816164E-02  0.1312668E+00
        -11   -1    0    0    0    0  0.00000000000E+00  0.00000000000E+00  0.45593999997E+02  0.45594000000E+02  0.51100000000E-03 0.  1.
         11   -1    0    0    0    0 -0.00000000000E+00 -0.00000000000E+00 -0.45593999997E+02  0.45594000000E+02  0.51100000000E-03 0. -1.
    9900012    2    1    2    0    0 -0.21242988416E+02  0.25002763033E+01 -0.37763823054E+02  0.47787282609E+02  0.20000052727E+02 0.  0.
        -12    1    1    2    0    0  0.21242988416E+02 -0.25002763033E+01  0.37763823054E+02  0.43400717391E+02  0.00000000000E+00 0.  1.
         11    1    3    3    0    0 -0.17707098727E+02  0.51640466015E+01 -0.26520143080E+02  0.32303664063E+02  0.51100000000E-03 0. -1.
        -11    1    3    3    0    0  0.14942627562E+01  0.12330184080E+01 -0.82081315778E+01  0.84336575600E+01  0.51100000000E-03 0.  1.
        -12    1    3    3    0    0 -0.50301524449E+01 -0.38967887062E+01 -0.30355483958E+01  0.70499609859E+01  0.00000000000E+00 0.  1.
</event>
<event>
 7    1  0.2505412E-009  0.4778727E+02  0.7816164E-02  0.1312668E+00
        -11   -1    0    0    0    0  0.00000000000E+00  0.00000000000E+00  0.45593999997E+02  0.45594000000E+02  0.51100000000E-03 0. -1.
         11   -1    0    0    0    0 -0.00000000000E+00 -0.00000000000E+00 -0.45593999997E+02  0.45594000000E+02  0.51100000000E-03 0.  1.
    9900012    2    1    2    0    0  0.29184977547E+02  0.13423160426E+02  0.29183538481E+02  0.47787273411E+02  0.20000010788E+02 0.  0.
        -12    1    1    2    0    0 -0.29184977547E+02 -0.13423160426E+02 -0.29183538481E+02  0.43400726589E+02  0.00000000000E+00 0.  1.
         11    1    3    3    0    0  0.11808445747E+02  0.12475682588E+02  0.98507732298E+01  0.19802014556E+02  0.51100000000E-03 0. -1.
        -11    1    3    3    0    0  0.29911556987E+00 -0.20567820241E+01  0.86810507653E-01  0.20802304546E+01  0.51100000000E-03 0.  1.
         12    1    3    3    0    0  0.17077416230E+02  0.30042598618E+01  0.19245954743E+02  0.25905028400E+02  0.00000000000E+00 0. -1.
</event>
<event>
 7    1  0.2505412E-009  0.4778727E+02  0.7816164E-02  0.1312668E+00
        -11   -1    0    0    0    0  0.00000000000E+00  0.00000000000E+00  0.45593999997E+02  0.45594000000E+02  0.51100000000E-03 0.  1.
         11   -1    0    0    0    0 -0.00000000000E+00 -0.00000000000E+00 -0.45593999997E+02  0.45594000000E+02  0.51100000000E-03 0. -1.
    9900012    2    1    2    0    0 -0.24647881756E+02 -0.12373004431E+02 -0.33511401423E+02  0.47787270294E+02  0.19999996578E+02 0.  0.
        -12    1    1    2    0    0  0.24647881756E+02  0.12373004431E+02  0.33511401423E+02  0.43400729706E+02  0.00000000000E+00 0.  1.
         11    1    3    3    0    0  0.19083024626E+01 -0.62785754723E+01 -0.43769114768E+01  0.78879327195E+01  0.51100000000E-03 0. -1.
        -11    1    3    3    0    0 -0.83662498705E+01 -0.17102558397E+01 -0.86207066553E+01  0.12134071676E+02  0.51100000000E-03 0.  1.
         12    1    3    3    0    0 -0.18189934348E+02 -0.43841731194E+01 -0.20513783290E+02  0.27765265899E+02  0.00000000000E+00 0. -1.
</event>
<event>
 7    1  0.2505412E-009  0.4778727E+02  0.7816164E-02  0.1312668E+00
        -11   -1    0    0    0    0  0.00000000000E+00  0.00000000000E+00  0.45593999997E+02  0.45594000000E+02  0.51100000000E-03 0.  1.
         11   -1    0    0    0    0 -0.00000000000E+00 -0.00000000000E+00 -0.45593999997E+02  0.45594000000E+02  0.51100000000E-03 0. -1.
    9900012    2    1    2    0    0  0.34931541595E+02  0.23441827078E+02  0.10671989767E+02  0.47787271659E+02  0.20000002802E+02 0.  0.
        -12    1    1    2    0    0 -0.34931541595E+02 -0.23441827078E+02 -0.10671989767E+02  0.43400728341E+02  0.00000000000E+00 0.  1.
         11    1    3    3    0    0  0.90459976713E+01  0.10067918287E+02 -0.30375918930E+01  0.13871554248E+02  0.51100000000E-03 0. -1.
        -11    1    3    3    0    0  0.26099608230E+01  0.45404408713E+01  0.57529421012E+01  0.77797070565E+01  0.51100000000E-03 0.  1.
         12    1    3    3    0    0  0.23275583100E+02  0.88334679198E+01  0.79566395591E+01  0.26136010354E+02  0.00000000000E+00 0. -1.
</event>
<event>
 7    1  0.2505412E-009  0.4778727E+02  0.7816164E-02  0.1312668E+00
        -11   -1    0    0    0    0  0.00000000000E+00  0.00000000000E+00  0.45593999997E+02  0.45594000000E+02  0.51100000000E-03 0.  1.
         11   -1    0    0    0    0 -0.00000000000E+00 -0.00000000000E+00 -0.45593999997E+02  0.45594000000E+02  0.51100000000E-03 0. -1.
    9900012    2    1    2    0    0  0.39044365821E+02 -0.17915660077E+02 -0.61797873689E+01  0.47787272468E+02  0.20000006492E+02 0.  0.
        -12    1    1    2    0    0 -0.39044365821E+02  0.17915660077E+02  0.61797873689E+01  0.43400727532E+02  0.00000000000E+00 0.  1.
         11    1    3    3    0    0  0.11911626244E+02 -0.28793978728E+01 -0.84011004707E+01  0.14857868665E+02  0.51100000000E-03 0. -1.
        -11    1    3    3    0    0  0.22758786806E+02 -0.71889274303E+01  0.14086207510E+01  0.23908727845E+02  0.51100000000E-03 0.  1.
         12    1    3    3    0    0  0.43739527713E+01 -0.78473347736E+01  0.81269235090E+00  0.90206759587E+01  0.00000000000E+00 0. -1.
</event>
<event>
 7    1  0.2505412E-009  0.4778727E+02  0.7816164E-02  0.1312668E+00
        -11   -1    0    0    0    0  0.00000000000E+00  0.00000000000E+00  0.45593999997E+02  0.45594000000E+02  0.51100000000E-03 0.  1.
         11   -1    0    0    0    0 -0.00000000000E+00 -0.00000000000E+00 -0.45593999997E+02  0.45594000000E+02  0.51100000000E-03 0. -1.
    9900012    2    1    2    0    0 -0.15498636291E+02 -0.40506283024E+02 -0.16299348962E+01  0.47787269833E+02  0.19999994475E+02 0.  0.
        -12    1    1    2    0    0  0.15498636291E+02  0.40506283024E+02  0.16299348962E+01  0.43400730167E+02  0.00000000000E+00 0.  1.
         11    1    3    3    0    0 -0.88414372121E+01 -0.36984244397E+01 -0.16083476327E+01  0.97178257692E+01  0.51100000000E-03 0. -1.
        -11    1    3    3    0    0 -0.74810281805E-01 -0.17632143248E+02  0.17458823848E+01  0.17718526396E+02  0.51100000000E-03 0.  1.
        -12    1    3    3    0    0 -0.65823887973E+01 -0.19175715336E+02 -0.17674696483E+01  0.20350917667E+02  0.00000000000E+00 0.  1.
</event>
<event>
 7    1  0.2505412E-009  0.4778728E+02  0.7816164E-02  0.1312668E+00
        -11   -1    0    0    0    0  0.00000000000E+00  0.00000000000E+00  0.45593999997E+02  0.45594000000E+02  0.51100000000E-03 0. -1.
         11   -1    0    0    0    0 -0.00000000000E+00 -0.00000000000E+00 -0.45593999997E+02  0.45594000000E+02  0.51100000000E-03 0.  1.
    9900012    2    1    2    0    0  0.26322560748E+02 -0.18711547026E+02  0.28993505041E+02  0.47787279603E+02  0.20000039022E+02 0.  0.
        -12    1    1    2    0    0 -0.26322560748E+02  0.18711547026E+02 -0.28993505041E+02  0.43400720397E+02  0.00000000000E+00 0.  1.
         11    1    3    3    0    0  0.15715768674E+02 -0.33646333635E+01  0.19553881108E+02  0.25311270402E+02  0.51100000000E-03 0. -1.
        -11    1    3    3    0    0  0.11170050889E+01 -0.23432027870E+01 -0.15135837901E+01  0.30048686860E+01  0.51100000000E-03 0.  1.
        -12    1    3    3    0    0  0.94897869848E+01 -0.13003710876E+02  0.10953207723E+02  0.19471140515E+02  0.00000000000E+00 0.  1.
</event>
<event>
 7    1  0.2505412E-009  0.4778727E+02  0.7816164E-02  0.1312668E+00
        -11   -1    0    0    0    0  0.00000000000E+00  0.00000000000E+00  0.45593999997E+02  0.45594000000E+02  0.51100000000E-03 0.  1.
         11   -1    0    0    0    0 -0.00000000000E+00 -0.00000000000E+00 -0.45593999997E+02  0.45594000000E+02  0.51100000000E-03 0. -1.
    9900012    2    1    2    0    0 -0.25963984848E+00 -0.41417940482E+02 -0.12965723153E+02  0.47787272086E+02  0.20000004747E+02 0.  0.
        -12    1    1    2    0    0  0.25963984848E+00  0.41417940482E+02  0.12965723153E+02  0.43400727914E+02  0.00000000000E+00 0.  1.
         11    1    3    3    0    0  0.27970796306E+01 -0.97114052368E+01 -0.39794584988E+01  0.10861451852E+02  0.51100000000E-03 0. -1.
        -11    1    3    3    0    0  0.34709061232E+01 -0.17033464318E+02 -0.11251859916E+02  0.20707255922E+02  0.51100000000E-03 0.  1.
        -12    1    3    3    0    0 -0.65276256023E+01 -0.14673070927E+02  0.22655952615E+01  0.16218564312E+02  0.00000000000E+00 0.  1.
</event>
<event>
 7    1  0.2505412E-009  0.4778727E+02  0.7816164E-02  0.1312668E+00
        -11   -1    0    0    0    0  0.00000000000E+00  0.00000000000E+00  0.45593999997E+02  0.45594000000E+02  0.51100000000E-03 0.  1.
         11   -1    0    0    0    0 -0.00000000000E+00 -0.00000000000E+00 -0.45593999997E+02  0.45594000000E+02  0.51100000000E-03 0. -1.
    9900012    2    1    2    0    0 -0.12251176522E+02 -0.22382900896E+01 -0.41575498984E+02  0.47787269770E+02  0.19999994190E+02 0.  0.
        -12    1    1    2    0    0  0.12251176522E+02  0.22382900896E+01  0.41575498984E+02  0.43400730230E+02  0.00000000000E+00 0.  1.
         11    1    3    3    0    0 -0.59775872445E+01  0.40193729791E+01 -0.99236984858E+01  0.12262410053E+02  0.51100000000E-03 0.  1.
        -11    1    3    3    0    0  0.38349760415E+01 -0.44253929843E+01 -0.11309036090E+02  0.12735204822E+02  0.51100000000E-03 0. -1.
         12    1    3    3    0    0 -0.10108565319E+02 -0.18322700845E+01 -0.20342764408E+02  0.22789654895E+02  0.00000000000E+00 0. -1.
</event>
<event>
 7    1  0.2505412E-009  0.4778727E+02  0.7816164E-02  0.1312668E+00
        -11   -1    0    0    0    0  0.00000000000E+00  0.00000000000E+00  0.45593999997E+02  0.45594000000E+02  0.51100000000E-03 0.  1.
         11   -1    0    0    0    0 -0.00000000000E+00 -0.00000000000E+00 -0.45593999997E+02  0.45594000000E+02  0.51100000000E-03 0. -1.
    9900012    2    1    2    0    0  0.23346769641E+02  0.32366626060E+02 -0.17057362538E+02  0.47787265537E+02  0.19999974888E+02 0.  0.
        -12    1    1    2    0    0 -0.23346769641E+02 -0.32366626060E+02  0.17057362538E+02  0.43400734463E+02  0.00000000000E+00 0.  1.
         11    1    3    3    0    0  0.69836233230E+01  0.42554841425E+00 -0.58739446021E+01  0.91353878747E+01  0.51100000000E-03 0. -1.
        -11    1    3    3    0    0  0.42954534434E+01  0.14065071813E+02 -0.83140326327E+01  0.16893794845E+02  0.51100000000E-03 0.  1.
        -12    1    3    3    0    0  0.12067692874E+02  0.17876005833E+02 -0.28693853035E+01  0.21758082817E+02  0.00000000000E+00 0.  1.
</event>
<event>
 7    1  0.2505412E-009  0.4778727E+02  0.7816164E-02  0.1312668E+00
        -11   -1    0    0    0    0  0.00000000000E+00  0.00000000000E+00  0.45593999997E+02  0.45594000000E+02  0.51100000000E-03 0.  1.
         11   -1    0    0    0    0 -0.00000000000E+00 -0.00000000000E+00 -0.45593999997E+02  0.45594000000E+02  0.51100000000E-03 0. -1.
    9900012    2    1    2    0    0  0.33103132660E+02 -0.19770251922E+02 -0.19923432927E+02  0.47787269216E+02  0.19999991664E+02 0.  0.
        -12    1    1    2    0    0 -0.33103132660E+02  0.19770251922E+02  0.19923432927E+02  0.43400730784E+02  0.00000000000E+00 0.  1.
         11    1    3    3    0    0  0.59810833799E+01 -0.65627159030E+01 -0.97974766481E+01  0.13222448614E+02  0.51100000000E-03 0. -1.
        -11    1    3    3    0    0  0.77548774000E+01  0.19861759196E+01 -0.15615081726E+00  0.80067097869E+01  0.51100000000E-03 0.  1.
         12    1    3    3    0    0  0.19367171880E+02 -0.15193711939E+02 -0.99698054618E+01  0.26558110815E+02  0.00000000000E+00 0. -1.
</event>
<event>
 7    1  0.2505412E-009  0.4778727E+02  0.7816164E-02  0.1312668E+00
        -11   -1    0    0    0    0  0.00000000000E+00  0.00000000000E+00  0.45593999997E+02  0.45594000000E+02  0.51100000000E-03 0.  1.
         11   -1    0    0    0    0 -0.00000000000E+00 -0.00000000000E+00 -0.45593999997E+02  0.45594000000E+02  0.51100000000E-03 0. -1.
    9900012    2    1    2    0    0  0.13041541376E+01 -0.12379431888E+02 -0.41577301615E+02  0.47787272339E+02  0.20000005904E+02 0.  0.
        -12    1    1    2    0    0 -0.13041541376E+01  0.12379431888E+02  0.41577301615E+02  0.43400727661E+02  0.00000000000E+00 0.  1.
         11    1    3    3    0    0  0.10612630814E+01 -0.68772470347E+01 -0.19537378656E+02  0.20739623216E+02  0.51100000000E-03 0. -1.
        -11    1    3    3    0    0 -0.37886886277E+01 -0.46322368750E+01 -0.15982366692E+01  0.61940407406E+01  0.51100000000E-03 0.  1.
         12    1    3    3    0    0  0.40315796839E+01 -0.86994797785E+00 -0.20441686290E+02  0.20853608383E+02  0.00000000000E+00 0. -1.
</event>
<event>
 7    1  0.2505412E-009  0.4778727E+02  0.7816164E-02  0.1312668E+00
        -11   -1    0    0    0    0  0.00000000000E+00  0.00000000000E+00  0.45593999997E+02  0.45594000000E+02  0.51100000000E-03 0.  1.
         11   -1    0    0    0    0 -0.00000000000E+00 -0.00000000000E+00 -0.45593999997E+02  0.45594000000E+02  0.51100000000E-03 0. -1.
    9900012    2    1    2    0    0 -0.26797016989E+01 -0.40381967758E+02 -0.15676066391E+02  0.47787272141E+02  0.20000005000E+02 0.  0.
        -12    1    1    2    0    0  0.26797016989E+01  0.40381967758E+02  0.15676066391E+02  0.43400727859E+02  0.00000000000E+00 0.  1.
         11    1    3    3    0    0  0.19988149688E+01 -0.28057474256E+00  0.53707024469E+00  0.20886426632E+01  0.51100000000E-03 0.  1.
        -11    1    3    3    0    0 -0.79295598835E+01 -0.26707321499E+02 -0.58825768215E+01  0.28473911777E+02  0.51100000000E-03 0. -1.
         12    1    3    3    0    0  0.32510432158E+01 -0.13394071517E+02 -0.10330559814E+02  0.17224717701E+02  0.00000000000E+00 0. -1.
</event>
<event>
 7    1  0.3750184E-009  0.4778726E+02  0.7816164E-02  0.1312668E+00
        -11   -1    0    0    0    0  0.00000000000E+00  0.00000000000E+00  0.45593999997E+02  0.45594000000E+02  0.51100000000E-03 0.  1.
         11   -1    0    0    0    0 -0.00000000000E+00 -0.00000000000E+00 -0.45593999997E+02  0.45594000000E+02  0.51100000000E-03 0. -1.
    9900012    2    1    2    0    0  0.24662258666E+02 -0.35243504982E+02 -0.57699358576E+01  0.47787264917E+02  0.19999972064E+02 0.  0.
        -12    1    1    2    0    0 -0.24662258666E+02  0.35243504982E+02  0.57699358576E+01  0.43400735083E+02  0.00000000000E+00 0.  1.
         11    1    3    3    0    0  0.15148408724E+02 -0.15583799370E+02  0.19679562624E+01  0.21822051732E+02  0.51100000000E-03 0. -1.
        -11    1    3    3    0    0 -0.17774090105E+01 -0.20085638439E+01  0.14916133639E+01  0.30689448014E+01  0.51100000000E-03 0.  1.
        -12    1    3    3    0    0  0.11291258952E+02 -0.17651141768E+02 -0.92295054839E+01  0.22896268384E+02  0.00000000000E+00 0.  1.
</event>
<event>
 7    1  0.2505412E-009  0.4778729E+02  0.7816164E-02  0.1312668E+00
        -11   -1    0    0    0    0  0.00000000000E+00  0.00000000000E+00  0.45593999997E+02  0.45594000000E+02  0.51100000000E-03 0. -1.
         11   -1    0    0    0    0 -0.00000000000E+00 -0.00000000000E+00 -0.45593999997E+02  0.45594000000E+02  0.51100000000E-03 0.  1.
    9900012    2    1    2    0    0 -0.41672948680E+02 -0.33141013626E+00 -0.12119292593E+02  0.47787288746E+02  0.20000080710E+02 0.  0.
        -12    1    1    2    0    0  0.41672948680E+02  0.33141013626E+00  0.12119292593E+02  0.43400711254E+02  0.00000000000E+00 0.  1.
         11    1    3    3    0    0 -0.17535294593E+02 -0.43364827860E+01 -0.11893690992E+02  0.21627564012E+02  0.51100000000E-03 0.  1.
        -11    1    3    3    0    0 -0.13263512929E+02 -0.23452940533E+01 -0.12405044619E+01  0.13526271881E+02  0.51100000000E-03 0. -1.
        -12    1    3    3    0    0 -0.10874141158E+02  0.63503667030E+01  0.10149028609E+01  0.12633452853E+02  0.00000000000E+00 0.  1.
</event>
<event>
 7    1  0.2505412E-009  0.4778727E+02  0.7816164E-02  0.1312668E+00
        -11   -1    0    0    0    0  0.00000000000E+00  0.00000000000E+00  0.45593999997E+02  0.45594000000E+02  0.51100000000E-03 0.  1.
         11   -1    0    0    0    0 -0.00000000000E+00 -0.00000000000E+00 -0.45593999997E+02  0.45594000000E+02  0.51100000000E-03 0. -1.
    9900012    2    1    2    0    0  0.97760176884E+01  0.32343260013E+02 -0.27239054641E+02  0.47787273188E+02  0.20000009772E+02 0.  0.
        -12    1    1    2    0    0 -0.97760176884E+01 -0.32343260013E+02  0.27239054641E+02  0.43400726812E+02  0.00000000000E+00 0.  1.
         11    1    3    3    0    0  0.75424984834E+01  0.22332319330E+02 -0.11421161339E+02  0.26192836743E+02  0.51100000000E-03 0. -1.
        -11    1    3    3    0    0  0.13229516209E+01  0.11280326231E+02 -0.16381541745E+02  0.19933661757E+02  0.51100000000E-03 0.  1.
        -12    1    3    3    0    0  0.91056758411E+00 -0.12693855478E+01  0.56364844337E+00  0.16607746873E+01  0.00000000000E+00 0.  1.
</event>
<event>
 7    1  0.2505412E-009  0.4778727E+02  0.7816164E-02  0.1312668E+00
        -11   -1    0    0    0    0  0.00000000000E+00  0.00000000000E+00  0.45593999997E+02  0.45594000000E+02  0.51100000000E-03 0.  1.
         11   -1    0    0    0    0 -0.00000000000E+00 -0.00000000000E+00 -0.45593999997E+02  0.45594000000E+02  0.51100000000E-03 0. -1.
    9900012    2    1    2    0    0 -0.28290068376E+02  0.31367347657E+02 -0.99691914906E+01  0.47787271357E+02  0.20000001425E+02 0.  0.
        -12    1    1    2    0    0  0.28290068376E+02 -0.31367347657E+02  0.99691914906E+01  0.43400728643E+02  0.00000000000E+00 0.  1.
         11    1    3    3    0    0 -0.32701072102E+00  0.40100376838E+01 -0.30450519721E+01  0.50457586160E+01  0.51100000000E-03 0. -1.
        -11    1    3    3    0    0 -0.21592737465E+02  0.23670722182E+02  0.82987013031E+00  0.32050555136E+02  0.51100000000E-03 0.  1.
        -12    1    3    3    0    0 -0.63703201908E+01  0.36865877910E+01 -0.77540096489E+01  0.10690957605E+02  0.00000000000E+00 0.  1.
</event>
<event>
 7    1  0.2505412E-009  0.4778726E+02  0.7816164E-02  0.1312668E+00
        -11   -1    0    0    0    0  0.00000000000E+00  0.00000000000E+00  0.45593999997E+02  0.45594000000E+02  0.51100000000E-03 0.  1.
         11   -1    0    0    0    0 -0.00000000000E+00 -0.00000000000E+00 -0.45593999997E+02  0.45594000000E+02  0.51100000000E-03 0. -1.
    9900012    2    1    2    0    0  0.11232656488E+02 -0.39854087633E+02 -0.13003970022E+02  0.47787261422E+02  0.19999956127E+02 0.  0.
        -12    1    1    2    0    0 -0.11232656488E+02  0.39854087633E+02  0.13003970022E+02  0.43400738578E+02  0.00000000000E+00 0.  1.
         11    1    3    3    0    0 -0.14136971485E+01 -0.22827064536E+01 -0.23058555345E+01  0.35392454546E+01  0.51100000000E-03 0. -1.
        -11    1    3    3    0    0  0.18081926999E+01 -0.15550524778E+02  0.32913571720E+01  0.15997543999E+02  0.51100000000E-03 0.  1.
         12    1    3    3    0    0  0.10838160936E+02 -0.22020856401E+02 -0.13989471659E+02  0.28250471968E+02  0.00000000000E+00 0. -1.
</event>
<event>
 7    1  0.2505412E-009  0.4778727E+02  0.7816164E-02  0.1312668E+00
        -11   -1    0    0    0    0  0.00000000000E+00  0.00000000000E+00  0.45593999997E+02  0.45594000000E+02  0.51100000000E-03 0.  1.
         11   -1    0    0    0    0 -0.00000000000E+00 -0.00000000000E+00 -0.45593999997E+02  0.45594000000E+02  0.51100000000E-03 0. -1.
    9900012    2    1    2    0    0 -0.12962632420E+01  0.43380990126E+02 -0.18127876898E+00  0.47787268846E+02  0.19999989976E+02 0.  0.
        -12    1    1    2    0    0  0.12962632420E+01 -0.43380990126E+02  0.18127876898E+00  0.43400731154E+02  0.00000000000E+00 0.  1.
         11    1    3    3    0    0 -0.68046231995E+01  0.48747809417E+01 -0.16883924529E+01  0.85391484032E+01  0.51100000000E-03 0. -1.
        -11    1    3    3    0    0  0.20416177785E+01  0.11803421170E+02  0.27583821487E+01  0.12292177464E+02  0.51100000000E-03 0.  1.
         12    1    3    3    0    0  0.34667421790E+01  0.26702788015E+02 -0.12512684647E+01  0.26955942978E+02  0.00000000000E+00 0. -1.
</event>
<event>
 7    1  0.2505412E-009  0.4778727E+02  0.7816164E-02  0.1312668E+00
        -11   -1    0    0    0    0  0.00000000000E+00  0.00000000000E+00  0.45593999997E+02  0.45594000000E+02  0.51100000000E-03 0.  1.
         11   -1    0    0    0    0 -0.00000000000E+00 -0.00000000000E+00 -0.45593999997E+02  0.45594000000E+02  0.51100000000E-03 0. -1.
    9900012    2    1    2    0    0  0.32388065882E+02  0.11993032918E+02  0.26283152568E+02  0.47787265455E+02  0.19999974515E+02 0.  0.
        -12    1    1    2    0    0 -0.32388065882E+02 -0.11993032918E+02 -0.26283152568E+02  0.43400734545E+02  0.00000000000E+00 0.  1.
         11    1    3    3    0    0  0.32948945697E+02  0.78086060161E+01  0.23219298938E+02  0.41057803082E+02  0.51100000000E-03 0. -1.
        -11    1    3    3    0    0 -0.12425290576E+01 -0.36078581028E+00  0.18699209617E+00  0.13072915379E+01  0.51100000000E-03 0.  1.
         12    1    3    3    0    0  0.68164924314E+00  0.45452127117E+01  0.28768615336E+01  0.54221708354E+01  0.00000000000E+00 0. -1.
</event>
<event>
 7    1  0.2505412E-009  0.4778728E+02  0.7816164E-02  0.1312668E+00
        -11   -1    0    0    0    0  0.00000000000E+00  0.00000000000E+00  0.45593999997E+02  0.45594000000E+02  0.51100000000E-03 0.  1.
         11   -1    0    0    0    0 -0.00000000000E+00 -0.00000000000E+00 -0.45593999997E+02  0.45594000000E+02  0.51100000000E-03 0. -1.
    9900012    2    1    2    0    0 -0.25511639998E+02  0.23709285237E+02 -0.25896890008E+02  0.47787275422E+02  0.20000019957E+02 0.  0.
        -12    1    1    2    0    0  0.25511639998E+02 -0.23709285237E+02  0.25896890008E+02  0.43400724578E+02  0.00000000000E+00 0.  1.
         11    1    3    3    0    0 -0.17381839639E+02  0.13445716092E+02 -0.16716906821E+02  0.27611059458E+02  0.51100000000E-03 0. -1.
        -11    1    3    3    0    0 -0.27640607334E+01 -0.23456355845E+01 -0.43130015623E+01  0.56341832389E+01  0.51100000000E-03 0.  1.
        -12    1    3    3    0    0 -0.53657396259E+01  0.12609204729E+02 -0.48669816254E+01  0.14542032725E+02  0.00000000000E+00 0.  1.
</event>
<event>
 7    1  0.2505412E-009  0.4778727E+02  0.7816164E-02  0.1312668E+00
        -11   -1    0    0    0    0  0.00000000000E+00  0.00000000000E+00  0.45593999997E+02  0.45594000000E+02  0.51100000000E-03 0.  1.
         11   -1    0    0    0    0 -0.00000000000E+00 -0.00000000000E+00 -0.45593999997E+02  0.45594000000E+02  0.51100000000E-03 0. -1.
    9900012    2    1    2    0    0 -0.23761497970E+02 -0.26459734272E+02 -0.24877640622E+02  0.47787270439E+02  0.19999997241E+02 0.  0.
        -12    1    1    2    0    0  0.23761497970E+02  0.26459734272E+02  0.24877640622E+02  0.43400729561E+02  0.00000000000E+00 0.  1.
         11    1    3    3    0    0 -0.11661200076E+02 -0.21657030753E+01 -0.10607559716E+02  0.15912076559E+02  0.51100000000E-03 0. -1.
        -11    1    3    3    0    0 -0.96627324216E+01 -0.10557653928E+02 -0.51628208877E+01  0.15214702563E+02  0.51100000000E-03 0.  1.
         12    1    3    3    0    0 -0.24375654722E+01 -0.13736377268E+02 -0.91072600180E+01  0.16660491317E+02  0.00000000000E+00 0. -1.
</event>
<event>
 7    1  0.2505412E-009  0.4778727E+02  0.7816164E-02  0.1312668E+00
        -11   -1    0    0    0    0  0.00000000000E+00  0.00000000000E+00  0.45593999997E+02  0.45594000000E+02  0.51100000000E-03 0.  1.
         11   -1    0    0    0    0 -0.00000000000E+00 -0.00000000000E+00 -0.45593999997E+02  0.45594000000E+02  0.51100000000E-03 0. -1.
    9900012    2    1    2    0    0 -0.13092788492E+02 -0.45358376609E+01 -0.41129408748E+02  0.47787271921E+02  0.20000003999E+02 0.  0.
        -12    1    1    2    0    0  0.13092788492E+02  0.45358376609E+01  0.41129408748E+02  0.43400728079E+02  0.00000000000E+00 0.  1.
         11    1    3    3    0    0 -0.39154486099E+00  0.14210682267E+01 -0.24696117126E+02  0.24740067576E+02  0.51100000000E-03 0. -1.
        -11    1    3    3    0    0 -0.10683401520E+02 -0.10199432819E+01 -0.12114580774E+02  0.16184511730E+02  0.51100000000E-03 0.  1.
        -12    1    3    3    0    0 -0.20178421114E+01 -0.49369626057E+01 -0.43187108478E+01  0.68626926162E+01  0.00000000000E+00 0.  1.
</event>
<event>
 7    1  0.2505412E-009  0.4778727E+02  0.7816164E-02  0.1312668E+00
        -11   -1    0    0    0    0  0.00000000000E+00  0.00000000000E+00  0.45593999997E+02  0.45594000000E+02  0.51100000000E-03 0.  1.
         11   -1    0    0    0    0 -0.00000000000E+00 -0.00000000000E+00 -0.45593999997E+02  0.45594000000E+02  0.51100000000E-03 0. -1.
    9900012    2    1    2    0    0  0.11360752452E+02 -0.37757380001E+01 -0.41716908108E+02  0.47787270561E+02  0.19999997795E+02 0.  0.
        -12    1    1    2    0    0 -0.11360752452E+02  0.37757380001E+01  0.41716908108E+02  0.43400729439E+02  0.00000000000E+00 0.  1.
         11    1    3    3    0    0  0.41458126001E+00  0.16470229722E+00  0.19256008173E+01  0.19765989063E+01  0.51100000000E-03 0. -1.
        -11    1    3    3    0    0  0.28826094157E+01  0.22870648653E+01 -0.13519935461E+02  0.14011736433E+02  0.51100000000E-03 0.  1.
         12    1    3    3    0    0  0.80635617764E+01 -0.62275051626E+01 -0.30122573465E+02  0.31798935222E+02  0.00000000000E+00 0. -1.
</event>
<event>
 7    1  0.2505412E-009  0.4778727E+02  0.7816164E-02  0.1312668E+00
        -11   -1    0    0    0    0  0.00000000000E+00  0.00000000000E+00  0.45593999997E+02  0.45594000000E+02  0.51100000000E-03 0.  1.
         11   -1    0    0    0    0 -0.00000000000E+00 -0.00000000000E+00 -0.45593999997E+02  0.45594000000E+02  0.51100000000E-03 0. -1.
    9900012    2    1    2    0    0 -0.16054175965E+02 -0.45951819895E+01 -0.40059593681E+02  0.47787270636E+02  0.19999998137E+02 0.  0.
        -12    1    1    2    0    0  0.16054175965E+02  0.45951819895E+01  0.40059593681E+02  0.43400729364E+02  0.00000000000E+00 0.  1.
         11    1    3    3    0    0  0.32563702207E+01  0.13684967432E+01 -0.13842741557E+02  0.14286294986E+02  0.51100000000E-03 0. -1.
        -11    1    3    3    0    0 -0.90941860092E-01  0.29062976095E+00 -0.16997122920E+01  0.17267768289E+01  0.51100000000E-03 0.  1.
        -12    1    3    3    0    0 -0.19219604326E+02 -0.62543084936E+01 -0.24517139832E+02  0.31774198821E+02  0.00000000000E+00 0.  1.
</event>
<event>
 7    1  0.2505412E-009  0.4778727E+02  0.7816164E-02  0.1312668E+00
        -11   -1    0    0    0    0  0.00000000000E+00  0.00000000000E+00  0.45593999997E+02  0.45594000000E+02  0.51100000000E-03 0.  1.
         11   -1    0    0    0    0 -0.00000000000E+00 -0.00000000000E+00 -0.45593999997E+02  0.45594000000E+02  0.51100000000E-03 0. -1.
    9900012    2    1    2    0    0 -0.10117702390E+01 -0.91786447234E+01 -0.42406978706E+02  0.47787273728E+02  0.20000012235E+02 0.  0.
        -12    1    1    2    0    0  0.10117702390E+01  0.91786447234E+01  0.42406978706E+02  0.43400726272E+02  0.00000000000E+00 0.  1.
         11    1    3    3    0    0  0.11520152467E+01  0.22500435640E+01 -0.20206670243E+02  0.20364168477E+02  0.51100000000E-03 0. -1.
        -11    1    3    3    0    0  0.18386054210E+01  0.49890033537E+00 -0.89532975034E+01  0.91537373725E+01  0.51100000000E-03 0.  1.
        -12    1    3    3    0    0 -0.40023909067E+01 -0.11927588623E+02 -0.13247010960E+02  0.18269367879E+02  0.00000000000E+00 0.  1.
</event>
<event>
 7    1  0.2505412E-009  0.4778727E+02  0.7816164E-02  0.1312668E+00
        -11   -1    0    0    0    0  0.00000000000E+00  0.00000000000E+00  0.45593999997E+02  0.45594000000E+02  0.51100000000E-03 0.  1.
         11   -1    0    0    0    0 -0.00000000000E+00 -0.00000000000E+00 -0.45593999997E+02  0.45594000000E+02  0.51100000000E-03 0. -1.
    9900012    2    1    2    0    0  0.30408243614E+02  0.20022617218E+02 -0.23623232037E+02  0.47787267612E+02  0.19999984350E+02 0.  0.
        -12    1    1    2    0    0 -0.30408243614E+02 -0.20022617218E+02  0.23623232037E+02  0.43400732388E+02  0.00000000000E+00 0.  1.
         11    1    3    3    0    0  0.16490220329E+02  0.33983342135E+01 -0.59063057808E+01  0.17842659279E+02  0.51100000000E-03 0. -1.
        -11    1    3    3    0    0 -0.36415009543E+00  0.38429310168E+01 -0.23651290910E-01  0.38602180945E+01  0.51100000000E-03 0.  1.
        -12    1    3    3    0    0  0.14282173381E+02  0.12781351987E+02 -0.17693274965E+02  0.26084390238E+02  0.00000000000E+00 0.  1.
</event>
<event>
 7    1  0.2505412E-009  0.4778728E+02  0.7816164E-02  0.1312668E+00
        -11   -1    0    0    0    0  0.00000000000E+00  0.00000000000E+00  0.45593999997E+02  0.45594000000E+02  0.51100000000E-03 0.  1.
         11   -1    0    0    0    0 -0.00000000000E+00 -0.00000000000E+00 -0.45593999997E+02  0.45594000000E+02  0.51100000000E-03 0. -1.
    9900012    2    1    2    0    0  0.14713306180E+02 -0.18147652652E+01 -0.40790289604E+02  0.47787280216E+02  0.20000041819E+02 0.  0.
        -12    1    1    2    0    0 -0.14713306180E+02  0.18147652652E+01  0.40790289604E+02  0.43400719784E+02  0.00000000000E+00 0.  1.
         11    1    3    3    0    0 -0.39158750248E+01  0.13419377353E+01 -0.74959078379E+01  0.85629147298E+01  0.51100000000E-03 0. -1.
        -11    1    3    3    0    0  0.79570212642E+01  0.25992377926E+01 -0.10735692418E+02  0.13613424127E+02  0.51100000000E-03 0.  1.
        -12    1    3    3    0    0  0.10672159941E+02 -0.57559407930E+01 -0.22558689349E+02  0.25610941360E+02  0.00000000000E+00 0.  1.
</event>
<event>
 7    1  0.2505412E-009  0.4778727E+02  0.7816164E-02  0.1312668E+00
        -11   -1    0    0    0    0  0.00000000000E+00  0.00000000000E+00  0.45593999997E+02  0.45594000000E+02  0.51100000000E-03 0.  1.
         11   -1    0    0    0    0 -0.00000000000E+00 -0.00000000000E+00 -0.45593999997E+02  0.45594000000E+02  0.51100000000E-03 0. -1.
    9900012    2    1    2    0    0 -0.18949683616E+01  0.28263022709E+02 -0.32882119078E+02  0.47787272900E+02  0.20000008459E+02 0.  0.
        -12    1    1    2    0    0  0.18949683616E+01 -0.28263022709E+02  0.32882119078E+02  0.43400727100E+02  0.00000000000E+00 0.  1.
         11    1    3    3    0    0 -0.32336130439E+01  0.53121563173E+01 -0.23158325103E+01  0.66361388272E+01  0.51100000000E-03 0. -1.
        -11    1    3    3    0    0 -0.71014916833E+00  0.23386035644E+02 -0.31167464580E+02  0.38972064656E+02  0.51100000000E-03 0.  1.
        -12    1    3    3    0    0  0.20487938507E+01 -0.43516925194E+00  0.60117801159E+00  0.21790694165E+01  0.00000000000E+00 0.  1.
</event>
<event>
 7    1  0.2505412E-009  0.4778728E+02  0.7816164E-02  0.1312668E+00
        -11   -1    0    0    0    0  0.00000000000E+00  0.00000000000E+00  0.45593999997E+02  0.45594000000E+02  0.51100000000E-03 0. -1.
         11   -1    0    0    0    0 -0.00000000000E+00 -0.00000000000E+00 -0.45593999997E+02  0.45594000000E+02  0.51100000000E-03 0.  1.
    9900012    2    1    2    0    0  0.77592501376E+00  0.11041805470E+02  0.41965448176E+02  0.47787281478E+02  0.20000047569E+02 0.  0.
        -12    1    1    2    0    0 -0.77592501376E+00 -0.11041805470E+02 -0.41965448176E+02  0.43400718522E+02  0.00000000000E+00 0.  1.
         11    1    3    3    0    0 -0.80532847804E+00  0.81825631134E+01  0.37286147313E+02  0.38181928641E+02  0.51100000000E-03 0. -1.
        -11    1    3    3    0    0 -0.18067424556E+01  0.43129986856E+01  0.29873589004E+01  0.55489268714E+01  0.51100000000E-03 0.  1.
         12    1    3    3    0    0  0.33879959474E+01 -0.14537563293E+01  0.16919419629E+01  0.40564259651E+01  0.00000000000E+00 0. -1.
</event>
<event>
 7    1  0.2505412E-009  0.4778727E+02  0.7816164E-02  0.1312668E+00
        -11   -1    0    0    0    0  0.00000000000E+00  0.00000000000E+00  0.45593999997E+02  0.45594000000E+02  0.51100000000E-03 0. -1.
         11   -1    0    0    0    0 -0.00000000000E+00 -0.00000000000E+00 -0.45593999997E+02  0.45594000000E+02  0.51100000000E-03 0.  1.
    9900012    2    1    2    0    0  0.31548000421E+02 -0.66593931802E+01  0.29051670259E+02  0.47787269673E+02  0.19999993746E+02 0.  0.
        -12    1    1    2    0    0 -0.31548000421E+02  0.66593931802E+01 -0.29051670259E+02  0.43400730327E+02  0.00000000000E+00 0.  1.
         11    1    3    3    0    0  0.11393228795E+02  0.13046868606E+01  0.15405415610E+02  0.19205069658E+02  0.51100000000E-03 0. -1.
        -11    1    3    3    0    0  0.20983841828E+02 -0.46679715862E+01  0.10392743855E+02  0.23877200457E+02  0.51100000000E-03 0.  1.
        -12    1    3    3    0    0 -0.82907020263E+00 -0.32961084545E+01  0.32535107944E+01  0.47049995573E+01  0.00000000000E+00 0.  1.
</event>
<event>
 7    1  0.2505412E-009  0.4778726E+02  0.7816164E-02  0.1312668E+00
        -11   -1    0    0    0    0  0.00000000000E+00  0.00000000000E+00  0.45593999997E+02  0.45594000000E+02  0.51100000000E-03 0.  1.
         11   -1    0    0    0    0 -0.00000000000E+00 -0.00000000000E+00 -0.45593999997E+02  0.45594000000E+02  0.51100000000E-03 0. -1.
    9900012    2    1    2    0    0  0.42518883585E+02  0.20717216484E+01 -0.84543773151E+01  0.47787262821E+02  0.19999962506E+02 0.  0.
        -12    1    1    2    0    0 -0.42518883585E+02 -0.20717216484E+01  0.84543773151E+01  0.43400737179E+02  0.00000000000E+00 0.  1.
         11    1    3    3    0    0  0.25087752754E+02  0.53906047995E+01  0.56334410265E+00  0.25666540772E+02  0.51100000000E-03 0. -1.
        -11    1    3    3    0    0  0.11380258172E+02 -0.46921695065E+01 -0.15424915813E+01  0.12405886155E+02  0.51100000000E-03 0.  1.
        -12    1    3    3    0    0  0.60508726586E+01  0.13732863553E+01 -0.74752298364E+01  0.97148358942E+01  0.00000000000E+00 0.  1.
</event>
<event>
 7    1  0.2505412E-009  0.4778727E+02  0.7816164E-02  0.1312668E+00
        -11   -1    0    0    0    0  0.00000000000E+00  0.00000000000E+00  0.45593999997E+02  0.45594000000E+02  0.51100000000E-03 0.  1.
         11   -1    0    0    0    0 -0.00000000000E+00 -0.00000000000E+00 -0.45593999997E+02  0.45594000000E+02  0.51100000000E-03 0. -1.
    9900012    2    1    2    0    0 -0.73247319655E+01 -0.38485340021E+02 -0.18677526756E+02  0.47787273040E+02  0.20000009099E+02 0.  0.
        -12    1    1    2    0    0  0.73247319655E+01  0.38485340021E+02  0.18677526756E+02  0.43400726960E+02  0.00000000000E+00 0.  1.
         11    1    3    3    0    0 -0.16462731975E+01 -0.16644580826E+02 -0.16971353502E+02  0.23828116297E+02  0.51100000000E-03 0. -1.
        -11    1    3    3    0    0 -0.61608454647E+01 -0.83806455082E+01 -0.16804022516E+00  0.10402858922E+02  0.51100000000E-03 0.  1.
        -12    1    3    3    0    0  0.48238669675E+00 -0.13460113687E+02 -0.15381330294E+01  0.13556297821E+02  0.00000000000E+00 0.  1.
</event>
<event>
 7    1  0.2505412E-009  0.4778727E+02  0.7816164E-02  0.1312668E+00
        -11   -1    0    0    0    0  0.00000000000E+00  0.00000000000E+00  0.45593999997E+02  0.45594000000E+02  0.51100000000E-03 0.  1.
         11   -1    0    0    0    0 -0.00000000000E+00 -0.00000000000E+00 -0.45593999997E+02  0.45594000000E+02  0.51100000000E-03 0. -1.
    9900012    2    1    2    0    0 -0.25591203929E+02 -0.32609078047E+02 -0.12859307860E+02  0.47787268575E+02  0.19999988740E+02 0.  0.
        -12    1    1    2    0    0  0.25591203929E+02  0.32609078047E+02  0.12859307860E+02  0.43400731425E+02  0.00000000000E+00 0.  1.
         11    1    3    3    0    0 -0.52828122749E+01 -0.21011148776E+02 -0.76076757696E+01  0.22961994890E+02  0.51100000000E-03 0. -1.
        -11    1    3    3    0    0 -0.13187528050E+02 -0.10848056760E+02 -0.42335964045E+01  0.17593026185E+02  0.51100000000E-03 0.  1.
        -12    1    3    3    0    0 -0.71208636042E+01 -0.74987250980E+00 -0.10180356861E+01  0.72322475005E+01  0.00000000000E+00 0.  1.
</event>
<event>
 7    1  0.2505412E-009  0.4778727E+02  0.7816164E-02  0.1312668E+00
        -11   -1    0    0    0    0  0.00000000000E+00  0.00000000000E+00  0.45593999997E+02  0.45594000000E+02  0.51100000000E-03 0.  1.
         11   -1    0    0    0    0 -0.00000000000E+00 -0.00000000000E+00 -0.45593999997E+02  0.45594000000E+02  0.51100000000E-03 0. -1.
    9900012    2    1    2    0    0  0.25827445380E+02 -0.26157706268E+02 -0.23072518143E+02  0.47787266993E+02  0.19999981530E+02 0.  0.
        -12    1    1    2    0    0 -0.25827445380E+02  0.26157706268E+02  0.23072518143E+02  0.43400733007E+02  0.00000000000E+00 0.  1.
         11    1    3    3    0    0  0.70199543195E+01 -0.19693475375E+01 -0.19091860332E+01  0.75367818027E+01  0.51100000000E-03 0. -1.
        -11    1    3    3    0    0  0.14744470471E+02 -0.24428511885E+02 -0.13483478736E+02  0.31558767426E+02  0.51100000000E-03 0.  1.
        -12    1    3    3    0    0  0.40630205895E+01  0.24015315460E+00 -0.76798533744E+01  0.86917177646E+01  0.00000000000E+00 0.  1.
</event>
<event>
 7    1  0.2505412E-009  0.4778729E+02  0.7816164E-02  0.1312668E+00
        -11   -1    0    0    0    0  0.00000000000E+00  0.00000000000E+00  0.45593999997E+02  0.45594000000E+02  0.51100000000E-03 0. -1.
         11   -1    0    0    0    0 -0.00000000000E+00 -0.00000000000E+00 -0.45593999997E+02  0.45594000000E+02  0.51100000000E-03 0.  1.
    9900012    2    1    2    0    0  0.24719071808E+02  0.21600343094E+02  0.28390397427E+02  0.47787285733E+02  0.20000066970E+02 0.  0.
        -12    1    1    2    0    0 -0.24719071808E+02 -0.21600343094E+02 -0.28390397427E+02  0.43400714267E+02  0.00000000000E+00 0.  1.
         11    1    3    3    0    0  0.50548501288E+01  0.21693988277E+01  0.86857048608E+01  0.10281015042E+02  0.51100000000E-03 0. -1.
        -11    1    3    3    0    0  0.45539907954E+01 -0.22080102959E+01  0.10030543184E+01  0.51594825184E+01  0.51100000000E-03 0.  1.
         12    1    3    3    0    0  0.15110230884E+02  0.21638954563E+02  0.18701638248E+02  0.32346788173E+02  0.00000000000E+00 0. -1.
</event>
<event>
 7    1  0.2505412E-009  0.4778727E+02  0.7816164E-02  0.1312668E+00
        -11   -1    0    0    0    0  0.00000000000E+00  0.00000000000E+00  0.45593999997E+02  0.45594000000E+02  0.51100000000E-03 0. -1.
         11   -1    0    0    0    0 -0.00000000000E+00 -0.00000000000E+00 -0.45593999997E+02  0.45594000000E+02  0.51100000000E-03 0.  1.
    9900012    2    1    2    0    0 -0.30894870114E+02 -0.12795298776E+02  0.27666061798E+02  0.47787266763E+02  0.19999980477E+02 0.  0.
        -12    1    1    2    0    0  0.30894870114E+02  0.12795298776E+02 -0.27666061798E+02  0.43400733237E+02  0.00000000000E+00 0.  1.
         11    1    3    3    0    0 -0.34967999197E+01 -0.58138127273E+01  0.11110806956E+02  0.13018373922E+02  0.51100000000E-03 0. -1.
        -11    1    3    3    0    0 -0.51780804245E+01  0.27432484084E+01  0.97323684074E+00  0.59401278540E+01  0.51100000000E-03 0.  1.
         12    1    3    3    0    0 -0.22219989770E+02 -0.97247344570E+01  0.15582018002E+02  0.28828764986E+02  0.00000000000E+00 0. -1.
</event>
<event>
 7    1  0.2505412E-009  0.4778727E+02  0.7816164E-02  0.1312668E+00
        -11   -1    0    0    0    0  0.00000000000E+00  0.00000000000E+00  0.45593999997E+02  0.45594000000E+02  0.51100000000E-03 0.  1.
         11   -1    0    0    0    0 -0.00000000000E+00 -0.00000000000E+00 -0.45593999997E+02  0.45594000000E+02  0.51100000000E-03 0. -1.
    9900012    2    1    2    0    0 -0.65208637600E+01 -0.30573312514E+02 -0.30106049543E+02  0.47787270497E+02  0.19999997506E+02 0.  0.
        -12    1    1    2    0    0  0.65208637600E+01  0.30573312514E+02  0.30106049543E+02  0.43400729503E+02  0.00000000000E+00 0.  1.
         11    1    3    3    0    0 -0.20856942029E+01 -0.33915401434E+01 -0.30892655612E+00  0.39935073219E+01  0.51100000000E-03 0. -1.
        -11    1    3    3    0    0 -0.12888565231E+00  0.22829217675E+01 -0.16622844384E+01  0.28269299820E+01  0.51100000000E-03 0.  1.
         12    1    3    3    0    0 -0.43062839048E+01 -0.29464694138E+02 -0.28134838549E+02  0.40966833193E+02  0.00000000000E+00 0. -1.
</event>
<event>
 7    1  0.2505412E-009  0.4778728E+02  0.7816164E-02  0.1312668E+00
        -11   -1    0    0    0    0  0.00000000000E+00  0.00000000000E+00  0.45593999997E+02  0.45594000000E+02  0.51100000000E-03 0.  1.
         11   -1    0    0    0    0 -0.00000000000E+00 -0.00000000000E+00 -0.45593999997E+02  0.45594000000E+02  0.51100000000E-03 0. -1.
    9900012    2    1    2    0    0  0.35104501910E+02  0.10152488128E+02 -0.23414164053E+02  0.47787284017E+02  0.20000059147E+02 0.  0.
        -12    1    1    2    0    0 -0.35104501910E+02 -0.10152488128E+02  0.23414164053E+02  0.43400715983E+02  0.00000000000E+00 0.  1.
         11    1    3    3    0    0  0.23587294608E+01  0.25169655326E+01 -0.71108463567E+01  0.79033446294E+01  0.51100000000E-03 0.  1.
        -11    1    3    3    0    0  0.99713965464E+01  0.60441355621E+01  0.28516669071E+00  0.11663689128E+02  0.51100000000E-03 0. -1.
         12    1    3    3    0    0  0.22774375903E+02  0.15913870336E+01 -0.16588484387E+02  0.28220250259E+02  0.00000000000E+00 0. -1.
</event>
<event>
 7    1  0.2505412E-009  0.4778727E+02  0.7816164E-02  0.1312668E+00
        -11   -1    0    0    0    0  0.00000000000E+00  0.00000000000E+00  0.45593999997E+02  0.45594000000E+02  0.51100000000E-03 0. -1.
         11   -1    0    0    0    0 -0.00000000000E+00 -0.00000000000E+00 -0.45593999997E+02  0.45594000000E+02  0.51100000000E-03 0.  1.
    9900012    2    1    2    0    0  0.70750893806E+01 -0.42384275412E+02  0.60942110328E+01  0.47787273046E+02  0.20000009128E+02 0.  0.
        -12    1    1    2    0    0 -0.70750893806E+01  0.42384275412E+02 -0.60942110328E+01  0.43400726954E+02  0.00000000000E+00 0.  1.
         11    1    3    3    0    0 -0.28188138684E+01 -0.63247869908E+00 -0.13078946319E+00  0.28918587577E+01  0.51100000000E-03 0. -1.
        -11    1    3    3    0    0  0.65756832473E+01 -0.14666272390E+02 -0.24567704196E+01  0.16259608764E+02  0.51100000000E-03 0.  1.
         12    1    3    3    0    0  0.33182200017E+01 -0.27085524323E+02  0.86817709155E+01  0.28635805525E+02  0.00000000000E+00 0. -1.
</event>
<event>
 7    1  0.2505412E-009  0.4778727E+02  0.7816164E-02  0.1312668E+00
        -11   -1    0    0    0    0  0.00000000000E+00  0.00000000000E+00  0.45593999997E+02  0.45594000000E+02  0.51100000000E-03 0.  1.
         11   -1    0    0    0    0 -0.00000000000E+00 -0.00000000000E+00 -0.45593999997E+02  0.45594000000E+02  0.51100000000E-03 0. -1.
    9900012    2    1    2    0    0  0.14517056690E+02  0.62701931793E+01 -0.40417359143E+02  0.47787272154E+02  0.20000005059E+02 0.  0.
        -12    1    1    2    0    0 -0.14517056690E+02 -0.62701931793E+01  0.40417359143E+02  0.43400727846E+02  0.00000000000E+00 0.  1.
         11    1    3    3    0    0  0.19436669081E+01  0.69136334476E+01 -0.16378120191E+02  0.17883483714E+02  0.51100000000E-03 0. -1.
        -11    1    3    3    0    0  0.63809079578E+01  0.98355825124E+00 -0.17158830493E+01  0.66803913133E+01  0.51100000000E-03 0.  1.
        -12    1    3    3    0    0  0.61924818242E+01 -0.16269985195E+01 -0.22323355903E+02  0.23223397127E+02  0.00000000000E+00 0.  1.
</event>
<event>
 7    1  0.2505412E-009  0.4778721E+02  0.7816164E-02  0.1312668E+00
        -11   -1    0    0    0    0  0.00000000000E+00  0.00000000000E+00  0.45593999997E+02  0.45594000000E+02  0.51100000000E-03 0.  1.
         11   -1    0    0    0    0 -0.00000000000E+00 -0.00000000000E+00 -0.45593999997E+02  0.45594000000E+02  0.51100000000E-03 0. -1.
    9900012    2    1    2    0    0  0.39365271212E+01  0.27424255298E+02 -0.33407221580E+02  0.47787211089E+02  0.19999726636E+02 0.  0.
        -12    1    1    2    0    0 -0.39365271212E+01 -0.27424255298E+02  0.33407221580E+02  0.43400788911E+02  0.00000000000E+00 0.  1.
         11    1    3    3    0    0 -0.39617713424E+01  0.97122503333E+01 -0.65959243296E+01  0.12390708484E+02  0.51100000000E-03 0. -1.
        -11    1    3    3    0    0  0.63253643253E+01  0.49041263327E+01 -0.34656629353E+01  0.87218982325E+01  0.51100000000E-03 0.  1.
        -12    1    3    3    0    0  0.15729341382E+01  0.12807878632E+02 -0.23345634315E+02  0.26674604372E+02  0.00000000000E+00 0.  1.
</event>
<event>
 7    1  0.2505412E-009  0.4778726E+02  0.7816164E-02  0.1312668E+00
        -11   -1    0    0    0    0  0.00000000000E+00  0.00000000000E+00  0.45593999997E+02  0.45594000000E+02  0.51100000000E-03 0.  1.
         11   -1    0    0    0    0 -0.00000000000E+00 -0.00000000000E+00 -0.45593999997E+02  0.45594000000E+02  0.51100000000E-03 0. -1.
    9900012    2    1    2    0    0 -0.39613225136E+02 -0.13431550862E+02 -0.11576262764E+02  0.47787262405E+02  0.19999960610E+02 0.  0.
        -12    1    1    2    0    0  0.39613225136E+02  0.13431550862E+02  0.11576262764E+02  0.43400737595E+02  0.00000000000E+00 0.  1.
         11    1    3    3    0    0 -0.65963886712E+01 -0.47918257277E+01 -0.31993270131E+01  0.87584034449E+01  0.51100000000E-03 0. -1.
        -11    1    3    3    0    0 -0.21127720224E+02  0.29704873873E+01 -0.65100556638E+01  0.22306617453E+02  0.51100000000E-03 0.  1.
        -12    1    3    3    0    0 -0.11889116240E+02 -0.11610212521E+02 -0.18668800872E+01  0.16722241507E+02  0.00000000000E+00 0.  1.
</event>
<event>
 7    1  0.2505412E-009  0.4778727E+02  0.7816164E-02  0.1312668E+00
        -11   -1    0    0    0    0  0.00000000000E+00  0.00000000000E+00  0.45593999997E+02  0.45594000000E+02  0.51100000000E-03 0.  1.
         11   -1    0    0    0    0 -0.00000000000E+00 -0.00000000000E+00 -0.45593999997E+02  0.45594000000E+02  0.51100000000E-03 0. -1.
    9900012    2    1    2    0    0  0.83518616679E+01 -0.39641472878E+02 -0.15569953019E+02  0.47787269565E+02  0.19999993254E+02 0.  0.
        -12    1    1    2    0    0 -0.83518616679E+01  0.39641472878E+02  0.15569953019E+02  0.43400730435E+02  0.00000000000E+00 0.  1.
         11    1    3    3    0    0  0.10477750000E+02 -0.10063923280E+02 -0.88602747150E+01  0.17016764238E+02  0.51100000000E-03 0. -1.
        -11    1    3    3    0    0 -0.22226570272E+01 -0.90453643933E+01 -0.53525496465E+00  0.93298081120E+01  0.51100000000E-03 0.  1.
         12    1    3    3    0    0  0.96768694674E-01 -0.20532185205E+02 -0.61744233397E+01  0.21440697214E+02  0.00000000000E+00 0. -1.
</event>
<event>
 7    1  0.4496542E-009  0.4778727E+02  0.7816164E-02  0.1312668E+00
        -11   -1    0    0    0    0  0.00000000000E+00  0.00000000000E+00  0.45593999997E+02  0.45594000000E+02  0.51100000000E-03 0.  1.
         11   -1    0    0    0    0 -0.00000000000E+00 -0.00000000000E+00 -0.45593999997E+02  0.45594000000E+02  0.51100000000E-03 0. -1.
    9900012    2    1    2    0    0  0.25880409027E+02 -0.33720700958E+02  0.87602733071E+01  0.47787266908E+02  0.19999981140E+02 0.  0.
        -12    1    1    2    0    0 -0.25880409027E+02  0.33720700958E+02 -0.87602733071E+01  0.43400733092E+02  0.00000000000E+00 0.  1.
         11    1    3    3    0    0  0.16102803334E+02 -0.11531288713E+02  0.49053727416E+01  0.20404253885E+02  0.51100000000E-03 0. -1.
        -11    1    3    3    0    0  0.11264805019E+02 -0.22344187179E+02  0.21500423653E+01  0.25115358155E+02  0.51100000000E-03 0.  1.
        -12    1    3    3    0    0 -0.14871993268E+01  0.15477493362E+00  0.17048582002E+01  0.22676548680E+01  0.00000000000E+00 0.  1.
</event>
<event>
 7    1  0.2505412E-009  0.4778727E+02  0.7816164E-02  0.1312668E+00
        -11   -1    0    0    0    0  0.00000000000E+00  0.00000000000E+00  0.45593999997E+02  0.45594000000E+02  0.51100000000E-03 0.  1.
         11   -1    0    0    0    0 -0.00000000000E+00 -0.00000000000E+00 -0.45593999997E+02  0.45594000000E+02  0.51100000000E-03 0. -1.
    9900012    2    1    2    0    0  0.40699892421E+02 -0.13059164075E+02  0.75233041595E+01  0.47787272875E+02  0.20000008348E+02 0.  0.
        -12    1    1    2    0    0 -0.40699892421E+02  0.13059164075E+02 -0.75233041595E+01  0.43400727125E+02  0.00000000000E+00 0.  1.
         11    1    3    3    0    0  0.21917952804E+02 -0.16018320738E+01  0.25097194112E+01  0.22119249826E+02  0.51100000000E-03 0. -1.
        -11    1    3    3    0    0  0.96511273062E+01 -0.43326078954E+01  0.85024878799E+01  0.13572326619E+02  0.51100000000E-03 0.  1.
         12    1    3    3    0    0  0.91308123116E+01 -0.71247241060E+01 -0.34889031316E+01  0.12095696430E+02  0.00000000000E+00 0. -1.
</event>
<event>
 7    1  0.2505412E-009  0.4778726E+02  0.7816164E-02  0.1312668E+00
        -11   -1    0    0    0    0  0.00000000000E+00  0.00000000000E+00  0.45593999997E+02  0.45594000000E+02  0.51100000000E-03 0. -1.
         11   -1    0    0    0    0 -0.00000000000E+00 -0.00000000000E+00 -0.45593999997E+02  0.45594000000E+02  0.51100000000E-03 0.  1.
    9900012    2    1    2    0    0  0.28241048451E+02  0.30990371060E+02  0.11209991054E+02  0.47787264805E+02  0.19999971550E+02 0.  0.
        -12    1    1    2    0    0 -0.28241048451E+02 -0.30990371060E+02 -0.11209991054E+02  0.43400735195E+02  0.00000000000E+00 0.  1.
         11    1    3    3    0    0  0.19220457576E+02  0.17002642884E+02  0.14304411754E+02  0.29379109081E+02  0.51100000000E-03 0. -1.
        -11    1    3    3    0    0  0.21919929599E+01  0.85589457931E+01  0.76644226355E+00  0.88683606281E+01  0.51100000000E-03 0.  1.
        -12    1    3    3    0    0  0.68285979145E+01  0.54287823837E+01 -0.38608629636E+01  0.95397950959E+01  0.00000000000E+00 0.  1.
</event>
<event>
 7    1  0.2505412E-009  0.4778728E+02  0.7816164E-02  0.1312668E+00
        -11   -1    0    0    0    0  0.00000000000E+00  0.00000000000E+00  0.45593999997E+02  0.45594000000E+02  0.51100000000E-03 0.  1.
         11   -1    0    0    0    0 -0.00000000000E+00 -0.00000000000E+00 -0.45593999997E+02  0.45594000000E+02  0.51100000000E-03 0. -1.
    9900012    2    1    2    0    0 -0.11296175059E+02 -0.41880755337E+02  0.14215684839E+01  0.47787284620E+02  0.20000061896E+02 0.  0.
        -12    1    1    2    0    0  0.11296175059E+02  0.41880755337E+02 -0.14215684839E+01  0.43400715380E+02  0.00000000000E+00 0.  1.
         11    1    3    3    0    0 -0.76669830661E+00 -0.23206322525E+02  0.84819519233E+01  0.24719723706E+02  0.51100000000E-03 0. -1.
        -11    1    3    3    0    0 -0.23135934280E+01 -0.32795774574E+01 -0.33490007121E+01  0.52272506042E+01  0.51100000000E-03 0.  1.
         12    1    3    3    0    0 -0.82158833243E+01 -0.15394855355E+02 -0.37113827273E+01  0.17840310309E+02  0.00000000000E+00 0. -1.
</event>
<event>
 7    1  0.2505412E-009  0.4778729E+02  0.7816164E-02  0.1312668E+00
        -11   -1    0    0    0    0  0.00000000000E+00  0.00000000000E+00  0.45593999997E+02  0.45594000000E+02  0.51100000000E-03 0.  1.
         11   -1    0    0    0    0 -0.00000000000E+00 -0.00000000000E+00 -0.45593999997E+02  0.45594000000E+02  0.51100000000E-03 0. -1.
    9900012    2    1    2    0    0 -0.16450838009E+02  0.27423508301E+02 -0.29341826686E+02  0.47787289499E+02  0.20000084142E+02 0.  0.
        -12    1    1    2    0    0  0.16450838009E+02 -0.27423508301E+02  0.29341826686E+02  0.43400710501E+02  0.00000000000E+00 0.  1.
         11    1    3    3    0    0  0.19133249319E+01  0.72451930350E-01  0.52095350738E+00  0.19843019919E+01  0.51100000000E-03 0.  1.
        -11    1    3    3    0    0 -0.14393455885E+02  0.11848436356E+02 -0.17645388113E+02  0.25669373548E+02  0.51100000000E-03 0. -1.
         12    1    3    3    0    0 -0.39707070555E+01  0.15502620014E+02 -0.12217392080E+02  0.20133613960E+02  0.00000000000E+00 0. -1.
</event>
<event>
 7    1  0.2505412E-009  0.4778727E+02  0.7816164E-02  0.1312668E+00
        -11   -1    0    0    0    0  0.00000000000E+00  0.00000000000E+00  0.45593999997E+02  0.45594000000E+02  0.51100000000E-03 0.  1.
         11   -1    0    0    0    0 -0.00000000000E+00 -0.00000000000E+00 -0.45593999997E+02  0.45594000000E+02  0.51100000000E-03 0. -1.
    9900012    2    1    2    0    0  0.67210174550E+01 -0.29357787135E+02 -0.31250142129E+02  0.47787272769E+02  0.20000007863E+02 0.  0.
        -12    1    1    2    0    0 -0.67210174550E+01  0.29357787135E+02  0.31250142129E+02  0.43400727231E+02  0.00000000000E+00 0.  1.
         11    1    3    3    0    0  0.12526856447E+01 -0.10119739794E+02 -0.52831360741E+01  0.11484332016E+02  0.51100000000E-03 0. -1.
        -11    1    3    3    0    0  0.78183749273E+00  0.27345344843E+01 -0.37466256350E+01  0.47038444512E+01  0.51100000000E-03 0.  1.
         12    1    3    3    0    0  0.46864943176E+01 -0.21972581826E+02 -0.22220380420E+02  0.31599096302E+02  0.00000000000E+00 0. -1.
</event>
<event>
 7    1  0.2505412E-009  0.4778727E+02  0.7816164E-02  0.1312668E+00
        -11   -1    0    0    0    0  0.00000000000E+00  0.00000000000E+00  0.45593999997E+02  0.45594000000E+02  0.51100000000E-03 0. -1.
         11   -1    0    0    0    0 -0.00000000000E+00 -0.00000000000E+00 -0.45593999997E+02  0.45594000000E+02  0.51100000000E-03 0.  1.
    9900012    2    1    2    0    0  0.36754648513E+02 -0.19713256817E+02  0.12004431457E+02  0.47787273551E+02  0.20000011429E+02 0.  0.
        -12    1    1    2    0    0 -0.36754648513E+02  0.19713256817E+02 -0.12004431457E+02  0.43400726449E+02  0.00000000000E+00 0.  1.
         11    1    3    3    0    0  0.11592334116E+02 -0.37245291792E+01 -0.35815179091E+01  0.12691792571E+02  0.51100000000E-03 0.  1.
        -11    1    3    3    0    0  0.14582599298E+02 -0.14103536891E+02  0.74307143232E+01  0.21605033458E+02  0.51100000000E-03 0. -1.
        -12    1    3    3    0    0  0.10579715100E+02 -0.18851907463E+01  0.81552350427E+01  0.13490447522E+02  0.00000000000E+00 0.  1.
</event>
<event>
 7    1  0.2505412E-009  0.4778727E+02  0.7816164E-02  0.1312668E+00
        -11   -1    0    0    0    0  0.00000000000E+00  0.00000000000E+00  0.45593999997E+02  0.45594000000E+02  0.51100000000E-03 0.  1.
         11   -1    0    0    0    0 -0.00000000000E+00 -0.00000000000E+00 -0.45593999997E+02  0.45594000000E+02  0.51100000000E-03 0. -1.
    9900012    2    1    2    0    0  0.20594100180E+02 -0.32988033763E+02 -0.19269044583E+02  0.47787269442E+02  0.19999992696E+02 0.  0.
        -12    1    1    2    0    0 -0.20594100180E+02  0.32988033763E+02  0.19269044583E+02  0.43400730558E+02  0.00000000000E+00 0.  1.
         11    1    3    3    0    0  0.11915406760E+02 -0.24634956035E+02 -0.10309591487E+02  0.29242873559E+02  0.51100000000E-03 0. -1.
        -11    1    3    3    0    0  0.25008175651E+01 -0.58865582904E+01 -0.99405988399E+01  0.11820370661E+02  0.51100000000E-03 0.  1.
         12    1    3    3    0    0  0.61778758556E+01 -0.24665194384E+01  0.98114574486E+00  0.67240252230E+01  0.00000000000E+00 0. -1.
</event>
<event>
 7    1  0.2505412E-009  0.4778727E+02  0.7816164E-02  0.1312668E+00
        -11   -1    0    0    0    0  0.00000000000E+00  0.00000000000E+00  0.45593999997E+02  0.45594000000E+02  0.51100000000E-03 0.  1.
         11   -1    0    0    0    0 -0.00000000000E+00 -0.00000000000E+00 -0.45593999997E+02  0.45594000000E+02  0.51100000000E-03 0. -1.
    9900012    2    1    2    0    0  0.19127826903E+02 -0.20416381993E+02 -0.33180130193E+02  0.47787268954E+02  0.19999990468E+02 0.  0.
        -12    1    1    2    0    0 -0.19127826903E+02  0.20416381993E+02  0.33180130193E+02  0.43400731046E+02  0.00000000000E+00 0.  1.
         11    1    3    3    0    0 -0.11466646204E+01 -0.28942154371E+00 -0.10344384872E+02  0.10411767536E+02  0.51100000000E-03 0. -1.
        -11    1    3    3    0    0  0.10104864934E+02 -0.70037456003E+01 -0.13766656795E+02  0.18457561793E+02  0.51100000000E-03 0.  1.
         12    1    3    3    0    0  0.10169626590E+02 -0.13123214849E+02 -0.90690885255E+01  0.18917939625E+02  0.00000000000E+00 0. -1.
</event>
<event>
 7    1  0.2505412E-009  0.4778728E+02  0.7816164E-02  0.1312668E+00
        -11   -1    0    0    0    0  0.00000000000E+00  0.00000000000E+00  0.45593999997E+02  0.45594000000E+02  0.51100000000E-03 0.  1.
         11   -1    0    0    0    0 -0.00000000000E+00 -0.00000000000E+00 -0.45593999997E+02  0.45594000000E+02  0.51100000000E-03 0. -1.
    9900012    2    1    2    0    0  0.20296531259E+00  0.38179065224E+02 -0.20638328808E+02  0.47787276132E+02  0.20000023196E+02 0.  0.
        -12    1    1    2    0    0 -0.20296531259E+00 -0.38179065224E+02  0.20638328808E+02  0.43400723868E+02  0.00000000000E+00 0.  1.
         11    1    3    3    0    0 -0.42622719973E+01  0.34264135084E+02 -0.20073023407E+02  0.39939005804E+02  0.51100000000E-03 0. -1.
        -11    1    3    3    0    0 -0.56590102054E+00  0.59339134515E-02  0.11226526411E+01  0.12572304443E+01  0.51100000000E-03 0.  1.
         12    1    3    3    0    0  0.50311383304E+01  0.39089962261E+01 -0.16879580420E+01  0.65910398836E+01  0.00000000000E+00 0. -1.
</event>
<event>
 7    1  0.2505412E-009  0.4778727E+02  0.7816164E-02  0.1312668E+00
        -11   -1    0    0    0    0  0.00000000000E+00  0.00000000000E+00  0.45593999997E+02  0.45594000000E+02  0.51100000000E-03 0. -1.
         11   -1    0    0    0    0 -0.00000000000E+00 -0.00000000000E+00 -0.45593999997E+02  0.45594000000E+02  0.51100000000E-03 0.  1.
    9900012    2    1    2    0    0 -0.13296950639E+02  0.36533715393E+02  0.19289941509E+02  0.47787273046E+02  0.20000009127E+02 0.  0.
        -12    1    1    2    0    0  0.13296950639E+02 -0.36533715393E+02 -0.19289941509E+02  0.43400726954E+02  0.00000000000E+00 0.  1.
         11    1    3    3    0    0 -0.61675268334E+01  0.32997685711E+02  0.21013526012E+02  0.39603711003E+02  0.51100000000E-03 0. -1.
        -11    1    3    3    0    0 -0.28878540325E+01  0.17173229323E+01 -0.10466117830E+01  0.35191327699E+01  0.51100000000E-03 0.  1.
         12    1    3    3    0    0 -0.42415697727E+01  0.18187067496E+01 -0.67697271973E+00  0.46644292728E+01  0.00000000000E+00 0. -1.
</event>
<event>
 7    1  0.2505412E-009  0.4778727E+02  0.7816164E-02  0.1312668E+00
        -11   -1    0    0    0    0  0.00000000000E+00  0.00000000000E+00  0.45593999997E+02  0.45594000000E+02  0.51100000000E-03 0.  1.
         11   -1    0    0    0    0 -0.00000000000E+00 -0.00000000000E+00 -0.45593999997E+02  0.45594000000E+02  0.51100000000E-03 0. -1.
    9900012    2    1    2    0    0 -0.15700728124E+02 -0.40207702320E+02 -0.45222720394E+01  0.47787272657E+02  0.20000007352E+02 0.  0.
        -12    1    1    2    0    0  0.15700728124E+02  0.40207702320E+02  0.45222720394E+01  0.43400727343E+02  0.00000000000E+00 0.  1.
         11    1    3    3    0    0 -0.93308398761E+01 -0.24367799270E+02 -0.53561793149E+01  0.26637245938E+02  0.51100000000E-03 0. -1.
        -11    1    3    3    0    0 -0.77919635586E+01 -0.12169503249E+02  0.51201229186E+01  0.15330595696E+02  0.51100000000E-03 0.  1.
         12    1    3    3    0    0  0.14220753105E+01 -0.36703998014E+01 -0.42862156431E+01  0.58194310229E+01  0.00000000000E+00 0. -1.
</event>
<event>
 7    1  0.2505412E-009  0.4778721E+02  0.7816164E-02  0.1312668E+00
        -11   -1    0    0    0    0  0.00000000000E+00  0.00000000000E+00  0.45593999997E+02  0.45594000000E+02  0.51100000000E-03 0. -1.
         11   -1    0    0    0    0 -0.00000000000E+00 -0.00000000000E+00 -0.45593999997E+02  0.45594000000E+02  0.51100000000E-03 0.  1.
    9900012    2    1    2    0    0 -0.12512559522E+02 -0.76235504786E+01  0.40852729111E+02  0.47787214944E+02  0.19999744214E+02 0.  0.
        -12    1    1    2    0    0  0.12512559522E+02  0.76235504786E+01 -0.40852729111E+02  0.43400785056E+02  0.00000000000E+00 0.  1.
         11    1    3    3    0    0 -0.16625683969E+01 -0.28384218025E+01  0.14984831858E+02  0.15341641310E+02  0.51100000000E-03 0. -1.
        -11    1    3    3    0    0 -0.52155147893E+01 -0.45697807519E+01  0.10720272702E+01  0.70166753785E+01  0.51100000000E-03 0.  1.
        -12    1    3    3    0    0 -0.56344763360E+01 -0.21534792413E+00  0.24795869982E+02  0.25428898256E+02  0.00000000000E+00 0.  1.
</event>
<event>
 7    1  0.2505412E-009  0.4778731E+02  0.7816164E-02  0.1312668E+00
        -11   -1    0    0    0    0  0.00000000000E+00  0.00000000000E+00  0.45593999997E+02  0.45594000000E+02  0.51100000000E-03 0.  1.
         11   -1    0    0    0    0 -0.00000000000E+00 -0.00000000000E+00 -0.45593999997E+02  0.45594000000E+02  0.51100000000E-03 0. -1.
    9900012    2    1    2    0    0  0.34708521826E+02 -0.86765672788E+01 -0.24569408592E+02  0.47787307084E+02  0.20000164316E+02 0.  0.
        -12    1    1    2    0    0 -0.34708521826E+02  0.86765672788E+01  0.24569408592E+02  0.43400692916E+02  0.00000000000E+00 0.  1.
         11    1    3    3    0    0  0.10163235568E+02 -0.65082581284E+01 -0.13584011988E+02  0.18170695171E+02  0.51100000000E-03 0. -1.
        -11    1    3    3    0    0  0.17642626168E+02 -0.56873391060E+01 -0.35409488708E+01  0.18871841547E+02  0.51100000000E-03 0.  1.
         12    1    3    3    0    0  0.69026600903E+01  0.35190299555E+01 -0.74444477335E+01  0.10744770365E+02  0.00000000000E+00 0. -1.
</event>
<event>
 7    1  0.2505412E-009  0.4778727E+02  0.7816164E-02  0.1312668E+00
        -11   -1    0    0    0    0  0.00000000000E+00  0.00000000000E+00  0.45593999997E+02  0.45594000000E+02  0.51100000000E-03 0.  1.
         11   -1    0    0    0    0 -0.00000000000E+00 -0.00000000000E+00 -0.45593999997E+02  0.45594000000E+02  0.51100000000E-03 0. -1.
    9900012    2    1    2    0    0  0.28811168044E+02  0.15684127746E+02 -0.28417396019E+02  0.47787266553E+02  0.19999979523E+02 0.  0.
        -12    1    1    2    0    0 -0.28811168044E+02 -0.15684127746E+02  0.28417396019E+02  0.43400733447E+02  0.00000000000E+00 0.  1.
         11    1    3    3    0    0  0.12847348121E+02  0.37424237984E+01 -0.38784392429E+01  0.13932063051E+02  0.51100000000E-03 0. -1.
        -11    1    3    3    0    0  0.48011170384E+01  0.10967650299E+02 -0.10777191590E+02  0.16108629263E+02  0.51100000000E-03 0.  1.
         12    1    3    3    0    0  0.11162702885E+02  0.97405364813E+00 -0.13761765187E+02  0.17746574240E+02  0.00000000000E+00 0. -1.
</event>
<event>
 7    1  0.2505412E-009  0.4778727E+02  0.7816164E-02  0.1312668E+00
        -11   -1    0    0    0    0  0.00000000000E+00  0.00000000000E+00  0.45593999997E+02  0.45594000000E+02  0.51100000000E-03 0.  1.
         11   -1    0    0    0    0 -0.00000000000E+00 -0.00000000000E+00 -0.45593999997E+02  0.45594000000E+02  0.51100000000E-03 0. -1.
    9900012    2    1    2    0    0 -0.37788771848E+02 -0.21119467432E+02  0.30983754210E+01  0.47787272902E+02  0.20000008468E+02 0.  0.
        -12    1    1    2    0    0  0.37788771848E+02  0.21119467432E+02 -0.30983754210E+01  0.43400727098E+02  0.00000000000E+00 0.  1.
         11    1    3    3    0    0 -0.96874427574E+01 -0.45871588429E+00 -0.24462336340E+01  0.10002051124E+02  0.51100000000E-03 0. -1.
        -11    1    3    3    0    0 -0.25763086694E+02 -0.13421454873E+02  0.73531366033E+01  0.29965658763E+02  0.51100000000E-03 0.  1.
         12    1    3    3    0    0 -0.23382423969E+01 -0.72392966746E+01 -0.18085275482E+01  0.78195630148E+01  0.00000000000E+00 0. -1.
</event>
<event>
 7    1  0.2505412E-009  0.4778727E+02  0.7816164E-02  0.1312668E+00
        -11   -1    0    0    0    0  0.00000000000E+00  0.00000000000E+00  0.45593999997E+02  0.45594000000E+02  0.51100000000E-03 0.  1.
         11   -1    0    0    0    0 -0.00000000000E+00 -0.00000000000E+00 -0.45593999997E+02  0.45594000000E+02  0.51100000000E-03 0. -1.
    9900012    2    1    2    0    0 -0.25162571199E+02  0.28410367220E+02 -0.21055148432E+02  0.47787271545E+02  0.20000002284E+02 0.  0.
        -12    1    1    2    0    0  0.25162571199E+02 -0.28410367220E+02  0.21055148432E+02  0.43400728455E+02  0.00000000000E+00 0.  1.
         11    1    3    3    0    0 -0.20532632858E+01  0.88032083303E+01 -0.11760564157E+02  0.14833180259E+02  0.51100000000E-03 0. -1.
        -11    1    3    3    0    0 -0.17862785358E+02  0.16238854668E+02 -0.10942848301E+02  0.26505196300E+02  0.51100000000E-03 0.  1.
        -12    1    3    3    0    0 -0.52465225556E+01  0.33683042210E+01  0.16482640267E+01  0.64488949870E+01  0.00000000000E+00 0.  1.
</event>
<event>
 7    1  0.2505412E-009  0.4778727E+02  0.7816164E-02  0.1312668E+00
        -11   -1    0    0    0    0  0.00000000000E+00  0.00000000000E+00  0.45593999997E+02  0.45594000000E+02  0.51100000000E-03 0. -1.
         11   -1    0    0    0    0 -0.00000000000E+00 -0.00000000000E+00 -0.45593999997E+02  0.45594000000E+02  0.51100000000E-03 0.  1.
    9900012    2    1    2    0    0 -0.30253192225E+02  0.21652881901E+02  0.22349956293E+02  0.47787268661E+02  0.19999989135E+02 0.  0.
        -12    1    1    2    0    0  0.30253192225E+02 -0.21652881901E+02 -0.22349956293E+02  0.43400731339E+02  0.00000000000E+00 0.  1.
         11    1    3    3    0    0 -0.36998110691E+01  0.54636092809E+01  0.16666165972E+00  0.66005609376E+01  0.51100000000E-03 0. -1.
        -11    1    3    3    0    0 -0.66396322503E+01  0.10269897206E+02  0.23268773865E+01  0.12448689235E+02  0.51100000000E-03 0.  1.
        -12    1    3    3    0    0 -0.19913748906E+02  0.59193754139E+01  0.19856417247E+02  0.28738018489E+02  0.00000000000E+00 0.  1.
</event>
<event>
 7    1  0.2505412E-009  0.4778727E+02  0.7816164E-02  0.1312668E+00
        -11   -1    0    0    0    0  0.00000000000E+00  0.00000000000E+00  0.45593999997E+02  0.45594000000E+02  0.51100000000E-03 0.  1.
         11   -1    0    0    0    0 -0.00000000000E+00 -0.00000000000E+00 -0.45593999997E+02  0.45594000000E+02  0.51100000000E-03 0. -1.
    9900012    2    1    2    0    0  0.94783433187E+01  0.37430368400E+02 -0.19817959614E+02  0.47787274270E+02  0.20000014706E+02 0.  0.
        -12    1    1    2    0    0 -0.94783433187E+01 -0.37430368400E+02  0.19817959614E+02  0.43400725730E+02  0.00000000000E+00 0.  1.
         11    1    3    3    0    0  0.45567203186E+01  0.31355735180E+01 -0.52394562922E+01  0.76188859978E+01  0.51100000000E-03 0. -1.
        -11    1    3    3    0    0  0.14226318476E+00  0.11918850390E+02  0.17656658396E+01  0.12049763880E+02  0.51100000000E-03 0.  1.
         12    1    3    3    0    0  0.47793598153E+01  0.22375944492E+02 -0.16344169161E+02  0.28118624392E+02  0.00000000000E+00 0. -1.
</event>
<event>
 7    1  0.2505412E-009  0.4778727E+02  0.7816164E-02  0.1312668E+00
        -11   -1    0    0    0    0  0.00000000000E+00  0.00000000000E+00  0.45593999997E+02  0.45594000000E+02  0.51100000000E-03 0.  1.
         11   -1    0    0    0    0 -0.00000000000E+00 -0.00000000000E+00 -0.45593999997E+02  0.45594000000E+02  0.51100000000E-03 0. -1.
    9900012    2    1    2    0    0 -0.35957025936E+02 -0.84369743884E+01 -0.22793267958E+02  0.47787270568E+02  0.19999997830E+02 0.  0.
        -12    1    1    2    0    0  0.35957025936E+02  0.84369743884E+01  0.22793267958E+02  0.43400729432E+02  0.00000000000E+00 0.  1.
         11    1    3    3    0    0 -0.61475088824E+00 -0.95091276985E-01  0.25269930938E+00  0.67142997225E+00  0.51100000000E-03 0. -1.
        -11    1    3    3    0    0 -0.13406513685E+02  0.52107719925E+01 -0.36191472697E+01  0.14831890681E+02  0.51100000000E-03 0.  1.
         12    1    3    3    0    0 -0.21935761363E+02 -0.13552655104E+02 -0.19426819998E+02  0.32283949916E+02  0.00000000000E+00 0. -1.
</event>
<event>
 7    1  0.2505412E-009  0.4778727E+02  0.7816164E-02  0.1312668E+00
        -11   -1    0    0    0    0  0.00000000000E+00  0.00000000000E+00  0.45593999997E+02  0.45594000000E+02  0.51100000000E-03 0.  1.
         11   -1    0    0    0    0 -0.00000000000E+00 -0.00000000000E+00 -0.45593999997E+02  0.45594000000E+02  0.51100000000E-03 0. -1.
    9900012    2    1    2    0    0  0.15486089931E+02  0.16166759309E+02 -0.37181176275E+02  0.47787274694E+02  0.20000016638E+02 0.  0.
        -12    1    1    2    0    0 -0.15486089931E+02 -0.16166759309E+02  0.37181176275E+02  0.43400725306E+02  0.00000000000E+00 0.  1.
         11    1    3    3    0    0  0.11056097115E+01  0.13767645713E+02 -0.18419828124E+02  0.23023043016E+02  0.51100000000E-03 0. -1.
        -11    1    3    3    0    0  0.91513628090E+01  0.32329178123E+01 -0.73186490007E+01  0.12155732076E+02  0.51100000000E-03 0.  1.
        -12    1    3    3    0    0  0.52291174101E+01 -0.83380421639E+00 -0.11442699151E+02  0.12608499602E+02  0.00000000000E+00 0.  1.
</event>
<event>
 7    1  0.2505412E-009  0.4778727E+02  0.7816164E-02  0.1312668E+00
        -11   -1    0    0    0    0  0.00000000000E+00  0.00000000000E+00  0.45593999997E+02  0.45594000000E+02  0.51100000000E-03 0.  1.
         11   -1    0    0    0    0 -0.00000000000E+00 -0.00000000000E+00 -0.45593999997E+02  0.45594000000E+02  0.51100000000E-03 0. -1.
    9900012    2    1    2    0    0 -0.32183082848E+02  0.11081228470E+02 -0.26927287321E+02  0.47787271337E+02  0.20000001333E+02 0.  0.
        -12    1    1    2    0    0  0.32183082848E+02 -0.11081228470E+02  0.26927287321E+02  0.43400728663E+02  0.00000000000E+00 0.  1.
         11    1    3    3    0    0 -0.50799181267E+01  0.28319409812E+01 -0.92719559635E+01  0.10945073117E+02  0.51100000000E-03 0. -1.
        -11    1    3    3    0    0 -0.21435424917E+02  0.94597371006E+00 -0.66369084816E+01  0.22459315708E+02  0.51100000000E-03 0.  1.
        -12    1    3    3    0    0 -0.56677398043E+01  0.73033137787E+01 -0.11018422876E+02  0.14382882511E+02  0.00000000000E+00 0.  1.
</event>
<event>
 7    1  0.2505412E-009  0.4778728E+02  0.7816164E-02  0.1312668E+00
        -11   -1    0    0    0    0  0.00000000000E+00  0.00000000000E+00  0.45593999997E+02  0.45594000000E+02  0.51100000000E-03 0.  1.
         11   -1    0    0    0    0 -0.00000000000E+00 -0.00000000000E+00 -0.45593999997E+02  0.45594000000E+02  0.51100000000E-03 0. -1.
    9900012    2    1    2    0    0  0.37971303076E+02  0.19281269717E+01 -0.20930483057E+02  0.47787278210E+02  0.20000032669E+02 0.  0.
        -12    1    1    2    0    0 -0.37971303076E+02 -0.19281269717E+01  0.20930483057E+02  0.43400721790E+02  0.00000000000E+00 0.  1.
         11    1    3    3    0    0  0.24794414233E+02  0.30307707758E+00 -0.16925543660E+02  0.30022139520E+02  0.51100000000E-03 0. -1.
        -11    1    3    3    0    0  0.12551362962E+02  0.47936801506E+01 -0.12030467577E+01  0.13489381133E+02  0.51100000000E-03 0.  1.
         12    1    3    3    0    0  0.62552588154E+00 -0.31686302564E+01 -0.28018926387E+01  0.42757575573E+01  0.00000000000E+00 0. -1.
</event>
<event>
 7    1  0.2505412E-009  0.4778727E+02  0.7816164E-02  0.1312668E+00
        -11   -1    0    0    0    0  0.00000000000E+00  0.00000000000E+00  0.45593999997E+02  0.45594000000E+02  0.51100000000E-03 0.  1.
         11   -1    0    0    0    0 -0.00000000000E+00 -0.00000000000E+00 -0.45593999997E+02  0.45594000000E+02  0.51100000000E-03 0. -1.
    9900012    2    1    2    0    0  0.36741214231E+02 -0.18665250319E+02 -0.13613041957E+02  0.47787270697E+02  0.19999998417E+02 0.  0.
        -12    1    1    2    0    0 -0.36741214231E+02  0.18665250319E+02  0.13613041957E+02  0.43400729303E+02  0.00000000000E+00 0.  1.
         11    1    3    3    0    0  0.96684870671E+01 -0.79867208148E+01 -0.61785256216E+01  0.13980040438E+02  0.51100000000E-03 0. -1.
        -11    1    3    3    0    0  0.13811758769E+01 -0.32611171088E+01  0.34423976988E+01  0.49388899338E+01  0.51100000000E-03 0.  1.
        -12    1    3    3    0    0  0.25691551287E+02 -0.74174123957E+01 -0.10876914034E+02  0.28868340325E+02  0.00000000000E+00 0.  1.
</event>
<event>
 7    1  0.2505412E-009  0.4778727E+02  0.7816164E-02  0.1312668E+00
        -11   -1    0    0    0    0  0.00000000000E+00  0.00000000000E+00  0.45593999997E+02  0.45594000000E+02  0.51100000000E-03 0. -1.
         11   -1    0    0    0    0 -0.00000000000E+00 -0.00000000000E+00 -0.45593999997E+02  0.45594000000E+02  0.51100000000E-03 0.  1.
    9900012    2    1    2    0    0  0.36045979269E+01 -0.36069735542E+02  0.23866383969E+02  0.47787271526E+02  0.20000002197E+02 0.  0.
        -12    1    1    2    0    0 -0.36045979269E+01  0.36069735542E+02 -0.23866383969E+02  0.43400728474E+02  0.00000000000E+00 0.  1.
         11    1    3    3    0    0  0.31432815317E+01 -0.31247157918E+02  0.12454869632E+02  0.33784447229E+02  0.51100000000E-03 0. -1.
        -11    1    3    3    0    0 -0.16048236426E+01  0.38575424236E+00  0.47994736152E+00  0.17188993543E+01  0.51100000000E-03 0.  1.
        -12    1    3    3    0    0  0.20661400378E+01 -0.52083318672E+01  0.10931566975E+02  0.12283924943E+02  0.00000000000E+00 0.  1.
</event>
<event>
 7    1  0.2505412E-009  0.4778727E+02  0.7816164E-02  0.1312668E+00
        -11   -1    0    0    0    0  0.00000000000E+00  0.00000000000E+00  0.45593999997E+02  0.45594000000E+02  0.51100000000E-03 0. -1.
         11   -1    0    0    0    0 -0.00000000000E+00 -0.00000000000E+00 -0.45593999997E+02  0.45594000000E+02  0.51100000000E-03 0.  1.
    9900012    2    1    2    0    0  0.65794021562E+01 -0.42764997908E+02  0.33896787016E+01  0.47787268433E+02  0.19999988094E+02 0.  0.
        -12    1    1    2    0    0 -0.65794021562E+01  0.42764997908E+02 -0.33896787016E+01  0.43400731567E+02  0.00000000000E+00 0.  1.
         11    1    3    3    0    0 -0.27000938237E+01 -0.78556927008E+01  0.21454279931E+01  0.85793517238E+01  0.51100000000E-03 0. -1.
        -11    1    3    3    0    0  0.13412141341E+02 -0.29055156306E+02  0.52074399681E+00  0.32005606038E+02  0.51100000000E-03 0.  1.
        -12    1    3    3    0    0 -0.41326453609E+01 -0.58541489016E+01  0.72350671178E+00  0.72023106711E+01  0.00000000000E+00 0.  1.
</event>
<event>
 7    1  0.2505412E-009  0.4778727E+02  0.7816164E-02  0.1312668E+00
        -11   -1    0    0    0    0  0.00000000000E+00  0.00000000000E+00  0.45593999997E+02  0.45594000000E+02  0.51100000000E-03 0.  1.
         11   -1    0    0    0    0 -0.00000000000E+00 -0.00000000000E+00 -0.45593999997E+02  0.45594000000E+02  0.51100000000E-03 0. -1.
    9900012    2    1    2    0    0 -0.10203075940E+02  0.50592116452E+01 -0.41879889339E+02  0.47787268299E+02  0.19999987483E+02 0.  0.
        -12    1    1    2    0    0  0.10203075940E+02 -0.50592116452E+01  0.41879889339E+02  0.43400731701E+02  0.00000000000E+00 0.  1.
         11    1    3    3    0    0  0.42471916593E+00 -0.14377042261E+01  0.93074477388E+00  0.17645582753E+01  0.51100000000E-03 0.  1.
        -11    1    3    3    0    0 -0.52768323582E+01  0.88451989447E+01 -0.20266347453E+02  0.22733397095E+02  0.51100000000E-03 0. -1.
         12    1    3    3    0    0 -0.53509627478E+01 -0.23482830734E+01 -0.22544286660E+02  0.23289312929E+02  0.00000000000E+00 0. -1.
</event>
<event>
 7    1  0.2505412E-009  0.4778727E+02  0.7816164E-02  0.1312668E+00
        -11   -1    0    0    0    0  0.00000000000E+00  0.00000000000E+00  0.45593999997E+02  0.45594000000E+02  0.51100000000E-03 0.  1.
         11   -1    0    0    0    0 -0.00000000000E+00 -0.00000000000E+00 -0.45593999997E+02  0.45594000000E+02  0.51100000000E-03 0. -1.
    9900012    2    1    2    0    0 -0.16260924835E+02 -0.39220736346E+02 -0.89966434556E+01  0.47787269252E+02  0.19999991829E+02 0.  0.
        -12    1    1    2    0    0  0.16260924835E+02  0.39220736346E+02  0.89966434556E+01  0.43400730748E+02  0.00000000000E+00 0.  1.
         11    1    3    3    0    0 -0.91738939144E+01 -0.15263459769E+02 -0.94675479450E+01  0.20168490227E+02  0.51100000000E-03 0. -1.
        -11    1    3    3    0    0 -0.45850302283E+01 -0.42072565294E+01  0.40041791732E+01  0.73997946465E+01  0.51100000000E-03 0.  1.
         12    1    3    3    0    0 -0.25020006923E+01 -0.19750020047E+02 -0.35332746838E+01  0.20218984379E+02  0.00000000000E+00 0. -1.
</event>
<event>
 7    1  0.2505412E-009  0.4778727E+02  0.7816164E-02  0.1312668E+00
        -11   -1    0    0    0    0  0.00000000000E+00  0.00000000000E+00  0.45593999997E+02  0.45594000000E+02  0.51100000000E-03 0.  1.
         11   -1    0    0    0    0 -0.00000000000E+00 -0.00000000000E+00 -0.45593999997E+02  0.45594000000E+02  0.51100000000E-03 0. -1.
    9900012    2    1    2    0    0  0.33553178773E+02  0.17447721188E+02 -0.21292823842E+02  0.47787272730E+02  0.20000007683E+02 0.  0.
        -12    1    1    2    0    0 -0.33553178773E+02 -0.17447721188E+02  0.21292823842E+02  0.43400727270E+02  0.00000000000E+00 0.  1.
         11    1    3    3    0    0  0.20701756674E+02  0.58559185110E+01 -0.44497143375E+01  0.21969398466E+02  0.51100000000E-03 0. -1.
        -11    1    3    3    0    0  0.26734605341E+01  0.76119872979E+01 -0.41640470246E+01  0.90790434372E+01  0.51100000000E-03 0.  1.
        -12    1    3    3    0    0  0.10177961565E+02  0.39798153786E+01 -0.12679062480E+02  0.16738830827E+02  0.00000000000E+00 0.  1.
</event>
<event>
 7    1  0.2505412E-009  0.4778731E+02  0.7816164E-02  0.1312668E+00
        -11   -1    0    0    0    0  0.00000000000E+00  0.00000000000E+00  0.45593999997E+02  0.45594000000E+02  0.51100000000E-03 0.  1.
         11   -1    0    0    0    0 -0.00000000000E+00 -0.00000000000E+00 -0.45593999997E+02  0.45594000000E+02  0.51100000000E-03 0. -1.
    9900012    2    1    2    0    0 -0.84043735853E+01 -0.22823509278E+02 -0.35945429546E+02  0.47787309033E+02  0.20000173207E+02 0.  0.
        -12    1    1    2    0    0  0.84043735853E+01  0.22823509278E+02  0.35945429546E+02  0.43400690967E+02  0.00000000000E+00 0.  1.
         11    1    3    3    0    0 -0.65616281902E+01 -0.67951653436E+01 -0.13931125013E+02  0.16831680871E+02  0.51100000000E-03 0. -1.
        -11    1    3    3    0    0 -0.26499941594E+01  0.24906329420E+00 -0.10921768607E+02  0.11241420344E+02  0.51100000000E-03 0.  1.
         12    1    3    3    0    0  0.80724876425E+00 -0.16277407229E+02 -0.11092535925E+02  0.19714207819E+02  0.00000000000E+00 0. -1.
</event>
<event>
 7    1  0.2505412E-009  0.4778728E+02  0.7816164E-02  0.1312668E+00
        -11   -1    0    0    0    0  0.00000000000E+00  0.00000000000E+00  0.45593999997E+02  0.45594000000E+02  0.51100000000E-03 0.  1.
         11   -1    0    0    0    0 -0.00000000000E+00 -0.00000000000E+00 -0.45593999997E+02  0.45594000000E+02  0.51100000000E-03 0. -1.
    9900012    2    1    2    0    0 -0.29820068983E+02  0.21907005795E+02 -0.22681919743E+02  0.47787275348E+02  0.20000019623E+02 0.  0.
        -12    1    1    2    0    0  0.29820068983E+02 -0.21907005795E+02  0.22681919743E+02  0.43400724652E+02  0.00000000000E+00 0.  1.
         11    1    3    3    0    0 -0.16794830040E+02  0.94076697077E+01 -0.15166322820E+02  0.24506895224E+02  0.51100000000E-03 0. -1.
        -11    1    3    3    0    0 -0.14045649581E+02  0.59123545054E+01 -0.40527060595E+01  0.15768976968E+02  0.51100000000E-03 0.  1.
         12    1    3    3    0    0  0.10204106386E+01  0.65869815821E+01 -0.34628908643E+01  0.75114031560E+01  0.00000000000E+00 0. -1.
</event>
<event>
 7    1  0.2505412E-009  0.4778727E+02  0.7816164E-02  0.1312668E+00
        -11   -1    0    0    0    0  0.00000000000E+00  0.00000000000E+00  0.45593999997E+02  0.45594000000E+02  0.51100000000E-03 0.  1.
         11   -1    0    0    0    0 -0.00000000000E+00 -0.00000000000E+00 -0.45593999997E+02  0.45594000000E+02  0.51100000000E-03 0. -1.
    9900012    2    1    2    0    0 -0.24624696390E+02 -0.34125672902E+00 -0.35736968931E+02  0.47787273314E+02  0.20000010349E+02 0.  0.
        -12    1    1    2    0    0  0.24624696390E+02  0.34125672902E+00  0.35736968931E+02  0.43400726686E+02  0.00000000000E+00 0.  1.
         11    1    3    3    0    0 -0.15617458745E+02 -0.13337995027E+01 -0.21228156509E+02  0.26387850761E+02  0.51100000000E-03 0. -1.
        -11    1    3    3    0    0  0.16379309638E+01 -0.36394912640E+01 -0.49688344073E+01  0.63732276071E+01  0.51100000000E-03 0.  1.
        -12    1    3    3    0    0 -0.10645168609E+02  0.46320340378E+01 -0.95399780155E+01  0.15026194946E+02  0.00000000000E+00 0.  1.
</event>
<event>
 7    1  0.2505412E-009  0.4778727E+02  0.7816164E-02  0.1312668E+00
        -11   -1    0    0    0    0  0.00000000000E+00  0.00000000000E+00  0.45593999997E+02  0.45594000000E+02  0.51100000000E-03 0. -1.
         11   -1    0    0    0    0 -0.00000000000E+00 -0.00000000000E+00 -0.45593999997E+02  0.45594000000E+02  0.51100000000E-03 0.  1.
    9900012    2    1    2    0    0  0.24080435070E+02 -0.35253030826E+02 -0.78089355850E+01  0.47787274078E+02  0.20000013832E+02 0.  0.
        -12    1    1    2    0    0 -0.24080435070E+02  0.35253030826E+02  0.78089355850E+01  0.43400725922E+02  0.00000000000E+00 0.  1.
         11    1    3    3    0    0  0.21630653248E+02 -0.34276956228E+02 -0.83554456457E+01  0.41383672630E+02  0.51100000000E-03 0. -1.
        -11    1    3    3    0    0  0.16307714072E+01 -0.54173389343E+00 -0.26037983439E+01  0.31197206719E+01  0.51100000000E-03 0.  1.
         12    1    3    3    0    0  0.81901041466E+00 -0.43434070480E+00  0.31503084045E+01  0.32838807759E+01  0.00000000000E+00 0. -1.
</event>
<event>
 7    1  0.2505412E-009  0.4778728E+02  0.7816164E-02  0.1312668E+00
        -11   -1    0    0    0    0  0.00000000000E+00  0.00000000000E+00  0.45593999997E+02  0.45594000000E+02  0.51100000000E-03 0.  1.
         11   -1    0    0    0    0 -0.00000000000E+00 -0.00000000000E+00 -0.45593999997E+02  0.45594000000E+02  0.51100000000E-03 0. -1.
    9900012    2    1    2    0    0 -0.16744507475E+02 -0.33501721641E+02 -0.21928946898E+02  0.47787278859E+02  0.20000035631E+02 0.  0.
        -12    1    1    2    0    0  0.16744507475E+02  0.33501721641E+02  0.21928946898E+02  0.43400721141E+02  0.00000000000E+00 0.  1.
         11    1    3    3    0    0 -0.10543172149E+02 -0.29186908002E+02 -0.19201947180E+02  0.36493134333E+02  0.51100000000E-03 0. -1.
        -11    1    3    3    0    0 -0.38184294744E+01 -0.96262191154E+00 -0.51788259964E+01  0.65059421729E+01  0.51100000000E-03 0.  1.
        -12    1    3    3    0    0 -0.23829058518E+01 -0.33521917276E+01  0.24518262786E+01  0.47882023534E+01  0.00000000000E+00 0.  1.
</event>
<event>
 7    1  0.2505412E-009  0.4778727E+02  0.7816164E-02  0.1312668E+00
        -11   -1    0    0    0    0  0.00000000000E+00  0.00000000000E+00  0.45593999997E+02  0.45594000000E+02  0.51100000000E-03 0.  1.
         11   -1    0    0    0    0 -0.00000000000E+00 -0.00000000000E+00 -0.45593999997E+02  0.45594000000E+02  0.51100000000E-03 0. -1.
    9900012    2    1    2    0    0 -0.34307036127E+01  0.41881071612E+02 -0.10854913445E+02  0.47787273825E+02  0.20000012676E+02 0.  0.
        -12    1    1    2    0    0  0.34307036127E+01 -0.41881071612E+02  0.10854913445E+02  0.43400726175E+02  0.00000000000E+00 0.  1.
         11    1    3    3    0    0 -0.45210117013E+01  0.20920816610E+02 -0.11618553186E+02  0.24353868129E+02  0.51100000000E-03 0.  1.
        -11    1    3    3    0    0  0.30133164911E+01  0.19198658201E+02 -0.21157809045E+01  0.19548531456E+02  0.51100000000E-03 0. -1.
        -12    1    3    3    0    0 -0.19230084025E+01  0.17615968010E+01  0.28794206455E+01  0.38848742398E+01  0.00000000000E+00 0.  1.
</event>
<event>
 7    1  0.2505412E-009  0.4778726E+02  0.7816164E-02  0.1312668E+00
        -11   -1    0    0    0    0  0.00000000000E+00  0.00000000000E+00  0.45593999997E+02  0.45594000000E+02  0.51100000000E-03 0.  1.
         11   -1    0    0    0    0 -0.00000000000E+00 -0.00000000000E+00 -0.45593999997E+02  0.45594000000E+02  0.51100000000E-03 0. -1.
    9900012    2    1    2    0    0 -0.20832834786E+01  0.42313274644E+02  0.94271299883E+01  0.47787261977E+02  0.19999958657E+02 0.  0.
        -12    1    1    2    0    0  0.20832834786E+01 -0.42313274644E+02 -0.94271299883E+01  0.43400738023E+02  0.00000000000E+00 0.  1.
         11    1    3    3    0    0  0.18457684782E+01  0.17300017761E+02  0.85849750813E+00  0.17419371230E+02  0.51100000000E-03 0. -1.
        -11    1    3    3    0    0 -0.72269067047E+01  0.22348264602E+02  0.10476611637E+02  0.25718330095E+02  0.51100000000E-03 0.  1.
        -12    1    3    3    0    0  0.32978547479E+01  0.26649922812E+01 -0.19079791565E+01  0.46495606522E+01  0.00000000000E+00 0.  1.
</event>
<event>
 7    1  0.2505412E-009  0.4778727E+02  0.7816164E-02  0.1312668E+00
        -11   -1    0    0    0    0  0.00000000000E+00  0.00000000000E+00  0.45593999997E+02  0.45594000000E+02  0.51100000000E-03 0. -1.
         11   -1    0    0    0    0 -0.00000000000E+00 -0.00000000000E+00 -0.45593999997E+02  0.45594000000E+02  0.51100000000E-03 0.  1.
    9900012    2    1    2    0    0  0.18230125551E+02 -0.13508581456E+02  0.36997355533E+02  0.47787267668E+02  0.19999984604E+02 0.  0.
        -12    1    1    2    0    0 -0.18230125551E+02  0.13508581456E+02 -0.36997355533E+02  0.43400732332E+02  0.00000000000E+00 0.  1.
         11    1    3    3    0    0  0.40351562570E+01 -0.82534151789E+01  0.53363871644E+01  0.10624423578E+02  0.51100000000E-03 0. -1.
        -11    1    3    3    0    0  0.15577482325E+00  0.14175980256E+01  0.12071283418E+02  0.12155234822E+02  0.51100000000E-03 0.  1.
         12    1    3    3    0    0  0.14039194470E+02 -0.66727643029E+01  0.19589684950E+02  0.25007609268E+02  0.00000000000E+00 0. -1.
</event>
<event>
 7    1  0.2505412E-009  0.4778727E+02  0.7816164E-02  0.1312668E+00
        -11   -1    0    0    0    0  0.00000000000E+00  0.00000000000E+00  0.45593999997E+02  0.45594000000E+02  0.51100000000E-03 0. -1.
         11   -1    0    0    0    0 -0.00000000000E+00 -0.00000000000E+00 -0.45593999997E+02  0.45594000000E+02  0.51100000000E-03 0.  1.
    9900012    2    1    2    0    0  0.29395597634E+02 -0.19426212145E+02  0.25340571115E+02  0.47787269327E+02  0.19999992168E+02 0.  0.
        -12    1    1    2    0    0 -0.29395597634E+02  0.19426212145E+02 -0.25340571115E+02  0.43400730673E+02  0.00000000000E+00 0.  1.
         11    1    3    3    0    0  0.69222145488E+01 -0.13847205378E+02  0.49925293668E+01  0.16266145849E+02  0.51100000000E-03 0. -1.
        -11    1    3    3    0    0  0.26327704943E+01  0.87206316209E+00  0.46404950094E+01  0.54061232716E+01  0.51100000000E-03 0.  1.
         12    1    3    3    0    0  0.19840612591E+02 -0.64510699285E+01  0.15707546739E+02  0.26115000206E+02  0.00000000000E+00 0. -1.
</event>
<event>
 7    1 -0.2505412E-009  0.4778728E+02  0.7816164E-02  0.1312668E+00
        -11   -1    0    0    0    0  0.00000000000E+00  0.00000000000E+00  0.45593999997E+02  0.45594000000E+02  0.51100000000E-03 0.  1.
         11   -1    0    0    0    0 -0.00000000000E+00 -0.00000000000E+00 -0.45593999997E+02  0.45594000000E+02  0.51100000000E-03 0. -1.
    9900012    2    1    2    0    0 -0.10273863691E+02  0.34792328972E+02 -0.23823607396E+02  0.47787277658E+02  0.20000030154E+02 0.  0.
        -12    1    1    2    0    0  0.10273863691E+02 -0.34792328972E+02  0.23823607396E+02  0.43400722342E+02  0.00000000000E+00 0.  1.
         11    1    3    3    0    0 -0.68394699039E+01  0.18810190987E+02 -0.14681480449E+02  0.24822318626E+02  0.51100000000E-03 0. -1.
        -11    1    3    3    0    0 -0.80248261107E+01  0.61065871724E+01 -0.33230539067E+01  0.10617482212E+02  0.51100000000E-03 0.  1.
         12    1    3    3    0    0  0.45904323233E+01  0.98755508129E+01 -0.58190730406E+01  0.12347476820E+02  0.00000000000E+00 0. -1.
</event>
<event>
 7    1  0.2505412E-009  0.4778727E+02  0.7816164E-02  0.1312668E+00
        -11   -1    0    0    0    0  0.00000000000E+00  0.00000000000E+00  0.45593999997E+02  0.45594000000E+02  0.51100000000E-03 0.  1.
         11   -1    0    0    0    0 -0.00000000000E+00 -0.00000000000E+00 -0.45593999997E+02  0.45594000000E+02  0.51100000000E-03 0. -1.
    9900012    2    1    2    0    0 -0.25107188327E+02 -0.13772371518E+02 -0.32612485260E+02  0.47787270539E+02  0.19999997695E+02 0.  0.
        -12    1    1    2    0    0  0.25107188327E+02  0.13772371518E+02  0.32612485260E+02  0.43400729461E+02  0.00000000000E+00 0.  1.
         11    1    3    3    0    0 -0.32328356784E+01  0.14006828900E+01 -0.18333091570E-02  0.35232290167E+01  0.51100000000E-03 0. -1.
        -11    1    3    3    0    0 -0.14470472846E+02 -0.68275227448E+01 -0.95168961499E+01  0.18616685092E+02  0.51100000000E-03 0.  1.
         12    1    3    3    0    0 -0.74038798026E+01 -0.83455316632E+01 -0.23093755801E+02  0.25647356430E+02  0.00000000000E+00 0. -1.
</event>
<event>
 7    1  0.2505412E-009  0.4778727E+02  0.7816164E-02  0.1312668E+00
        -11   -1    0    0    0    0  0.00000000000E+00  0.00000000000E+00  0.45593999997E+02  0.45594000000E+02  0.51100000000E-03 0.  1.
         11   -1    0    0    0    0 -0.00000000000E+00 -0.00000000000E+00 -0.45593999997E+02  0.45594000000E+02  0.51100000000E-03 0. -1.
    9900012    2    1    2    0    0 -0.32576152725E+02  0.15176307428E+02 -0.24333050158E+02  0.47787270012E+02  0.19999995294E+02 0.  0.
        -12    1    1    2    0    0  0.32576152725E+02 -0.15176307428E+02  0.24333050158E+02  0.43400729988E+02  0.00000000000E+00 0.  1.
         11    1    3    3    0    0 -0.17760636543E+02  0.12760823983E+02 -0.77818934377E+01  0.23212856457E+02  0.51100000000E-03 0. -1.
        -11    1    3    3    0    0 -0.42793100071E+01 -0.30943181166E+01 -0.16951105774E+01  0.55462328543E+01  0.51100000000E-03 0.  1.
        -12    1    3    3    0    0 -0.10536206174E+02  0.55098015613E+01 -0.14856046143E+02  0.19028180701E+02  0.00000000000E+00 0.  1.
</event>
<event>
 7    1  0.2505412E-009  0.4778728E+02  0.7816164E-02  0.1312668E+00
        -11   -1    0    0    0    0  0.00000000000E+00  0.00000000000E+00  0.45593999997E+02  0.45594000000E+02  0.51100000000E-03 0. -1.
         11   -1    0    0    0    0 -0.00000000000E+00 -0.00000000000E+00 -0.45593999997E+02  0.45594000000E+02  0.51100000000E-03 0.  1.
    9900012    2    1    2    0    0  0.35114907267E+01  0.38134516993E+02  0.20421824826E+02  0.47787275551E+02  0.20000020549E+02 0.  0.
        -12    1    1    2    0    0 -0.35114907267E+01 -0.38134516993E+02 -0.20421824826E+02  0.43400724449E+02  0.00000000000E+00 0.  1.
         11    1    3    3    0    0 -0.14680660193E+01  0.12255802910E+02  0.15744580197E+02  0.20006292226E+02  0.51100000000E-03 0. -1.
        -11    1    3    3    0    0 -0.17880753613E+01  0.66727882291E+01  0.97313307840E-01  0.69088918351E+01  0.51100000000E-03 0.  1.
        -12    1    3    3    0    0  0.67676321073E+01  0.19205925854E+02  0.45799313216E+01  0.20872091490E+02  0.00000000000E+00 0.  1.
</event>
<event>
 7    1  0.2505412E-009  0.4778728E+02  0.7816164E-02  0.1312668E+00
        -11   -1    0    0    0    0  0.00000000000E+00  0.00000000000E+00  0.45593999997E+02  0.45594000000E+02  0.51100000000E-03 0.  1.
         11   -1    0    0    0    0 -0.00000000000E+00 -0.00000000000E+00 -0.45593999997E+02  0.45594000000E+02  0.51100000000E-03 0. -1.
    9900012    2    1    2    0    0  0.29720188547E+01 -0.22167547169E+02 -0.37193949577E+02  0.47787275021E+02  0.20000018131E+02 0.  0.
        -12    1    1    2    0    0 -0.29720188547E+01  0.22167547169E+02  0.37193949577E+02  0.43400724979E+02  0.00000000000E+00 0.  1.
         11    1    3    3    0    0 -0.51060412126E+01 -0.64482198107E+01 -0.34039910958E+01  0.89015926234E+01  0.51100000000E-03 0.  1.
        -11    1    3    3    0    0  0.43832438010E+01 -0.16278953707E+01 -0.80859775998E+01  0.93405515663E+01  0.51100000000E-03 0. -1.
         12    1    3    3    0    0  0.36948162663E+01 -0.14091431988E+02 -0.25703980881E+02  0.29545130831E+02  0.00000000000E+00 0. -1.
</event>
<event>
 7    1  0.2505412E-009  0.4778728E+02  0.7816164E-02  0.1312668E+00
        -11   -1    0    0    0    0  0.00000000000E+00  0.00000000000E+00  0.45593999997E+02  0.45594000000E+02  0.51100000000E-03 0. -1.
         11   -1    0    0    0    0 -0.00000000000E+00 -0.00000000000E+00 -0.45593999997E+02  0.45594000000E+02  0.51100000000E-03 0.  1.
    9900012    2    1    2    0    0  0.81765779643E+01  0.38961667713E+02  0.17284523831E+02  0.47787277169E+02  0.20000027923E+02 0.  0.
        -12    1    1    2    0    0 -0.81765779643E+01 -0.38961667713E+02 -0.17284523831E+02  0.43400722831E+02  0.00000000000E+00 0.  1.
         11    1    3    3    0    0  0.96056174475E+01  0.18899420564E+02  0.10428748629E+02  0.23626569417E+02  0.51100000000E-03 0. -1.
        -11    1    3    3    0    0 -0.12404097170E+01 -0.11057417102E+01 -0.52404956670E+00  0.17423860666E+01  0.51100000000E-03 0.  1.
         12    1    3    3    0    0 -0.18862976616E+00  0.21167988860E+02  0.73798247684E+01  0.22418321685E+02  0.00000000000E+00 0. -1.
</event>
<event>
 7    1  0.2505412E-009  0.4778727E+02  0.7816164E-02  0.1312668E+00
        -11   -1    0    0    0    0  0.00000000000E+00  0.00000000000E+00  0.45593999997E+02  0.45594000000E+02  0.51100000000E-03 0.  1.
         11   -1    0    0    0    0 -0.00000000000E+00 -0.00000000000E+00 -0.45593999997E+02  0.45594000000E+02  0.51100000000E-03 0. -1.
    9900012    2    1    2    0    0  0.11687026452E+01 -0.33118514283E+02 -0.28025371709E+02  0.47787270587E+02  0.19999997913E+02 0.  0.
        -12    1    1    2    0    0 -0.11687026452E+01  0.33118514283E+02  0.28025371709E+02  0.43400729413E+02  0.00000000000E+00 0.  1.
         11    1    3    3    0    0  0.50867496900E+01 -0.13522736536E+02 -0.10475645122E+02  0.17845967802E+02  0.51100000000E-03 0.  1.
        -11    1    3    3    0    0 -0.36251459479E+01 -0.18617210881E+01 -0.97464945513E+01  0.10564177434E+02  0.51100000000E-03 0. -1.
         12    1    3    3    0    0 -0.29290109688E+00 -0.17734056659E+02 -0.78032320358E+01  0.19377125351E+02  0.00000000000E+00 0. -1.
</event>
<event>
 7    1  0.2505412E-009  0.4778728E+02  0.7816164E-02  0.1312668E+00
        -11   -1    0    0    0    0  0.00000000000E+00  0.00000000000E+00  0.45593999997E+02  0.45594000000E+02  0.51100000000E-03 0.  1.
         11   -1    0    0    0    0 -0.00000000000E+00 -0.00000000000E+00 -0.45593999997E+02  0.45594000000E+02  0.51100000000E-03 0. -1.
    9900012    2    1    2    0    0  0.12088431093E+02  0.26006974397E+02 -0.32574983650E+02  0.47787280612E+02  0.20000043624E+02 0.  0.
        -12    1    1    2    0    0 -0.12088431093E+02 -0.26006974397E+02  0.32574983650E+02  0.43400719388E+02  0.00000000000E+00 0.  1.
         11    1    3    3    0    0  0.27428975293E+01  0.81364210978E+01 -0.25558526895E+01  0.89586393145E+01  0.51100000000E-03 0.  1.
        -11    1    3    3    0    0 -0.85956620187E+00  0.39068543363E+01  0.20532802706E+00  0.40055617234E+01  0.51100000000E-03 0. -1.
         12    1    3    3    0    0  0.10205099765E+02  0.13963698963E+02 -0.30224458988E+02  0.34823079574E+02  0.00000000000E+00 0. -1.
</event>
<event>
 7    1  0.2505412E-009  0.4778725E+02  0.7816164E-02  0.1312668E+00
        -11   -1    0    0    0    0  0.00000000000E+00  0.00000000000E+00  0.45593999997E+02  0.45594000000E+02  0.51100000000E-03 0. -1.
         11   -1    0    0    0    0 -0.00000000000E+00 -0.00000000000E+00 -0.45593999997E+02  0.45594000000E+02  0.51100000000E-03 0.  1.
    9900012    2    1    2    0    0  0.40854028636E+02  0.13220643806E+02 -0.63077454581E+01  0.47787254256E+02  0.19999923452E+02 0.  0.
        -12    1    1    2    0    0 -0.40854028636E+02 -0.13220643806E+02  0.63077454581E+01  0.43400745744E+02  0.00000000000E+00 0.  1.
         11    1    3    3    0    0  0.38069234272E+02  0.93042181960E+01  0.67475593790E+00  0.39195540182E+02  0.51100000000E-03 0. -1.
        -11    1    3    3    0    0  0.18384143806E+01  0.20039247987E+01 -0.28407855688E+01  0.39326257059E+01  0.51100000000E-03 0.  1.
         12    1    3    3    0    0  0.94637998294E+00  0.19125008116E+01 -0.41417158272E+01  0.46590883679E+01  0.00000000000E+00 0. -1.
</event>
<event>
 7    1  0.2505412E-009  0.4778727E+02  0.7816164E-02  0.1312668E+00
        -11   -1    0    0    0    0  0.00000000000E+00  0.00000000000E+00  0.45593999997E+02  0.45594000000E+02  0.51100000000E-03 0.  1.
         11   -1    0    0    0    0 -0.00000000000E+00 -0.00000000000E+00 -0.45593999997E+02  0.45594000000E+02  0.51100000000E-03 0. -1.
    9900012    2    1    2    0    0  0.61367691956E+01  0.40510093054E+02 -0.14314179497E+02  0.47787270628E+02  0.19999998100E+02 0.  0.
        -12    1    1    2    0    0 -0.61367691956E+01 -0.40510093054E+02  0.14314179497E+02  0.43400729372E+02  0.00000000000E+00 0.  1.
         11    1    3    3    0    0  0.11219457499E+01  0.27222769701E+02 -0.78838173677E+01  0.28363577507E+02  0.51100000000E-03 0. -1.
        -11    1    3    3    0    0  0.61378076319E-01 -0.49642001597E+00  0.23124954878E+01  0.23659745862E+01  0.51100000000E-03 0.  1.
         12    1    3    3    0    0  0.49534453694E+01  0.13783743369E+02 -0.87428576170E+01  0.17057718534E+02  0.00000000000E+00 0. -1.
</event>
<event>
 7    1  0.2505412E-009  0.4778727E+02  0.7816164E-02  0.1312668E+00
        -11   -1    0    0    0    0  0.00000000000E+00  0.00000000000E+00  0.45593999997E+02  0.45594000000E+02  0.51100000000E-03 0.  1.
         11   -1    0    0    0    0 -0.00000000000E+00 -0.00000000000E+00 -0.45593999997E+02  0.45594000000E+02  0.51100000000E-03 0. -1.
    9900012    2    1    2    0    0  0.17519363735E+02  0.82842944993E+01 -0.38833818039E+02  0.47787273456E+02  0.20000010997E+02 0.  0.
        -12    1    1    2    0    0 -0.17519363735E+02 -0.82842944993E+01  0.38833818039E+02  0.43400726544E+02  0.00000000000E+00 0.  1.
         11    1    3    3    0    0  0.55110783889E+01  0.35453539949E+01 -0.16889437269E+02  0.18116142291E+02  0.51100000000E-03 0. -1.
        -11    1    3    3    0    0  0.16754693163E+01  0.24349755268E+01  0.19469441777E+01  0.35393354091E+01  0.51100000000E-03 0.  1.
         12    1    3    3    0    0  0.10332816030E+02  0.23039649775E+01 -0.23891324947E+02  0.26131795756E+02  0.00000000000E+00 0. -1.
</event>
<event>
 7    1  0.2505412E-009  0.4778728E+02  0.7816164E-02  0.1312668E+00
        -11   -1    0    0    0    0  0.00000000000E+00  0.00000000000E+00  0.45593999997E+02  0.45594000000E+02  0.51100000000E-03 0. -1.
         11   -1    0    0    0    0 -0.00000000000E+00 -0.00000000000E+00 -0.45593999997E+02  0.45594000000E+02  0.51100000000E-03 0.  1.
    9900012    2    1    2    0    0 -0.15739425829E+02 -0.14438019075E+02  0.37781436581E+02  0.47787275693E+02  0.20000021197E+02 0.  0.
        -12    1    1    2    0    0  0.15739425829E+02  0.14438019075E+02 -0.37781436581E+02  0.43400724307E+02  0.00000000000E+00 0.  1.
         11    1    3    3    0    0 -0.40628320280E+01 -0.76433740418E+01  0.25340110131E+02  0.26777769745E+02  0.51100000000E-03 0. -1.
        -11    1    3    3    0    0 -0.95376553703E+00 -0.41072378352E+01  0.81026222468E+01  0.91340877415E+01  0.51100000000E-03 0.  1.
        -12    1    3    3    0    0 -0.10722828264E+02 -0.26874071976E+01  0.43387042033E+01  0.11875418207E+02  0.00000000000E+00 0.  1.
</event>
<event>
 7    1  0.2505412E-009  0.4778727E+02  0.7816164E-02  0.1312668E+00
        -11   -1    0    0    0    0  0.00000000000E+00  0.00000000000E+00  0.45593999997E+02  0.45594000000E+02  0.51100000000E-03 0.  1.
         11   -1    0    0    0    0 -0.00000000000E+00 -0.00000000000E+00 -0.45593999997E+02  0.45594000000E+02  0.51100000000E-03 0. -1.
    9900012    2    1    2    0    0  0.21239304839E+02 -0.21311636613E+02 -0.31278258145E+02  0.47787270078E+02  0.19999995592E+02 0.  0.
        -12    1    1    2    0    0 -0.21239304839E+02  0.21311636613E+02  0.31278258145E+02  0.43400729922E+02  0.00000000000E+00 0.  1.
         11    1    3    3    0    0  0.18713173653E+01 -0.16932112613E+01  0.17647785402E+01  0.30794864205E+01  0.51100000000E-03 0.  1.
        -11    1    3    3    0    0  0.67003890995E+01 -0.20641497227E+01 -0.14882774058E+02  0.16451531603E+02  0.51100000000E-03 0. -1.
         12    1    3    3    0    0  0.12667598374E+02 -0.17554275629E+02 -0.18160262627E+02  0.28256252054E+02  0.00000000000E+00 0. -1.
</event>
<event>
 7    1  0.2505412E-009  0.4778730E+02  0.7816164E-02  0.1312668E+00
        -11   -1    0    0    0    0  0.00000000000E+00  0.00000000000E+00  0.45593999997E+02  0.45594000000E+02  0.51100000000E-03 0.  1.
         11   -1    0    0    0    0 -0.00000000000E+00 -0.00000000000E+00 -0.45593999997E+02  0.45594000000E+02  0.51100000000E-03 0. -1.
    9900012    2    1    2    0    0  0.26692793483E+02 -0.22425870283E+02 -0.25849487868E+02  0.47787298336E+02  0.20000124434E+02 0.  0.
        -12    1    1    2    0    0 -0.26692793483E+02  0.22425870283E+02  0.25849487868E+02  0.43400701664E+02  0.00000000000E+00 0.  1.
         11    1    3    3    0    0  0.14258857492E+02 -0.15819276185E+02 -0.21034173469E+02  0.29933275293E+02  0.51100000000E-03 0. -1.
        -11    1    3    3    0    0  0.13737822919E+02 -0.74608258552E+01 -0.44208047520E+01  0.16246083095E+02  0.51100000000E-03 0.  1.
        -12    1    3    3    0    0 -0.13038869286E+01  0.85423175653E+00 -0.39450964681E+00  0.16079399484E+01  0.00000000000E+00 0.  1.
</event>
<event>
 7    1  0.3397990E-009  0.4778727E+02  0.7816164E-02  0.1312668E+00
        -11   -1    0    0    0    0  0.00000000000E+00  0.00000000000E+00  0.45593999997E+02  0.45594000000E+02  0.51100000000E-03 0. -1.
         11   -1    0    0    0    0 -0.00000000000E+00 -0.00000000000E+00 -0.45593999997E+02  0.45594000000E+02  0.51100000000E-03 0.  1.
    9900012    2    1    2    0    0  0.37191376485E+02  0.98891896015E+01  0.20065606658E+02  0.47787272743E+02  0.20000007746E+02 0.  0.
        -12    1    1    2    0    0 -0.37191376485E+02 -0.98891896015E+01 -0.20065606658E+02  0.43400727257E+02  0.00000000000E+00 0.  1.
         11    1    3    3    0    0  0.28748298803E+02  0.27089162419E+01  0.12267870437E+02  0.31373612425E+02  0.51100000000E-03 0. -1.
        -11    1    3    3    0    0  0.24093908907E+01  0.28289235957E+01 -0.19142618350E+01  0.41799966278E+01  0.51100000000E-03 0.  1.
        -12    1    3    3    0    0  0.60336867920E+01  0.43513497640E+01  0.97119980552E+01  0.12233663691E+02  0.00000000000E+00 0.  1.
</event>
<event>
 7    1  0.2505412E-009  0.4778724E+02  0.7816164E-02  0.1312668E+00
        -11   -1    0    0    0    0  0.00000000000E+00  0.00000000000E+00  0.45593999997E+02  0.45594000000E+02  0.51100000000E-03 0.  1.
         11   -1    0    0    0    0 -0.00000000000E+00 -0.00000000000E+00 -0.45593999997E+02  0.45594000000E+02  0.51100000000E-03 0. -1.
    9900012    2    1    2    0    0 -0.29897053454E+02  0.28116829602E+02  0.14115092985E+02  0.47787242379E+02  0.19999869302E+02 0.  0.
        -12    1    1    2    0    0  0.29897053454E+02 -0.28116829602E+02 -0.14115092985E+02  0.43400757621E+02  0.00000000000E+00 0.  1.
         11    1    3    3    0    0 -0.20827731291E+02  0.73578851108E+01  0.79763955305E+01  0.23485224078E+02  0.51100000000E-03 0. -1.
        -11    1    3    3    0    0 -0.69623968589E+01  0.10018072316E+02  0.10908323172E+01  0.12248536989E+02  0.51100000000E-03 0.  1.
        -12    1    3    3    0    0 -0.21069253041E+01  0.10740872175E+02  0.50478651375E+01  0.12053481313E+02  0.00000000000E+00 0.  1.
</event>
<event>
 7    1  0.2505412E-009  0.4778727E+02  0.7816164E-02  0.1312668E+00
        -11   -1    0    0    0    0  0.00000000000E+00  0.00000000000E+00  0.45593999997E+02  0.45594000000E+02  0.51100000000E-03 0. -1.
         11   -1    0    0    0    0 -0.00000000000E+00 -0.00000000000E+00 -0.45593999997E+02  0.45594000000E+02  0.51100000000E-03 0.  1.
    9900012    2    1    2    0    0 -0.39233453450E+02 -0.16438522150E+02  0.86101309062E+01  0.47787271500E+02  0.20000002078E+02 0.  0.
        -12    1    1    2    0    0  0.39233453450E+02  0.16438522150E+02 -0.86101309062E+01  0.43400728500E+02  0.00000000000E+00 0.  1.
         11    1    3    3    0    0 -0.34102943731E-02 -0.47841408329E+01  0.40249174171E+01  0.62520377170E+01  0.51100000000E-03 0. -1.
        -11    1    3    3    0    0 -0.15979073654E+02 -0.74805025190E+01  0.25211535961E+01  0.17822596009E+02  0.51100000000E-03 0.  1.
        -12    1    3    3    0    0 -0.23250969501E+02 -0.41738787984E+01  0.20640598930E+01  0.23712637774E+02  0.00000000000E+00 0.  1.
</event>
<event>
 7    1  0.2505412E-009  0.4778727E+02  0.7816164E-02  0.1312668E+00
        -11   -1    0    0    0    0  0.00000000000E+00  0.00000000000E+00  0.45593999997E+02  0.45594000000E+02  0.51100000000E-03 0.  1.
         11   -1    0    0    0    0 -0.00000000000E+00 -0.00000000000E+00 -0.45593999997E+02  0.45594000000E+02  0.51100000000E-03 0. -1.
    9900012    2    1    2    0    0 -0.80573228598E+01 -0.24423544617E+01 -0.42576262623E+02  0.47787266297E+02  0.19999978354E+02 0.  0.
        -12    1    1    2    0    0  0.80573228598E+01  0.24423544617E+01  0.42576262623E+02  0.43400733703E+02  0.00000000000E+00 0.  1.
         11    1    3    3    0    0 -0.54574279646E+00 -0.55495630349E+01 -0.16244505944E+02  0.17174966046E+02  0.51100000000E-03 0. -1.
        -11    1    3    3    0    0 -0.46367504915E+01 -0.79486377288E+00 -0.98511073419E+00  0.48064235100E+01  0.51100000000E-03 0.  1.
         12    1    3    3    0    0 -0.28748295719E+01  0.39020723461E+01 -0.25346645946E+02  0.25805876741E+02  0.00000000000E+00 0. -1.
</event>
<event>
 7    1  0.2505412E-009  0.4778727E+02  0.7816164E-02  0.1312668E+00
        -11   -1    0    0    0    0  0.00000000000E+00  0.00000000000E+00  0.45593999997E+02  0.45594000000E+02  0.51100000000E-03 0. -1.
         11   -1    0    0    0    0 -0.00000000000E+00 -0.00000000000E+00 -0.45593999997E+02  0.45594000000E+02  0.51100000000E-03 0.  1.
    9900012    2    1    2    0    0  0.38243659398E+02  0.19064216307E+02 -0.75895661399E+01  0.47787270262E+02  0.19999996434E+02 0.  0.
        -12    1    1    2    0    0 -0.38243659398E+02 -0.19064216307E+02  0.75895661399E+01  0.43400729738E+02  0.00000000000E+00 0.  1.
         11    1    3    3    0    0  0.15263394022E+02  0.15013108363E+02 -0.61556423887E+01  0.22276816498E+02  0.51100000000E-03 0. -1.
        -11    1    3    3    0    0  0.23983516464E+00  0.26719939863E+01 -0.30921897811E+00  0.27004979924E+01  0.51100000000E-03 0.  1.
        -12    1    3    3    0    0  0.22740430211E+02  0.13791139581E+01 -0.11247047731E+01  0.22809955772E+02  0.00000000000E+00 0.  1.
</event>
<event>
 7    1  0.2505412E-009  0.4778728E+02  0.7816164E-02  0.1312668E+00
        -11   -1    0    0    0    0  0.00000000000E+00  0.00000000000E+00  0.45593999997E+02  0.45594000000E+02  0.51100000000E-03 0. -1.
         11   -1    0    0    0    0 -0.00000000000E+00 -0.00000000000E+00 -0.45593999997E+02  0.45594000000E+02  0.51100000000E-03 0.  1.
    9900012    2    1    2    0    0  0.85586257025E+01  0.35582730276E+02  0.23328993685E+02  0.47787277493E+02  0.20000029400E+02 0.  0.
        -12    1    1    2    0    0 -0.85586257025E+01 -0.35582730276E+02 -0.23328993685E+02  0.43400722507E+02  0.00000000000E+00 0.  1.
         11    1    3    3    0    0 -0.41934440264E+01  0.14864107501E+02  0.10759277199E+02  0.18822558559E+02  0.51100000000E-03 0. -1.
        -11    1    3    3    0    0  0.58040413721E+01  0.15173514377E+02  0.42572452621E+01  0.16794242236E+02  0.51100000000E-03 0.  1.
        -12    1    3    3    0    0  0.69480283568E+01  0.55451083975E+01  0.83124712238E+01  0.12170476697E+02  0.00000000000E+00 0.  1.
</event>
<event>
 7    1  0.2505412E-009  0.4778727E+02  0.7816164E-02  0.1312668E+00
        -11   -1    0    0    0    0  0.00000000000E+00  0.00000000000E+00  0.45593999997E+02  0.45594000000E+02  0.51100000000E-03 0. -1.
         11   -1    0    0    0    0 -0.00000000000E+00 -0.00000000000E+00 -0.45593999997E+02  0.45594000000E+02  0.51100000000E-03 0.  1.
    9900012    2    1    2    0    0 -0.32775604010E+02  0.11435380252E+02  0.26050245241E+02  0.47787269397E+02  0.19999992489E+02 0.  0.
        -12    1    1    2    0    0  0.32775604010E+02 -0.11435380252E+02 -0.26050245241E+02  0.43400730603E+02  0.00000000000E+00 0.  1.
         11    1    3    3    0    0 -0.13498307752E+02  0.15576934553E+01  0.13331062463E+02  0.19035439257E+02  0.51100000000E-03 0. -1.
        -11    1    3    3    0    0 -0.13275448513E+01  0.67737184907E+01  0.72277598337E+00  0.69403200867E+01  0.51100000000E-03 0.  1.
        -12    1    3    3    0    0 -0.17949751406E+02  0.31039683065E+01  0.11996406795E+02  0.21811510053E+02  0.00000000000E+00 0.  1.
</event>
<event>
 7    1  0.2505412E-009  0.4778727E+02  0.7816164E-02  0.1312668E+00
        -11   -1    0    0    0    0  0.00000000000E+00  0.00000000000E+00  0.45593999997E+02  0.45594000000E+02  0.51100000000E-03 0.  1.
         11   -1    0    0    0    0 -0.00000000000E+00 -0.00000000000E+00 -0.45593999997E+02  0.45594000000E+02  0.51100000000E-03 0. -1.
    9900012    2    1    2    0    0 -0.26232747686E+02  0.39444851612E+01 -0.34349778666E+02  0.47787270642E+02  0.19999998166E+02 0.  0.
        -12    1    1    2    0    0  0.26232747686E+02 -0.39444851612E+01  0.34349778666E+02  0.43400729358E+02  0.00000000000E+00 0.  1.
         11    1    3    3    0    0 -0.12456385383E+02  0.16763566072E+01 -0.69246228050E+01  0.14349986395E+02  0.51100000000E-03 0. -1.
        -11    1    3    3    0    0 -0.37361324387E+01 -0.52284339118E+01 -0.11499825473E+02  0.13173503443E+02  0.51100000000E-03 0.  1.
         12    1    3    3    0    0 -0.10040229865E+02  0.74965624658E+01 -0.15925330388E+02  0.20263780805E+02  0.00000000000E+00 0. -1.
</event>
<event>
 7    1  0.2505412E-009  0.4778727E+02  0.7816164E-02  0.1312668E+00
        -11   -1    0    0    0    0  0.00000000000E+00  0.00000000000E+00  0.45593999997E+02  0.45594000000E+02  0.51100000000E-03 0. -1.
         11   -1    0    0    0    0 -0.00000000000E+00 -0.00000000000E+00 -0.45593999997E+02  0.45594000000E+02  0.51100000000E-03 0.  1.
    9900012    2    1    2    0    0 -0.34516428739E+02 -0.25540419411E+02  0.63187314593E+01  0.47787271391E+02  0.20000001578E+02 0.  0.
        -12    1    1    2    0    0  0.34516428739E+02  0.25540419411E+02 -0.63187314593E+01  0.43400728609E+02  0.00000000000E+00 0.  1.
         11    1    3    3    0    0 -0.14666119262E+02 -0.10879079400E+02  0.50505620552E+01  0.18946176399E+02  0.51100000000E-03 0. -1.
        -11    1    3    3    0    0 -0.11770789845E+02  0.16508680041E+00 -0.95402569483E+00  0.11810542431E+02  0.51100000000E-03 0.  1.
         12    1    3    3    0    0 -0.80795196324E+01 -0.14826426811E+02  0.22221950989E+01  0.17030552561E+02  0.00000000000E+00 0. -1.
</event>
<event>
 7    1  0.2505412E-009  0.4778728E+02  0.7816164E-02  0.1312668E+00
        -11   -1    0    0    0    0  0.00000000000E+00  0.00000000000E+00  0.45593999997E+02  0.45594000000E+02  0.51100000000E-03 0. -1.
         11   -1    0    0    0    0 -0.00000000000E+00 -0.00000000000E+00 -0.45593999997E+02  0.45594000000E+02  0.51100000000E-03 0.  1.
    9900012    2    1    2    0    0 -0.27323669335E+02  0.18178974657E+02  0.28400082639E+02  0.47787277432E+02  0.20000029123E+02 0.  0.
        -12    1    1    2    0    0  0.27323669335E+02 -0.18178974657E+02 -0.28400082639E+02  0.43400722568E+02  0.00000000000E+00 0.  1.
         11    1    3    3    0    0 -0.10570912963E+02  0.33208051075E+01  0.81090631525E+01  0.13730580938E+02  0.51100000000E-03 0. -1.
        -11    1    3    3    0    0 -0.87387427530E-01  0.25439792490E+01  0.11100594301E+02  0.11388707612E+02  0.51100000000E-03 0.  1.
        -12    1    3    3    0    0 -0.16665368945E+02  0.12314190301E+02  0.91904251852E+01  0.22667988881E+02  0.00000000000E+00 0.  1.
</event>
<event>
 7    1  0.2505412E-009  0.4778727E+02  0.7816164E-02  0.1312668E+00
        -11   -1    0    0    0    0  0.00000000000E+00  0.00000000000E+00  0.45593999997E+02  0.45594000000E+02  0.51100000000E-03 0.  1.
         11   -1    0    0    0    0 -0.00000000000E+00 -0.00000000000E+00 -0.45593999997E+02  0.45594000000E+02  0.51100000000E-03 0. -1.
    9900012    2    1    2    0    0 -0.32052714461E+00 -0.94341108108E+01 -0.42361753141E+02  0.47787270587E+02  0.19999997914E+02 0.  0.
        -12    1    1    2    0    0  0.32052714461E+00  0.94341108108E+01  0.42361753141E+02  0.43400729413E+02  0.00000000000E+00 0.  1.
         11    1    3    3    0    0  0.56847212883E+01 -0.43677985099E+01 -0.11940289039E+02  0.13927103882E+02  0.51100000000E-03 0. -1.
        -11    1    3    3    0    0  0.25974232518E+01 -0.14154904672E+01 -0.18386249833E+02  0.18622685198E+02  0.51100000000E-03 0.  1.
        -12    1    3    3    0    0 -0.86026716847E+01 -0.36508218337E+01 -0.12035214269E+02  0.15237481507E+02  0.00000000000E+00 0.  1.
</event>
<event>
 7    1  0.2505412E-009  0.4778727E+02  0.7816164E-02  0.1312668E+00
        -11   -1    0    0    0    0  0.00000000000E+00  0.00000000000E+00  0.45593999997E+02  0.45594000000E+02  0.51100000000E-03 0. -1.
         11   -1    0    0    0    0 -0.00000000000E+00 -0.00000000000E+00 -0.45593999997E+02  0.45594000000E+02  0.51100000000E-03 0.  1.
    9900012    2    1    2    0    0  0.27772557438E+02 -0.17762417526E+02  0.28227729861E+02  0.47787272401E+02  0.20000006187E+02 0.  0.
        -12    1    1    2    0    0 -0.27772557438E+02  0.17762417526E+02 -0.28227729861E+02  0.43400727599E+02  0.00000000000E+00 0.  1.
         11    1    3    3    0    0  0.10836303000E+02  0.17672059666E+01  0.32148299837E+01  0.11440437567E+02  0.51100000000E-03 0.  1.
        -11    1    3    3    0    0  0.45080442178E+01 -0.50169933228E+01  0.99299716812E+01  0.12004041924E+02  0.51100000000E-03 0. -1.
        -12    1    3    3    0    0  0.12428210220E+02 -0.14512630169E+02  0.15082928196E+02  0.24342792910E+02  0.00000000000E+00 0.  1.
</event>
<event>
 7    1  0.2505412E-009  0.4778727E+02  0.7816164E-02  0.1312668E+00
        -11   -1    0    0    0    0  0.00000000000E+00  0.00000000000E+00  0.45593999997E+02  0.45594000000E+02  0.51100000000E-03 0. -1.
         11   -1    0    0    0    0 -0.00000000000E+00 -0.00000000000E+00 -0.45593999997E+02  0.45594000000E+02  0.51100000000E-03 0.  1.
    9900012    2    1    2    0    0  0.14235379269E+02  0.16175086448E+02  0.37674181103E+02  0.47787269979E+02  0.19999995142E+02 0.  0.
        -12    1    1    2    0    0 -0.14235379269E+02 -0.16175086448E+02 -0.37674181103E+02  0.43400730021E+02  0.00000000000E+00 0.  1.
         11    1    3    3    0    0  0.12339297032E+02  0.42369740452E+01  0.27869825804E+02  0.30772347829E+02  0.51100000000E-03 0. -1.
        -11    1    3    3    0    0 -0.16747756668E+01  0.32396182280E+01  0.56737537459E+01  0.67447373283E+01  0.51100000000E-03 0.  1.
        -12    1    3    3    0    0  0.35708579043E+01  0.86984941749E+01  0.41306015537E+01  0.10270184822E+02  0.00000000000E+00 0.  1.
</event>
<event>
 7    1  0.2505412E-009  0.4778728E+02  0.7816164E-02  0.1312668E+00
        -11   -1    0    0    0    0  0.00000000000E+00  0.00000000000E+00  0.45593999997E+02  0.45594000000E+02  0.51100000000E-03 0. -1.
         11   -1    0    0    0    0 -0.00000000000E+00 -0.00000000000E+00 -0.45593999997E+02  0.45594000000E+02  0.51100000000E-03 0.  1.
    9900012    2    1    2    0    0  0.85926218102E+01  0.28761266573E+02  0.31346119361E+02  0.47787276464E+02  0.20000024709E+02 0.  0.
        -12    1    1    2    0    0 -0.85926218102E+01 -0.28761266573E+02 -0.31346119361E+02  0.43400723536E+02  0.00000000000E+00 0.  1.
         11    1    3    3    0    0 -0.34526893338E+00  0.25063367676E+01  0.12855894454E+01  0.28378997713E+01  0.51100000000E-03 0. -1.
        -11    1    3    3    0    0  0.82880210501E+01  0.27140852356E+02  0.19735335028E+02  0.34565887931E+02  0.51100000000E-03 0.  1.
        -12    1    3    3    0    0  0.64986969345E+00 -0.88592255078E+00  0.10325194888E+02  0.10383488761E+02  0.00000000000E+00 0.  1.
</event>
<event>
 7    1  0.2505412E-009  0.4778727E+02  0.7816164E-02  0.1312668E+00
        -11   -1    0    0    0    0  0.00000000000E+00  0.00000000000E+00  0.45593999997E+02  0.45594000000E+02  0.51100000000E-03 0. -1.
         11   -1    0    0    0    0 -0.00000000000E+00 -0.00000000000E+00 -0.45593999997E+02  0.45594000000E+02  0.51100000000E-03 0.  1.
    9900012    2    1    2    0    0  0.43710064901E+01  0.23203030741E+02  0.36416170029E+02  0.47787265295E+02  0.19999973788E+02 0.  0.
        -12    1    1    2    0    0 -0.43710064901E+01 -0.23203030741E+02 -0.36416170029E+02  0.43400734705E+02  0.00000000000E+00 0.  1.
         11    1    3    3    0    0 -0.14823494693E+01 -0.24709159274E+01  0.22781118205E+01  0.36732246320E+01  0.51100000000E-03 0. -1.
        -11    1    3    3    0    0 -0.15234857155E+01  0.96817218278E+01  0.82916886832E+01  0.12837789831E+02  0.51100000000E-03 0.  1.
        -12    1    3    3    0    0  0.73768416748E+01  0.15992224841E+02  0.25846369525E+02  0.31276250832E+02  0.00000000000E+00 0.  1.
</event>
<event>
 7    1  0.2505412E-009  0.4778727E+02  0.7816164E-02  0.1312668E+00
        -11   -1    0    0    0    0  0.00000000000E+00  0.00000000000E+00  0.45593999997E+02  0.45594000000E+02  0.51100000000E-03 0. -1.
         11   -1    0    0    0    0 -0.00000000000E+00 -0.00000000000E+00 -0.45593999997E+02  0.45594000000E+02  0.51100000000E-03 0.  1.
    9900012    2    1    2    0    0 -0.22531093626E+02 -0.13103513662E+02  0.34702606290E+02  0.47787272661E+02  0.20000007371E+02 0.  0.
        -12    1    1    2    0    0  0.22531093626E+02  0.13103513662E+02 -0.34702606290E+02  0.43400727339E+02  0.00000000000E+00 0.  1.
         11    1    3    3    0    0 -0.13476969288E+02 -0.96983843163E+00  0.10822126101E+02  0.17311490444E+02  0.51100000000E-03 0. -1.
        -11    1    3    3    0    0  0.87813063551E+00 -0.20944319383E+01 -0.47683569699E+00  0.23205885246E+01  0.51100000000E-03 0.  1.
        -12    1    3    3    0    0 -0.99322549727E+01 -0.10039243292E+02  0.24357315886E+02  0.28155193693E+02  0.00000000000E+00 0.  1.
</event>
<event>
 7    1  0.2505412E-009  0.4778727E+02  0.7816164E-02  0.1312668E+00
        -11   -1    0    0    0    0  0.00000000000E+00  0.00000000000E+00  0.45593999997E+02  0.45594000000E+02  0.51100000000E-03 0.  1.
         11   -1    0    0    0    0 -0.00000000000E+00 -0.00000000000E+00 -0.45593999997E+02  0.45594000000E+02  0.51100000000E-03 0. -1.
    9900012    2    1    2    0    0  0.31075390667E+01  0.36315694044E+01 -0.43136735508E+02  0.47787273673E+02  0.20000011985E+02 0.  0.
        -12    1    1    2    0    0 -0.31075390667E+01 -0.36315694044E+01  0.43136735508E+02  0.43400726327E+02  0.00000000000E+00 0.  1.
         11    1    3    3    0    0 -0.27660822066E+01  0.81131658319E+00 -0.14862600501E+02  0.15139562057E+02  0.51100000000E-03 0. -1.
        -11    1    3    3    0    0  0.35831610068E+01 -0.23783407222E-01  0.52191244104E+00  0.36210497523E+01  0.51100000000E-03 0.  1.
        -12    1    3    3    0    0  0.22904602665E+01  0.28440362284E+01 -0.28796047449E+02  0.29026661864E+02  0.00000000000E+00 0.  1.
</event>
<event>
 7    1  0.3216200E-009  0.4778727E+02  0.7816164E-02  0.1312668E+00
        -11   -1    0    0    0    0  0.00000000000E+00  0.00000000000E+00  0.45593999997E+02  0.45594000000E+02  0.51100000000E-03 0. -1.
         11   -1    0    0    0    0 -0.00000000000E+00 -0.00000000000E+00 -0.45593999997E+02  0.45594000000E+02  0.51100000000E-03 0.  1.
    9900012    2    1    2    0    0  0.27968117928E+02  0.28218448641E+02  0.17467875456E+02  0.47787272621E+02  0.20000007186E+02 0.  0.
        -12    1    1    2    0    0 -0.27968117928E+02 -0.28218448641E+02 -0.17467875456E+02  0.43400727379E+02  0.00000000000E+00 0.  1.
         11    1    3    3    0    0  0.11259470483E+02  0.98485358098E+01  0.31757194367E+01  0.15292302879E+02  0.51100000000E-03 0. -1.
        -11    1    3    3    0    0  0.73215356306E+01  0.27909309090E+00  0.86724280354E+01  0.11353139884E+02  0.51100000000E-03 0.  1.
        -12    1    3    3    0    0  0.93871118144E+01  0.18090819740E+02  0.56197279838E+01  0.21141829857E+02  0.00000000000E+00 0.  1.
</event>
<event>
 7    1  0.2505412E-009  0.4778727E+02  0.7816164E-02  0.1312668E+00
        -11   -1    0    0    0    0  0.00000000000E+00  0.00000000000E+00  0.45593999997E+02  0.45594000000E+02  0.51100000000E-03 0.  1.
         11   -1    0    0    0    0 -0.00000000000E+00 -0.00000000000E+00 -0.45593999997E+02  0.45594000000E+02  0.51100000000E-03 0. -1.
    9900012    2    1    2    0    0 -0.30619019122E+01 -0.47699578992E+01 -0.43029006254E+02  0.47787272807E+02  0.20000008037E+02 0.  0.
        -12    1    1    2    0    0  0.30619019122E+01  0.47699578992E+01  0.43029006254E+02  0.43400727193E+02  0.00000000000E+00 0.  1.
         11    1    3    3    0    0 -0.11623251455E+01 -0.18236824902E+01 -0.17868857147E+02  0.17999246472E+02  0.51100000000E-03 0. -1.
        -11    1    3    3    0    0  0.51352836670E+01  0.20062481625E+01 -0.36257558137E+01  0.65986570991E+01  0.51100000000E-03 0.  1.
        -12    1    3    3    0    0 -0.70348604336E+01 -0.49525235715E+01 -0.21534393293E+02  0.23189369236E+02  0.00000000000E+00 0.  1.
</event>
<event>
 7    1  0.2505412E-009  0.4778727E+02  0.7816164E-02  0.1312668E+00
        -11   -1    0    0    0    0  0.00000000000E+00  0.00000000000E+00  0.45593999997E+02  0.45594000000E+02  0.51100000000E-03 0.  1.
         11   -1    0    0    0    0 -0.00000000000E+00 -0.00000000000E+00 -0.45593999997E+02  0.45594000000E+02  0.51100000000E-03 0. -1.
    9900012    2    1    2    0    0 -0.41294579701E+02 -0.10296195924E+02 -0.85070098916E+01  0.47787272121E+02  0.20000004907E+02 0.  0.
        -12    1    1    2    0    0  0.41294579701E+02  0.10296195924E+02  0.85070098916E+01  0.43400727879E+02  0.00000000000E+00 0.  1.
         11    1    3    3    0    0 -0.56244924870E+01 -0.52616512424E+01  0.24625743810E+01  0.80860473889E+01  0.51100000000E-03 0. -1.
        -11    1    3    3    0    0 -0.16979335615E+02  0.23745949968E+01 -0.78352404955E+00  0.17162472127E+02  0.51100000000E-03 0.  1.
         12    1    3    3    0    0 -0.18690751599E+02 -0.74091396783E+01 -0.10186060223E+02  0.22538752604E+02  0.00000000000E+00 0. -1.
</event>
<event>
 7    1  0.2505412E-009  0.4778727E+02  0.7816164E-02  0.1312668E+00
        -11   -1    0    0    0    0  0.00000000000E+00  0.00000000000E+00  0.45593999997E+02  0.45594000000E+02  0.51100000000E-03 0. -1.
         11   -1    0    0    0    0 -0.00000000000E+00 -0.00000000000E+00 -0.45593999997E+02  0.45594000000E+02  0.51100000000E-03 0.  1.
    9900012    2    1    2    0    0  0.28492881228E+02 -0.31411687675E+02 -0.92241312634E+01  0.47787274190E+02  0.20000014342E+02 0.  0.
        -12    1    1    2    0    0 -0.28492881228E+02  0.31411687675E+02  0.92241312634E+01  0.43400725810E+02  0.00000000000E+00 0.  1.
         11    1    3    3    0    0  0.74238337145E+01 -0.16099722048E+02 -0.81176322867E+01  0.19498982313E+02  0.51100000000E-03 0.  1.
        -11    1    3    3    0    0  0.27681465793E+01 -0.56470552728E+01  0.33383617439E+01  0.71201494459E+01  0.51100000000E-03 0. -1.
         12    1    3    3    0    0  0.18300900934E+02 -0.96649103541E+01 -0.44448607206E+01  0.21168142431E+02  0.00000000000E+00 0. -1.
</event>
<event>
 7    1  0.2505412E-009  0.4778727E+02  0.7816164E-02  0.1312668E+00
        -11   -1    0    0    0    0  0.00000000000E+00  0.00000000000E+00  0.45593999997E+02  0.45594000000E+02  0.51100000000E-03 0.  1.
         11   -1    0    0    0    0 -0.00000000000E+00 -0.00000000000E+00 -0.45593999997E+02  0.45594000000E+02  0.51100000000E-03 0. -1.
    9900012    2    1    2    0    0 -0.30577443512E+02  0.15298120409E+02 -0.26732201822E+02  0.47787272425E+02  0.20000006296E+02 0.  0.
        -12    1    1    2    0    0  0.30577443512E+02 -0.15298120409E+02  0.26732201822E+02  0.43400727575E+02  0.00000000000E+00 0.  1.
         11    1    3    3    0    0 -0.54138949656E+01 -0.10741803150E+01 -0.83004495963E+01  0.99680281807E+01  0.51100000000E-03 0. -1.
        -11    1    3    3    0    0 -0.73274602420E+01  0.12728545435E+02 -0.99192069314E+01  0.17722816055E+02  0.51100000000E-03 0.  1.
         12    1    3    3    0    0 -0.17836088305E+02  0.36437552884E+01 -0.85125452938E+01  0.20096428190E+02  0.00000000000E+00 0. -1.
</event>
<event>
 7    1  0.2505412E-009  0.4778727E+02  0.7816164E-02  0.1312668E+00
        -11   -1    0    0    0    0  0.00000000000E+00  0.00000000000E+00  0.45593999997E+02  0.45594000000E+02  0.51100000000E-03 0.  1.
         11   -1    0    0    0    0 -0.00000000000E+00 -0.00000000000E+00 -0.45593999997E+02  0.45594000000E+02  0.51100000000E-03 0. -1.
    9900012    2    1    2    0    0  0.19799168545E+02  0.27154568461E+01 -0.38525864175E+02  0.47787274299E+02  0.20000014837E+02 0.  0.
        -12    1    1    2    0    0 -0.19799168545E+02 -0.27154568461E+01  0.38525864175E+02  0.43400725701E+02  0.00000000000E+00 0.  1.
         11    1    3    3    0    0  0.96844480721E+01  0.14023346979E+01 -0.48942608493E+01  0.10941154719E+02  0.51100000000E-03 0. -1.
        -11    1    3    3    0    0 -0.23171802078E+01  0.11684631249E+01 -0.50590433030E+01  0.56858200457E+01  0.51100000000E-03 0.  1.
         12    1    3    3    0    0  0.12431900680E+02  0.14465902337E+00 -0.28572560023E+02  0.31160299534E+02  0.00000000000E+00 0. -1.
</event>
<event>
 7    1  0.2505412E-009  0.4778727E+02  0.7816164E-02  0.1312668E+00
        -11   -1    0    0    0    0  0.00000000000E+00  0.00000000000E+00  0.45593999997E+02  0.45594000000E+02  0.51100000000E-03 0. -1.
         11   -1    0    0    0    0 -0.00000000000E+00 -0.00000000000E+00 -0.45593999997E+02  0.45594000000E+02  0.51100000000E-03 0.  1.
    9900012    2    1    2    0    0  0.28423532697E+02 -0.32476936767E+02  0.45797915922E+01  0.47787272773E+02  0.20000007882E+02 0.  0.
        -12    1    1    2    0    0 -0.28423532697E+02  0.32476936767E+02 -0.45797915922E+01  0.43400727227E+02  0.00000000000E+00 0.  1.
         11    1    3    3    0    0  0.14100286747E+01  0.14239839538E+00 -0.14991632136E+01  0.20629950966E+01  0.51100000000E-03 0. -1.
        -11    1    3    3    0    0  0.24633035957E+01  0.12646571600E+01  0.24964257644E+01  0.37281851074E+01  0.51100000000E-03 0.  1.
         12    1    3    3    0    0  0.24550200427E+02 -0.33883992323E+02  0.35825290414E+01  0.41996092569E+02  0.00000000000E+00 0. -1.
</event>
<event>
 7    1  0.2505412E-009  0.4778724E+02  0.7816164E-02  0.1312668E+00
        -11   -1    0    0    0    0  0.00000000000E+00  0.00000000000E+00  0.45593999997E+02  0.45594000000E+02  0.51100000000E-03 0.  1.
         11   -1    0    0    0    0 -0.00000000000E+00 -0.00000000000E+00 -0.45593999997E+02  0.45594000000E+02  0.51100000000E-03 0. -1.
    9900012    2    1    2    0    0  0.34740564970E+02  0.24532099338E+02 -0.86541792873E+01  0.47787244574E+02  0.19999879312E+02 0.  0.
        -12    1    1    2    0    0 -0.34740564970E+02 -0.24532099338E+02  0.86541792873E+01  0.43400755426E+02  0.00000000000E+00 0.  1.
         11    1    3    3    0    0  0.10120269857E+02  0.45849513059E+01  0.49145929053E+01  0.12148862669E+02  0.51100000000E-03 0. -1.
        -11    1    3    3    0    0  0.95599643534E+01  0.42459253988E+01 -0.80322461037E+01  0.13188547254E+02  0.51100000000E-03 0.  1.
        -12    1    3    3    0    0  0.15060330759E+02  0.15701222634E+02 -0.55365260889E+01  0.22449834652E+02  0.00000000000E+00 0.  1.
</event>
<event>
 7    1  0.2505412E-009  0.4778727E+02  0.7816164E-02  0.1312668E+00
        -11   -1    0    0    0    0  0.00000000000E+00  0.00000000000E+00  0.45593999997E+02  0.45594000000E+02  0.51100000000E-03 0.  1.
         11   -1    0    0    0    0 -0.00000000000E+00 -0.00000000000E+00 -0.45593999997E+02  0.45594000000E+02  0.51100000000E-03 0. -1.
    9900012    2    1    2    0    0  0.20467676464E+02 -0.35274203102E+02 -0.14846809758E+02  0.47787274841E+02  0.20000017309E+02 0.  0.
        -12    1    1    2    0    0 -0.20467676464E+02  0.35274203102E+02  0.14846809758E+02  0.43400725159E+02  0.00000000000E+00 0.  1.
         11    1    3    3    0    0  0.12623737914E+01 -0.19658754066E+01 -0.25109284989E+01  0.34297253376E+01  0.51100000000E-03 0. -1.
        -11    1    3    3    0    0  0.69624941291E+01 -0.36467727695E+01  0.34647192028E+01  0.85895026367E+01  0.51100000000E-03 0.  1.
        -12    1    3    3    0    0  0.12242808544E+02 -0.29661554926E+02 -0.15800600462E+02  0.35768046866E+02  0.00000000000E+00 0.  1.
</event>
<event>
 7    1  0.2505412E-009  0.4778731E+02  0.7816164E-02  0.1312668E+00
        -11   -1    0    0    0    0  0.00000000000E+00  0.00000000000E+00  0.45593999997E+02  0.45594000000E+02  0.51100000000E-03 0.  1.
         11   -1    0    0    0    0 -0.00000000000E+00 -0.00000000000E+00 -0.45593999997E+02  0.45594000000E+02  0.51100000000E-03 0. -1.
    9900012    2    1    2    0    0  0.11058446926E+02  0.40156478891E+02  0.12197874096E+02  0.47787306713E+02  0.20000162627E+02 0.  0.
        -12    1    1    2    0    0 -0.11058446926E+02 -0.40156478891E+02 -0.12197874096E+02  0.43400693287E+02  0.00000000000E+00 0.  1.
         11    1    3    3    0    0  0.26375613258E+01 -0.20092451562E+00  0.20440659230E+01  0.33429487233E+01  0.51100000000E-03 0. -1.
        -11    1    3    3    0    0 -0.73328192603E+00  0.19011256970E+02  0.93634368974E+01  0.21204705722E+02  0.51100000000E-03 0.  1.
         12    1    3    3    0    0  0.91541675262E+01  0.21346146436E+02  0.79037127590E+00  0.23239652268E+02  0.00000000000E+00 0. -1.
</event>
<event>
 7    1  0.2505412E-009  0.4778723E+02  0.7816164E-02  0.1312668E+00
        -11   -1    0    0    0    0  0.00000000000E+00  0.00000000000E+00  0.45593999997E+02  0.45594000000E+02  0.51100000000E-03 0. -1.
         11   -1    0    0    0    0 -0.00000000000E+00 -0.00000000000E+00 -0.45593999997E+02  0.45594000000E+02  0.51100000000E-03 0.  1.
    9900012    2    1    2    0    0 -0.33713079139E+02  0.21955603156E+02 -0.16279031935E+02  0.47787227015E+02  0.19999799252E+02 0.  0.
        -12    1    1    2    0    0  0.33713079139E+02 -0.21955603156E+02  0.16279031935E+02  0.43400772985E+02  0.00000000000E+00 0.  1.
         11    1    3    3    0    0 -0.24806402601E+02  0.23028321579E+02 -0.10755964778E+02  0.35515517501E+02  0.51100000000E-03 0. -1.
        -11    1    3    3    0    0 -0.95051079360E+01  0.12484846608E+00 -0.53865472699E+01  0.10926003650E+02  0.51100000000E-03 0.  1.
         12    1    3    3    0    0  0.59843139886E+00 -0.11975668891E+01 -0.13651988669E+00  0.13457058641E+01  0.00000000000E+00 0. -1.
</event>
<event>
 7    1  0.2505412E-009  0.4778727E+02  0.7816164E-02  0.1312668E+00
        -11   -1    0    0    0    0  0.00000000000E+00  0.00000000000E+00  0.45593999997E+02  0.45594000000E+02  0.51100000000E-03 0. -1.
         11   -1    0    0    0    0 -0.00000000000E+00 -0.00000000000E+00 -0.45593999997E+02  0.45594000000E+02  0.51100000000E-03 0.  1.
    9900012    2    1    2    0    0 -0.40656493698E+02 -0.14602371949E+02 -0.41765656971E+01  0.47787269046E+02  0.19999990888E+02 0.  0.
        -12    1    1    2    0    0  0.40656493698E+02  0.14602371949E+02  0.41765656971E+01  0.43400730954E+02  0.00000000000E+00 0.  1.
         11    1    3    3    0    0 -0.11820812422E+02 -0.54352387830E+01 -0.40838171303E+01  0.13636384768E+02  0.51100000000E-03 0. -1.
        -11    1    3    3    0    0  0.36945914426E+00  0.49547771550E+00  0.31576293271E+01  0.32175489824E+01  0.51100000000E-03 0.  1.
         12    1    3    3    0    0 -0.29205140420E+02 -0.96626108819E+01 -0.32503778939E+01  0.30933335295E+02  0.00000000000E+00 0. -1.
</event>
<event>
 7    1  0.2505412E-009  0.4778725E+02  0.7816164E-02  0.1312668E+00
        -11   -1    0    0    0    0  0.00000000000E+00  0.00000000000E+00  0.45593999997E+02  0.45594000000E+02  0.51100000000E-03 0. -1.
         11   -1    0    0    0    0 -0.00000000000E+00 -0.00000000000E+00 -0.45593999997E+02  0.45594000000E+02  0.51100000000E-03 0.  1.
    9900012    2    1    2    0    0  0.42331750954E+01 -0.40569899559E+02  0.14825280049E+02  0.47787245973E+02  0.19999885688E+02 0.  0.
        -12    1    1    2    0    0 -0.42331750954E+01  0.40569899559E+02 -0.14825280049E+02  0.43400754027E+02  0.00000000000E+00 0.  1.
         11    1    3    3    0    0  0.45050781518E+00 -0.21345321664E+01  0.22384928914E+01  0.31257056079E+01  0.51100000000E-03 0. -1.
        -11    1    3    3    0    0 -0.23005547986E+01 -0.92193204964E+01  0.11337433995E+02  0.14792762847E+02  0.51100000000E-03 0.  1.
         12    1    3    3    0    0  0.60832220788E+01 -0.29216046896E+02  0.12493531627E+01  0.29868777518E+02  0.00000000000E+00 0. -1.
</event>
<event>
 7    1  0.2505412E-009  0.4778727E+02  0.7816164E-02  0.1312668E+00
        -11   -1    0    0    0    0  0.00000000000E+00  0.00000000000E+00  0.45593999997E+02  0.45594000000E+02  0.51100000000E-03 0. -1.
         11   -1    0    0    0    0 -0.00000000000E+00 -0.00000000000E+00 -0.45593999997E+02  0.45594000000E+02  0.51100000000E-03 0.  1.
    9900012    2    1    2    0    0 -0.25953873591E+02  0.33585335850E+02 -0.90578622884E+01  0.47787271805E+02  0.20000003470E+02 0.  0.
        -12    1    1    2    0    0  0.25953873591E+02 -0.33585335850E+02  0.90578622884E+01  0.43400728195E+02  0.00000000000E+00 0.  1.
         11    1    3    3    0    0 -0.72166757503E+01  0.16802049122E+02 -0.52554587222E+01  0.19026537000E+02  0.51100000000E-03 0. -1.
        -11    1    3    3    0    0 -0.11590802201E+02  0.11794214306E+02  0.40548832495E+01  0.17026222869E+02  0.51100000000E-03 0.  1.
        -12    1    3    3    0    0 -0.71463956398E+01  0.49890724228E+01 -0.78572868157E+01  0.11734511936E+02  0.00000000000E+00 0.  1.
</event>
<event>
 7    1  0.2505412E-009  0.4778728E+02  0.7816164E-02  0.1312668E+00
        -11   -1    0    0    0    0  0.00000000000E+00  0.00000000000E+00  0.45593999997E+02  0.45594000000E+02  0.51100000000E-03 0.  1.
         11   -1    0    0    0    0 -0.00000000000E+00 -0.00000000000E+00 -0.45593999997E+02  0.45594000000E+02  0.51100000000E-03 0. -1.
    9900012    2    1    2    0    0  0.45083713265E+01  0.32141788162E+02 -0.28813242368E+02  0.47787275421E+02  0.20000019955E+02 0.  0.
        -12    1    1    2    0    0 -0.45083713265E+01 -0.32141788162E+02  0.28813242368E+02  0.43400724579E+02  0.00000000000E+00 0.  1.
         11    1    3    3    0    0  0.16721090639E+01  0.19685232193E+01 -0.52651086787E+01  0.58645035635E+01  0.51100000000E-03 0. -1.
        -11    1    3    3    0    0  0.83253924977E+01  0.12588731940E+02 -0.53079531148E+01  0.15998834290E+02  0.51100000000E-03 0.  1.
         12    1    3    3    0    0 -0.54891302351E+01  0.17584533002E+02 -0.18240180574E+02  0.25923937568E+02  0.00000000000E+00 0. -1.
</event>
<event>
 7    1  0.2505412E-009  0.4778727E+02  0.7816164E-02  0.1312668E+00
        -11   -1    0    0    0    0  0.00000000000E+00  0.00000000000E+00  0.45593999997E+02  0.45594000000E+02  0.51100000000E-03 0. -1.
         11   -1    0    0    0    0 -0.00000000000E+00 -0.00000000000E+00 -0.45593999997E+02  0.45594000000E+02  0.51100000000E-03 0.  1.
    9900012    2    1    2    0    0  0.23330995523E+02 -0.34258828200E+02  0.12869358719E+02  0.47787273559E+02  0.20000011466E+02 0.  0.
        -12    1    1    2    0    0 -0.23330995523E+02  0.34258828200E+02 -0.12869358719E+02  0.43400726441E+02  0.00000000000E+00 0.  1.
         11    1    3    3    0    0 -0.43643554080E+00 -0.66380170532E+01 -0.53036977876E+00  0.66734577801E+01  0.51100000000E-03 0. -1.
        -11    1    3    3    0    0  0.63895263608E+01 -0.20167932539E+01  0.66534178627E+01  0.94425352348E+01  0.51100000000E-03 0.  1.
         12    1    3    3    0    0  0.17377904703E+02 -0.25604017893E+02  0.67463106348E+01  0.31671280544E+02  0.00000000000E+00 0. -1.
</event>
<event>
 7    1  0.2505412E-009  0.4778727E+02  0.7816164E-02  0.1312668E+00
        -11   -1    0    0    0    0  0.00000000000E+00  0.00000000000E+00  0.45593999997E+02  0.45594000000E+02  0.51100000000E-03 0. -1.
         11   -1    0    0    0    0 -0.00000000000E+00 -0.00000000000E+00 -0.45593999997E+02  0.45594000000E+02  0.51100000000E-03 0.  1.
    9900012    2    1    2    0    0 -0.66104761345E+01 -0.21033738264E+02  0.37383240340E+02  0.47787271914E+02  0.20000003964E+02 0.  0.
        -12    1    1    2    0    0  0.66104761345E+01  0.21033738264E+02 -0.37383240340E+02  0.43400728086E+02  0.00000000000E+00 0.  1.
         11    1    3    3    0    0 -0.47846657993E+01 -0.63390504486E+01  0.34082688439E+01  0.86425045082E+01  0.51100000000E-03 0.  1.
        -11    1    3    3    0    0  0.10704154340E+01  0.18714803960E+01  0.72934286161E+01  0.76054144735E+01  0.51100000000E-03 0. -1.
         12    1    3    3    0    0 -0.28962257692E+01 -0.16566168212E+02  0.26681542880E+02  0.31539352932E+02  0.00000000000E+00 0. -1.
</event>
<event>
 7    1  0.2505412E-009  0.4778727E+02  0.7816164E-02  0.1312668E+00
        -11   -1    0    0    0    0  0.00000000000E+00  0.00000000000E+00  0.45593999997E+02  0.45594000000E+02  0.51100000000E-03 0.  1.
         11   -1    0    0    0    0 -0.00000000000E+00 -0.00000000000E+00 -0.45593999997E+02  0.45594000000E+02  0.51100000000E-03 0. -1.
    9900012    2    1    2    0    0 -0.21281238705E+02 -0.19343661624E+02 -0.32504691229E+02  0.47787270539E+02  0.19999997696E+02 0.  0.
        -12    1    1    2    0    0  0.21281238705E+02  0.19343661624E+02  0.32504691229E+02  0.43400729461E+02  0.00000000000E+00 0.  1.
         11    1    3    3    0    0 -0.16578925119E+02 -0.10122354834E+02 -0.19022158199E+02  0.27187595118E+02  0.51100000000E-03 0. -1.
        -11    1    3    3    0    0 -0.19987668446E+01  0.26903751113E+01 -0.31845636812E+01  0.46232708377E+01  0.51100000000E-03 0.  1.
         12    1    3    3    0    0 -0.27035467409E+01 -0.11911681901E+02 -0.10297969349E+02  0.15976404583E+02  0.00000000000E+00 0. -1.
</event>
<event>
 7    1  0.2505412E-009  0.4778727E+02  0.7816164E-02  0.1312668E+00
        -11   -1    0    0    0    0  0.00000000000E+00  0.00000000000E+00  0.45593999997E+02  0.45594000000E+02  0.51100000000E-03 0.  1.
         11   -1    0    0    0    0 -0.00000000000E+00 -0.00000000000E+00 -0.45593999997E+02  0.45594000000E+02  0.51100000000E-03 0. -1.
    9900012    2    1    2    0    0 -0.12368762643E+02 -0.27998672657E+02 -0.30768681013E+02  0.47787266237E+02  0.19999978081E+02 0.  0.
        -12    1    1    2    0    0  0.12368762643E+02  0.27998672657E+02  0.30768681013E+02  0.43400733763E+02  0.00000000000E+00 0.  1.
         11    1    3    3    0    0  0.33553833968E+00 -0.96429792530E+01 -0.18747551225E+02  0.21084836068E+02  0.51100000000E-03 0. -1.
        -11    1    3    3    0    0 -0.28615580929E+01 -0.73940124788E+01 -0.83608639465E+01  0.11522325349E+02  0.51100000000E-03 0.  1.
        -12    1    3    3    0    0 -0.98427428900E+01 -0.10961680925E+02 -0.36602658424E+01  0.15180104820E+02  0.00000000000E+00 0.  1.
</event>
<event>
 7    1  0.2505412E-009  0.4778727E+02  0.7816164E-02  0.1312668E+00
        -11   -1    0    0    0    0  0.00000000000E+00  0.00000000000E+00  0.45593999997E+02  0.45594000000E+02  0.51100000000E-03 0. -1.
         11   -1    0    0    0    0 -0.00000000000E+00 -0.00000000000E+00 -0.45593999997E+02  0.45594000000E+02  0.51100000000E-03 0.  1.
    9900012    2    1    2    0    0  0.13813341134E+02  0.37058585947E+02  0.17873895169E+02  0.47787270580E+02  0.19999997884E+02 0.  0.
        -12    1    1    2    0    0 -0.13813341134E+02 -0.37058585947E+02 -0.17873895169E+02  0.43400729420E+02  0.00000000000E+00 0.  1.
         11    1    3    3    0    0  0.38674388045E+01  0.15562609995E+02  0.61325136186E+01  0.17168565354E+02  0.51100000000E-03 0. -1.
        -11    1    3    3    0    0  0.11040832046E+02  0.92804787727E+01  0.11340654978E+02  0.18347689612E+02  0.51100000000E-03 0.  1.
         12    1    3    3    0    0 -0.10949297167E+01  0.12215497179E+02  0.40072657237E+00  0.12271015614E+02  0.00000000000E+00 0. -1.
</event>
<event>
 7    1  0.2505412E-009  0.4778727E+02  0.7816164E-02  0.1312668E+00
        -11   -1    0    0    0    0  0.00000000000E+00  0.00000000000E+00  0.45593999997E+02  0.45594000000E+02  0.51100000000E-03 0.  1.
         11   -1    0    0    0    0 -0.00000000000E+00 -0.00000000000E+00 -0.45593999997E+02  0.45594000000E+02  0.51100000000E-03 0. -1.
    9900012    2    1    2    0    0  0.47996909769E+01 -0.23232185015E+02 -0.36343525180E+02  0.47787271014E+02  0.19999999861E+02 0.  0.
        -12    1    1    2    0    0 -0.47996909769E+01  0.23232185015E+02  0.36343525180E+02  0.43400728986E+02  0.00000000000E+00 0.  1.
         11    1    3    3    0    0  0.21494820204E+01 -0.25336810657E+02 -0.32817220464E+02  0.41515589921E+02  0.51100000000E-03 0. -1.
        -11    1    3    3    0    0  0.21709668349E+01  0.29674388926E+00 -0.37950122769E+01  0.43821538514E+01  0.51100000000E-03 0.  1.
         12    1    3    3    0    0  0.47924212158E+00  0.18078817528E+01  0.26870756142E+00  0.18895272416E+01  0.00000000000E+00 0. -1.
</event>
<event>
 7    1  0.2505412E-009  0.4778730E+02  0.7816164E-02  0.1312668E+00
        -11   -1    0    0    0    0  0.00000000000E+00  0.00000000000E+00  0.45593999997E+02  0.45594000000E+02  0.51100000000E-03 0. -1.
         11   -1    0    0    0    0 -0.00000000000E+00 -0.00000000000E+00 -0.45593999997E+02  0.45594000000E+02  0.51100000000E-03 0.  1.
    9900012    2    1    2    0    0  0.28611563538E+01  0.11554886768E+02  0.41736309111E+02  0.47787295834E+02  0.20000113027E+02 0.  0.
        -12    1    1    2    0    0 -0.28611563538E+01 -0.11554886768E+02 -0.41736309111E+02  0.43400704166E+02  0.00000000000E+00 0.  1.
         11    1    3    3    0    0  0.44387357866E+01 -0.41386840332E+01  0.13320798263E+02  0.14638126504E+02  0.51100000000E-03 0. -1.
        -11    1    3    3    0    0 -0.41135363203E+01  0.85087310692E+01  0.15914650230E+02  0.18509342983E+02  0.51100000000E-03 0.  1.
        -12    1    3    3    0    0  0.25359568875E+01  0.71848397316E+01  0.12500860617E+02  0.14639826347E+02  0.00000000000E+00 0.  1.
</event>
<event>
 7    1  0.2505412E-009  0.4778727E+02  0.7816164E-02  0.1312668E+00
        -11   -1    0    0    0    0  0.00000000000E+00  0.00000000000E+00  0.45593999997E+02  0.45594000000E+02  0.51100000000E-03 0. -1.
         11   -1    0    0    0    0 -0.00000000000E+00 -0.00000000000E+00 -0.45593999997E+02  0.45594000000E+02  0.51100000000E-03 0.  1.
    9900012    2    1    2    0    0  0.23375524081E+02 -0.13477673084E+02  0.33993533228E+02  0.47787273057E+02  0.20000009176E+02 0.  0.
        -12    1    1    2    0    0 -0.23375524081E+02  0.13477673084E+02 -0.33993533228E+02  0.43400726943E+02  0.00000000000E+00 0.  1.
         11    1    3    3    0    0  0.77585492966E+01 -0.75208866678E+01  0.73490826491E+01  0.13067816937E+02  0.51100000000E-03 0. -1.
        -11    1    3    3    0    0  0.39681444642E+01 -0.70654764652E+01  0.35853524847E+01  0.88612572962E+01  0.51100000000E-03 0.  1.
         12    1    3    3    0    0  0.11648830321E+02  0.11086900492E+01  0.23059098095E+02  0.25858198824E+02  0.00000000000E+00 0. -1.
</event>
<event>
 7    1  0.2505412E-009  0.4778727E+02  0.7816164E-02  0.1312668E+00
        -11   -1    0    0    0    0  0.00000000000E+00  0.00000000000E+00  0.45593999997E+02  0.45594000000E+02  0.51100000000E-03 0.  1.
         11   -1    0    0    0    0 -0.00000000000E+00 -0.00000000000E+00 -0.45593999997E+02  0.45594000000E+02  0.51100000000E-03 0. -1.
    9900012    2    1    2    0    0  0.26794664179E+01 -0.43268715529E+02  0.20645594032E+01  0.47787266258E+02  0.19999978176E+02 0.  0.
        -12    1    1    2    0    0 -0.26794664179E+01  0.43268715529E+02 -0.20645594032E+01  0.43400733742E+02  0.00000000000E+00 0.  1.
         11    1    3    3    0    0  0.50555873880E+01 -0.71223486686E+01  0.14342837731E+00  0.87354099134E+01  0.51100000000E-03 0. -1.
        -11    1    3    3    0    0  0.38086534708E+01 -0.26479106421E+01 -0.13484458377E+01  0.48306913033E+01  0.51100000000E-03 0.  1.
        -12    1    3    3    0    0 -0.61847744409E+01 -0.33498456219E+02  0.32695768636E+01  0.34221165041E+02  0.00000000000E+00 0.  1.
</event>
<event>
 7    1  0.2505412E-009  0.4778727E+02  0.7816164E-02  0.1312668E+00
        -11   -1    0    0    0    0  0.00000000000E+00  0.00000000000E+00  0.45593999997E+02  0.45594000000E+02  0.51100000000E-03 0.  1.
         11   -1    0    0    0    0 -0.00000000000E+00 -0.00000000000E+00 -0.45593999997E+02  0.45594000000E+02  0.51100000000E-03 0. -1.
    9900012    2    1    2    0    0  0.12282232728E+02 -0.24388560950E+02 -0.33733784854E+02  0.47787269746E+02  0.19999994081E+02 0.  0.
        -12    1    1    2    0    0 -0.12282232728E+02  0.24388560950E+02  0.33733784854E+02  0.43400730254E+02  0.00000000000E+00 0.  1.
         11    1    3    3    0    0 -0.26438974692E+01 -0.16815099020E+01 -0.22174496621E+01  0.38385873239E+01  0.51100000000E-03 0. -1.
        -11    1    3    3    0    0  0.96380365763E-01 -0.99273288896E+01 -0.16578901157E+02  0.19324107014E+02  0.51100000000E-03 0.  1.
         12    1    3    3    0    0  0.14829749831E+02 -0.12779722159E+02 -0.14937434035E+02  0.24624575408E+02  0.00000000000E+00 0. -1.
</event>
<event>
 7    1  0.2505412E-009  0.4778727E+02  0.7816164E-02  0.1312668E+00
        -11   -1    0    0    0    0  0.00000000000E+00  0.00000000000E+00  0.45593999997E+02  0.45594000000E+02  0.51100000000E-03 0.  1.
         11   -1    0    0    0    0 -0.00000000000E+00 -0.00000000000E+00 -0.45593999997E+02  0.45594000000E+02  0.51100000000E-03 0. -1.
    9900012    2    1    2    0    0 -0.40243204102E+02 -0.86106820736E+01 -0.13782751006E+02  0.47787267893E+02  0.19999985630E+02 0.  0.
        -12    1    1    2    0    0  0.40243204102E+02  0.86106820736E+01  0.13782751006E+02  0.43400732107E+02  0.00000000000E+00 0.  1.
         11    1    3    3    0    0 -0.94087359355E+01 -0.31438305537E+01 -0.63168914411E+01  0.11760573974E+02  0.51100000000E-03 0. -1.
        -11    1    3    3    0    0 -0.54403386895E+01  0.39596869412E+01  0.24798786620E+01  0.71712066048E+01  0.51100000000E-03 0.  1.
        -12    1    3    3    0    0 -0.25394129477E+02 -0.94265384611E+01 -0.99457382274E+01  0.28855487314E+02  0.00000000000E+00 0.  1.
</event>
<event>
 7    1  0.2505412E-009  0.4778727E+02  0.7816164E-02  0.1312668E+00
        -11   -1    0    0    0    0  0.00000000000E+00  0.00000000000E+00  0.45593999997E+02  0.45594000000E+02  0.51100000000E-03 0.  1.
         11   -1    0    0    0    0 -0.00000000000E+00 -0.00000000000E+00 -0.45593999997E+02  0.45594000000E+02  0.51100000000E-03 0. -1.
    9900012    2    1    2    0    0 -0.17306736747E+02  0.33644810306E+02 -0.21263277443E+02  0.47787269995E+02  0.19999995214E+02 0.  0.
        -12    1    1    2    0    0  0.17306736747E+02 -0.33644810306E+02  0.21263277443E+02  0.43400730005E+02  0.00000000000E+00 0.  1.
         11    1    3    3    0    0 -0.21006369648E+02  0.26534069455E+02 -0.14757614943E+02  0.36920341368E+02  0.51100000000E-03 0. -1.
        -11    1    3    3    0    0 -0.86356326159E-01 -0.29550766890E+00 -0.12420559546E-02  0.30787010454E+00  0.51100000000E-03 0.  1.
         12    1    3    3    0    0  0.37859892271E+01  0.74062485197E+01 -0.65044204440E+01  0.10559058522E+02  0.00000000000E+00 0. -1.
</event>
<event>
 7    1  0.2505412E-009  0.4778727E+02  0.7816164E-02  0.1312668E+00
        -11   -1    0    0    0    0  0.00000000000E+00  0.00000000000E+00  0.45593999997E+02  0.45594000000E+02  0.51100000000E-03 0.  1.
         11   -1    0    0    0    0 -0.00000000000E+00 -0.00000000000E+00 -0.45593999997E+02  0.45594000000E+02  0.51100000000E-03 0. -1.
    9900012    2    1    2    0    0  0.11672431382E+01  0.28551684593E+02 -0.32665912446E+02  0.47787274366E+02  0.20000015145E+02 0.  0.
        -12    1    1    2    0    0 -0.11672431382E+01 -0.28551684593E+02  0.32665912446E+02  0.43400725634E+02  0.00000000000E+00 0.  1.
         11    1    3    3    0    0  0.33670934000E+01  0.27816156621E+02 -0.30747929919E+02  0.41599412035E+02  0.51100000000E-03 0. -1.
        -11    1    3    3    0    0 -0.28263994538E+01  0.20215085489E+01 -0.28384174964E+01  0.44868301540E+01  0.51100000000E-03 0.  1.
         12    1    3    3    0    0  0.62654919197E+00 -0.12859805772E+01  0.92043496907E+00  0.17010321770E+01  0.00000000000E+00 0. -1.
</event>
<event>
 7    1  0.2505412E-009  0.4778727E+02  0.7816164E-02  0.1312668E+00
        -11   -1    0    0    0    0  0.00000000000E+00  0.00000000000E+00  0.45593999997E+02  0.45594000000E+02  0.51100000000E-03 0.  1.
         11   -1    0    0    0    0 -0.00000000000E+00 -0.00000000000E+00 -0.45593999997E+02  0.45594000000E+02  0.51100000000E-03 0. -1.
    9900012    2    1    2    0    0 -0.12302779798E+02 -0.21035183674E+02 -0.35913587036E+02  0.47787273316E+02  0.20000010355E+02 0.  0.
        -12    1    1    2    0    0  0.12302779798E+02  0.21035183674E+02  0.35913587036E+02  0.43400726684E+02  0.00000000000E+00 0.  1.
         11    1    3    3    0    0 -0.52055685310E+01 -0.31647577609E+01 -0.18818872576E+02  0.19780384241E+02  0.51100000000E-03 0. -1.
        -11    1    3    3    0    0 -0.52242264431E+01 -0.14357632448E+02 -0.18307513519E+02  0.23845318261E+02  0.51100000000E-03 0.  1.
        -12    1    3    3    0    0 -0.18729848244E+01 -0.35127934648E+01  0.12127990598E+01  0.41615708138E+01  0.00000000000E+00 0.  1.
</event>
<event>
 7    1  0.2505412E-009  0.4778727E+02  0.7816164E-02  0.1312668E+00
        -11   -1    0    0    0    0  0.00000000000E+00  0.00000000000E+00  0.45593999997E+02  0.45594000000E+02  0.51100000000E-03 0. -1.
         11   -1    0    0    0    0 -0.00000000000E+00 -0.00000000000E+00 -0.45593999997E+02  0.45594000000E+02  0.51100000000E-03 0.  1.
    9900012    2    1    2    0    0  0.22604436547E+02 -0.20250743404E+02 -0.31025316041E+02  0.47787269644E+02  0.19999993614E+02 0.  0.
        -12    1    1    2    0    0 -0.22604436547E+02  0.20250743404E+02  0.31025316041E+02  0.43400730356E+02  0.00000000000E+00 0.  1.
         11    1    3    3    0    0  0.13417715390E+02 -0.21354244200E+02 -0.22528231870E+02  0.33816564921E+02  0.51100000000E-03 0. -1.
        -11    1    3    3    0    0  0.85698006870E+01 -0.92435023620E+00 -0.80717094033E+01  0.11808827212E+02  0.51100000000E-03 0.  1.
        -12    1    3    3    0    0  0.61692046940E+00  0.20278510324E+01 -0.42537476815E+00  0.21618775101E+01  0.00000000000E+00 0.  1.
</event>
<event>
 7    1  0.2505412E-009  0.4778727E+02  0.7816164E-02  0.1312668E+00
        -11   -1    0    0    0    0  0.00000000000E+00  0.00000000000E+00  0.45593999997E+02  0.45594000000E+02  0.51100000000E-03 0.  1.
         11   -1    0    0    0    0 -0.00000000000E+00 -0.00000000000E+00 -0.45593999997E+02  0.45594000000E+02  0.51100000000E-03 0. -1.
    9900012    2    1    2    0    0  0.19952750809E+02 -0.38522967564E+02 -0.12215097847E+01  0.47787269811E+02  0.19999994377E+02 0.  0.
        -12    1    1    2    0    0 -0.19952750809E+02  0.38522967564E+02  0.12215097847E+01  0.43400730189E+02  0.00000000000E+00 0.  1.
         11    1    3    3    0    0  0.11348149951E+02 -0.22992307854E+02 -0.29092468607E+01  0.25804853135E+02  0.51100000000E-03 0. -1.
        -11    1    3    3    0    0  0.62663506749E+01 -0.17748559377E+00  0.15235285786E+01  0.64513402877E+01  0.51100000000E-03 0.  1.
         12    1    3    3    0    0  0.23382501831E+01 -0.15353174116E+02  0.16420849737E+00  0.15531076389E+02  0.00000000000E+00 0. -1.
</event>
<event>
 7    1  0.2505412E-009  0.4778727E+02  0.7816164E-02  0.1312668E+00
        -11   -1    0    0    0    0  0.00000000000E+00  0.00000000000E+00  0.45593999997E+02  0.45594000000E+02  0.51100000000E-03 0. -1.
         11   -1    0    0    0    0 -0.00000000000E+00 -0.00000000000E+00 -0.45593999997E+02  0.45594000000E+02  0.51100000000E-03 0.  1.
    9900012    2    1    2    0    0  0.20501230202E+02  0.36199015580E+02 -0.12367461640E+02  0.47787271018E+02  0.19999999879E+02 0.  0.
        -12    1    1    2    0    0 -0.20501230202E+02 -0.36199015580E+02  0.12367461640E+02  0.43400728982E+02  0.00000000000E+00 0.  1.
         11    1    3    3    0    0  0.90954537111E+01  0.18927239075E+02 -0.95172621492E+01  0.23055280009E+02  0.51100000000E-03 0. -1.
        -11    1    3    3    0    0  0.50013456719E+01 -0.10619343187E+01 -0.65841585649E-01  0.51132669012E+01  0.51100000000E-03 0.  1.
         12    1    3    3    0    0  0.64044308193E+01  0.18333710823E+02 -0.27843579052E+01  0.19618724108E+02  0.00000000000E+00 0. -1.
</event>
<event>
 7    1  0.2505412E-009  0.4778727E+02  0.7816164E-02  0.1312668E+00
        -11   -1    0    0    0    0  0.00000000000E+00  0.00000000000E+00  0.45593999997E+02  0.45594000000E+02  0.51100000000E-03 0. -1.
         11   -1    0    0    0    0 -0.00000000000E+00 -0.00000000000E+00 -0.45593999997E+02  0.45594000000E+02  0.51100000000E-03 0.  1.
    9900012    2    1    2    0    0 -0.29864089374E+02  0.31453902567E+02  0.15529934013E+01  0.47787267180E+02  0.19999982381E+02 0.  0.
        -12    1    1    2    0    0  0.29864089374E+02 -0.31453902567E+02 -0.15529934013E+01  0.43400732820E+02  0.00000000000E+00 0.  1.
         11    1    3    3    0    0 -0.87020480754E+01  0.12701029102E+02  0.38403496593E+01  0.15867894212E+02  0.51100000000E-03 0. -1.
        -11    1    3    3    0    0 -0.23095961037E+02  0.15344688011E+02 -0.31494414180E+01  0.27907021480E+02  0.51100000000E-03 0.  1.
        -12    1    3    3    0    0  0.19339197384E+01  0.34081854538E+01  0.86208515998E+00  0.40123514882E+01  0.00000000000E+00 0.  1.
</event>
<event>
 7    1  0.2505412E-009  0.4778727E+02  0.7816164E-02  0.1312668E+00
        -11   -1    0    0    0    0  0.00000000000E+00  0.00000000000E+00  0.45593999997E+02  0.45594000000E+02  0.51100000000E-03 0.  1.
         11   -1    0    0    0    0 -0.00000000000E+00 -0.00000000000E+00 -0.45593999997E+02  0.45594000000E+02  0.51100000000E-03 0. -1.
    9900012    2    1    2    0    0  0.29238683456E+02 -0.25568745085E+02  0.19363933898E+02  0.47787271073E+02  0.20000000129E+02 0.  0.
        -12    1    1    2    0    0 -0.29238683456E+02  0.25568745085E+02 -0.19363933898E+02  0.43400728927E+02  0.00000000000E+00 0.  1.
         11    1    3    3    0    0  0.13517474535E+02 -0.98848171850E+01  0.10820526975E+02  0.19937791574E+02  0.51100000000E-03 0. -1.
        -11    1    3    3    0    0 -0.11002813449E+01  0.18579588688E+01  0.27084406294E+00  0.21762322862E+01  0.51100000000E-03 0.  1.
        -12    1    3    3    0    0  0.16821490266E+02 -0.17541886768E+02  0.82725628599E+01  0.25673247213E+02  0.00000000000E+00 0.  1.
</event>
<event>
 7    1  0.2505412E-009  0.4778727E+02  0.7816164E-02  0.1312668E+00
        -11   -1    0    0    0    0  0.00000000000E+00  0.00000000000E+00  0.45593999997E+02  0.45594000000E+02  0.51100000000E-03 0.  1.
         11   -1    0    0    0    0 -0.00000000000E+00 -0.00000000000E+00 -0.45593999997E+02  0.45594000000E+02  0.51100000000E-03 0. -1.
    9900012    2    1    2    0    0 -0.36963040473E+02  0.40061650065E+01 -0.22389893619E+02  0.47787273562E+02  0.20000011478E+02 0.  0.
        -12    1    1    2    0    0  0.36963040473E+02 -0.40061650065E+01  0.22389893619E+02  0.43400726438E+02  0.00000000000E+00 0.  1.
         11    1    3    3    0    0 -0.21883803014E+02  0.82599423799E+01 -0.70560176087E+01  0.24431841258E+02  0.51100000000E-03 0. -1.
        -11    1    3    3    0    0 -0.10293446665E+02  0.79593711446E+00 -0.68787048749E+01  0.12405851086E+02  0.51100000000E-03 0.  1.
        -12    1    3    3    0    0 -0.47857907937E+01 -0.50497144878E+01 -0.84551711358E+01  0.10949581219E+02  0.00000000000E+00 0.  1.
</event>
<event>
 7    1  0.2505412E-009  0.4778727E+02  0.7816164E-02  0.1312668E+00
        -11   -1    0    0    0    0  0.00000000000E+00  0.00000000000E+00  0.45593999997E+02  0.45594000000E+02  0.51100000000E-03 0. -1.
         11   -1    0    0    0    0 -0.00000000000E+00 -0.00000000000E+00 -0.45593999997E+02  0.45594000000E+02  0.51100000000E-03 0.  1.
    9900012    2    1    2    0    0 -0.31823899964E+02 -0.29210194765E+02 -0.41984957688E+01  0.47787268971E+02  0.19999990545E+02 0.  0.
        -12    1    1    2    0    0  0.31823899964E+02  0.29210194765E+02  0.41984957688E+01  0.43400731029E+02  0.00000000000E+00 0.  1.
         11    1    3    3    0    0 -0.15959075317E+02 -0.23576029310E+02 -0.70339453315E+01  0.29325716192E+02  0.51100000000E-03 0. -1.
        -11    1    3    3    0    0 -0.11006259916E+01 -0.12030517398E+01  0.25710159278E+01  0.30444760180E+01  0.51100000000E-03 0.  1.
         12    1    3    3    0    0 -0.14764198656E+02 -0.44311137161E+01  0.26443363493E+00  0.15417076761E+02  0.00000000000E+00 0. -1.
</event>
<event>
 7    1  0.2505412E-009  0.4778728E+02  0.7816164E-02  0.1312668E+00
        -11   -1    0    0    0    0  0.00000000000E+00  0.00000000000E+00  0.45593999997E+02  0.45594000000E+02  0.51100000000E-03 0.  1.
         11   -1    0    0    0    0 -0.00000000000E+00 -0.00000000000E+00 -0.45593999997E+02  0.45594000000E+02  0.51100000000E-03 0. -1.
    9900012    2    1    2    0    0  0.59418241416E+01 -0.39741353704E+02 -0.16399457808E+02  0.47787277832E+02  0.20000030946E+02 0.  0.
        -12    1    1    2    0    0 -0.59418241416E+01  0.39741353704E+02  0.16399457808E+02  0.43400722168E+02  0.00000000000E+00 0.  1.
         11    1    3    3    0    0  0.56667345794E+01 -0.14162513658E+02 -0.84216968082E+01  0.17424512943E+02  0.51100000000E-03 0. -1.
        -11    1    3    3    0    0 -0.45163395627E+01 -0.35723519949E+01 -0.50351215207E+01  0.76492791040E+01  0.51100000000E-03 0.  1.
        -12    1    3    3    0    0  0.47914291249E+01 -0.22006488051E+02 -0.29426394792E+01  0.22713485785E+02  0.00000000000E+00 0.  1.
</event>
<event>
 7    1  0.2505412E-009  0.4778727E+02  0.7816164E-02  0.1312668E+00
        -11   -1    0    0    0    0  0.00000000000E+00  0.00000000000E+00  0.45593999997E+02  0.45594000000E+02  0.51100000000E-03 0.  1.
         11   -1    0    0    0    0 -0.00000000000E+00 -0.00000000000E+00 -0.45593999997E+02  0.45594000000E+02  0.51100000000E-03 0. -1.
    9900012    2    1    2    0    0  0.14976286938E+02  0.22851219187E+02 -0.33721742228E+02  0.47787270885E+02  0.19999999275E+02 0.  0.
        -12    1    1    2    0    0 -0.14976286938E+02 -0.22851219187E+02  0.33721742228E+02  0.43400729115E+02  0.00000000000E+00 0.  1.
         11    1    3    3    0    0  0.26755029185E+01  0.10487022382E+02 -0.46715804926E+01  0.11788113457E+02  0.51100000000E-03 0.  1.
        -11    1    3    3    0    0  0.53408048291E+01  0.55043245364E+01 -0.31043158410E+01  0.82739689344E+01  0.51100000000E-03 0. -1.
        -12    1    3    3    0    0  0.69599791904E+01  0.68598722690E+01 -0.25945845894E+02  0.27725188494E+02  0.00000000000E+00 0.  1.
</event>
<event>
 7    1  0.2505412E-009  0.4778727E+02  0.7816164E-02  0.1312668E+00
        -11   -1    0    0    0    0  0.00000000000E+00  0.00000000000E+00  0.45593999997E+02  0.45594000000E+02  0.51100000000E-03 0.  1.
         11   -1    0    0    0    0 -0.00000000000E+00 -0.00000000000E+00 -0.45593999997E+02  0.45594000000E+02  0.51100000000E-03 0. -1.
    9900012    2    1    2    0    0 -0.18746074273E+02 -0.33313758820E+02 -0.20552412130E+02  0.47787268765E+02  0.19999989608E+02 0.  0.
        -12    1    1    2    0    0  0.18746074273E+02  0.33313758820E+02  0.20552412130E+02  0.43400731235E+02  0.00000000000E+00 0.  1.
         11    1    3    3    0    0 -0.12643457156E+02 -0.19488277365E+02 -0.15184436414E+02  0.27752784959E+02  0.51100000000E-03 0. -1.
        -11    1    3    3    0    0 -0.69278939146E+01 -0.21367540628E+01 -0.26787685911E+00  0.72548735544E+01  0.51100000000E-03 0.  1.
         12    1    3    3    0    0  0.82527679774E+00 -0.11688727392E+02 -0.51000988566E+01  0.12779610251E+02  0.00000000000E+00 0. -1.
</event>
<event>
 7    1  0.2505412E-009  0.4778727E+02  0.7816164E-02  0.1312668E+00
        -11   -1    0    0    0    0  0.00000000000E+00  0.00000000000E+00  0.45593999997E+02  0.45594000000E+02  0.51100000000E-03 0.  1.
         11   -1    0    0    0    0 -0.00000000000E+00 -0.00000000000E+00 -0.45593999997E+02  0.45594000000E+02  0.51100000000E-03 0. -1.
    9900012    2    1    2    0    0 -0.37111767546E+02  0.22215061835E+02  0.35820505756E+01  0.47787270179E+02  0.19999996052E+02 0.  0.
        -12    1    1    2    0    0  0.37111767546E+02 -0.22215061835E+02 -0.35820505756E+01  0.43400729821E+02  0.00000000000E+00 0.  1.
         11    1    3    3    0    0 -0.21907681239E+02  0.74427902903E+01  0.76750506780E+01  0.24377203034E+02  0.51100000000E-03 0. -1.
        -11    1    3    3    0    0 -0.36590260097E+01  0.77868329323E+01  0.16230756238E+01  0.87554333529E+01  0.51100000000E-03 0.  1.
         12    1    3    3    0    0 -0.11545060297E+02  0.69854386120E+01 -0.57160757262E+01  0.14654633792E+02  0.00000000000E+00 0. -1.
</event>
<event>
 7    1  0.2505412E-009  0.4778727E+02  0.7816164E-02  0.1312668E+00
        -11   -1    0    0    0    0  0.00000000000E+00  0.00000000000E+00  0.45593999997E+02  0.45594000000E+02  0.51100000000E-03 0. -1.
         11   -1    0    0    0    0 -0.00000000000E+00 -0.00000000000E+00 -0.45593999997E+02  0.45594000000E+02  0.51100000000E-03 0.  1.
    9900012    2    1    2    0    0 -0.38885091538E+02  0.38080947414E+01  0.18896342193E+02  0.47787266392E+02  0.19999978786E+02 0.  0.
        -12    1    1    2    0    0  0.38885091538E+02 -0.38080947414E+01 -0.18896342193E+02  0.43400733608E+02  0.00000000000E+00 0.  1.
         11    1    3    3    0    0 -0.12295909145E+02  0.41585585651E+01  0.31919440221E+01  0.13366805824E+02  0.51100000000E-03 0. -1.
        -11    1    3    3    0    0 -0.68330437413E+01  0.19185045396E+01  0.12363481903E+02  0.14255764850E+02  0.51100000000E-03 0.  1.
        -12    1    3    3    0    0 -0.19756138652E+02 -0.22689683633E+01  0.33409162677E+01  0.20164695717E+02  0.00000000000E+00 0.  1.
</event>
<event>
 7    1  0.2505412E-009  0.4778727E+02  0.7816164E-02  0.1312668E+00
        -11   -1    0    0    0    0  0.00000000000E+00  0.00000000000E+00  0.45593999997E+02  0.45594000000E+02  0.51100000000E-03 0.  1.
         11   -1    0    0    0    0 -0.00000000000E+00 -0.00000000000E+00 -0.45593999997E+02  0.45594000000E+02  0.51100000000E-03 0. -1.
    9900012    2    1    2    0    0  0.40745193444E+02 -0.14948311532E+02 -0.22674484343E-01  0.47787270506E+02  0.19999997545E+02 0.  0.
        -12    1    1    2    0    0 -0.40745193444E+02  0.14948311532E+02  0.22674484343E-01  0.43400729494E+02  0.00000000000E+00 0.  1.
         11    1    3    3    0    0  0.49379918741E+00 -0.15188880737E+01 -0.78392089567E+00  0.17791545322E+01  0.51100000000E-03 0.  1.
        -11    1    3    3    0    0  0.28436066980E+02 -0.25394691451E+01  0.58713672728E+01  0.29146728165E+02  0.51100000000E-03 0. -1.
         12    1    3    3    0    0  0.11815327277E+02 -0.10889954313E+02 -0.51101208614E+01  0.16861387809E+02  0.00000000000E+00 0. -1.
</event>
<event>
 7    1  0.2505412E-009  0.4778727E+02  0.7816164E-02  0.1312668E+00
        -11   -1    0    0    0    0  0.00000000000E+00  0.00000000000E+00  0.45593999997E+02  0.45594000000E+02  0.51100000000E-03 0.  1.
         11   -1    0    0    0    0 -0.00000000000E+00 -0.00000000000E+00 -0.45593999997E+02  0.45594000000E+02  0.51100000000E-03 0. -1.
    9900012    2    1    2    0    0 -0.21744178979E+02 -0.41215601219E+01 -0.37333987312E+02  0.47787272058E+02  0.20000004620E+02 0.  0.
        -12    1    1    2    0    0  0.21744178979E+02  0.41215601219E+01  0.37333987312E+02  0.43400727942E+02  0.00000000000E+00 0.  1.
         11    1    3    3    0    0 -0.12228241157E+02  0.10335013059E+01 -0.14594952678E+02  0.19068577573E+02  0.51100000000E-03 0. -1.
        -11    1    3    3    0    0 -0.70121766920E+01 -0.77029688495E+01 -0.69303519865E+01  0.12511439964E+02  0.51100000000E-03 0.  1.
        -12    1    3    3    0    0 -0.25037611300E+01  0.25479074217E+01 -0.15808682648E+02  0.16207254521E+02  0.00000000000E+00 0.  1.
</event>
<event>
 7    1  0.2505412E-009  0.4778727E+02  0.7816164E-02  0.1312668E+00
        -11   -1    0    0    0    0  0.00000000000E+00  0.00000000000E+00  0.45593999997E+02  0.45594000000E+02  0.51100000000E-03 0.  1.
         11   -1    0    0    0    0 -0.00000000000E+00 -0.00000000000E+00 -0.45593999997E+02  0.45594000000E+02  0.51100000000E-03 0. -1.
    9900012    2    1    2    0    0  0.11511144968E+02 -0.18172138819E+02 -0.37694697262E+02  0.47787270865E+02  0.19999999183E+02 0.  0.
        -12    1    1    2    0    0 -0.11511144968E+02  0.18172138819E+02  0.37694697262E+02  0.43400729135E+02  0.00000000000E+00 0.  1.
         11    1    3    3    0    0  0.30549930180E+01 -0.35707810559E+01 -0.12410244939E+02  0.13270178574E+02  0.51100000000E-03 0. -1.
        -11    1    3    3    0    0 -0.26961805840E+01 -0.46400970997E+01 -0.26927412022E+00  0.53733043511E+01  0.51100000000E-03 0.  1.
        -12    1    3    3    0    0  0.11152332533E+02 -0.99612606634E+01 -0.25015178204E+02  0.29143787940E+02  0.00000000000E+00 0.  1.
</event>
<event>
 7    1  0.2505412E-009  0.4778727E+02  0.7816164E-02  0.1312668E+00
        -11   -1    0    0    0    0  0.00000000000E+00  0.00000000000E+00  0.45593999997E+02  0.45594000000E+02  0.51100000000E-03 0.  1.
         11   -1    0    0    0    0 -0.00000000000E+00 -0.00000000000E+00 -0.45593999997E+02  0.45594000000E+02  0.51100000000E-03 0. -1.
    9900012    2    1    2    0    0 -0.12273355954E+02 -0.26146610887E+01 -0.41546979561E+02  0.47787271554E+02  0.20000002325E+02 0.  0.
        -12    1    1    2    0    0  0.12273355954E+02  0.26146610887E+01  0.41546979561E+02  0.43400728446E+02  0.00000000000E+00 0.  1.
         11    1    3    3    0    0  0.32360397721E+01 -0.37116277259E+01 -0.23607471572E+01  0.54608846521E+01  0.51100000000E-03 0.  1.
        -11    1    3    3    0    0 -0.68833892551E+01  0.23298016223E+01 -0.16819022651E+02  0.18321805217E+02  0.51100000000E-03 0. -1.
        -12    1    3    3    0    0 -0.86260064711E+01 -0.12328349852E+01 -0.22367209753E+02  0.24004581685E+02  0.00000000000E+00 0.  1.
</event>
<event>
 7    1  0.2505412E-009  0.4778727E+02  0.7816164E-02  0.1312668E+00
        -11   -1    0    0    0    0  0.00000000000E+00  0.00000000000E+00  0.45593999997E+02  0.45594000000E+02  0.51100000000E-03 0.  1.
         11   -1    0    0    0    0 -0.00000000000E+00 -0.00000000000E+00 -0.45593999997E+02  0.45594000000E+02  0.51100000000E-03 0. -1.
    9900012    2    1    2    0    0  0.14558517649E+02 -0.40845911318E+02 -0.18122989200E+01  0.47787270341E+02  0.19999996795E+02 0.  0.
        -12    1    1    2    0    0 -0.14558517649E+02  0.40845911318E+02  0.18122989200E+01  0.43400729659E+02  0.00000000000E+00 0.  1.
         11    1    3    3    0    0  0.33295411145E+01 -0.45146386853E+01 -0.48935222514E+01  0.74440826686E+01  0.51100000000E-03 0. -1.
        -11    1    3    3    0    0 -0.13961712492E+01 -0.77851015202E+01  0.44957170666E+01  0.90977234538E+01  0.51100000000E-03 0.  1.
         12    1    3    3    0    0  0.12625147783E+02 -0.28546171112E+02 -0.14144937353E+01  0.31245464219E+02  0.00000000000E+00 0. -1.
</event>
<event>
 7    1  0.2505412E-009  0.4778727E+02  0.7816164E-02  0.1312668E+00
        -11   -1    0    0    0    0  0.00000000000E+00  0.00000000000E+00  0.45593999997E+02  0.45594000000E+02  0.51100000000E-03 0.  1.
         11   -1    0    0    0    0 -0.00000000000E+00 -0.00000000000E+00 -0.45593999997E+02  0.45594000000E+02  0.51100000000E-03 0. -1.
    9900012    2    1    2    0    0  0.78283880691E-01  0.13957710212E+02 -0.41095005014E+02  0.47787271437E+02  0.20000001790E+02 0.  0.
        -12    1    1    2    0    0 -0.78283880691E-01 -0.13957710212E+02  0.41095005014E+02  0.43400728563E+02  0.00000000000E+00 0.  1.
         11    1    3    3    0    0  0.53938647175E+01 -0.16138168123E+01 -0.46317315605E+01  0.72904813835E+01  0.51100000000E-03 0.  1.
        -11    1    3    3    0    0  0.94864138778E+00  0.65962108344E+01 -0.14448345577E+02  0.15911147288E+02  0.51100000000E-03 0. -1.
        -12    1    3    3    0    0 -0.62642222246E+01  0.89753161897E+01 -0.22014927876E+02  0.24585642765E+02  0.00000000000E+00 0.  1.
</event>
<event>
 7    1  0.2505412E-009  0.4778726E+02  0.7816164E-02  0.1312668E+00
        -11   -1    0    0    0    0  0.00000000000E+00  0.00000000000E+00  0.45593999997E+02  0.45594000000E+02  0.51100000000E-03 0.  1.
         11   -1    0    0    0    0 -0.00000000000E+00 -0.00000000000E+00 -0.45593999997E+02  0.45594000000E+02  0.51100000000E-03 0. -1.
    9900012    2    1    2    0    0  0.30902837991E+02 -0.33536835664E+01 -0.30288470533E+02  0.47787262258E+02  0.19999959940E+02 0.  0.
        -12    1    1    2    0    0 -0.30902837991E+02  0.33536835664E+01  0.30288470533E+02  0.43400737742E+02  0.00000000000E+00 0.  1.
         11    1    3    3    0    0  0.18732317405E+02 -0.31852089630E+01 -0.28893041664E+02  0.34581109415E+02  0.51100000000E-03 0. -1.
        -11    1    3    3    0    0  0.88329818302E+01 -0.15385283791E+01 -0.27095967573E+01  0.93664589058E+01  0.51100000000E-03 0.  1.
        -12    1    3    3    0    0  0.33375387549E+01  0.13700537758E+01  0.13141678891E+01  0.38396939370E+01  0.00000000000E+00 0.  1.
</event>
<event>
 7    1  0.2505412E-009  0.4778727E+02  0.7816164E-02  0.1312668E+00
        -11   -1    0    0    0    0  0.00000000000E+00  0.00000000000E+00  0.45593999997E+02  0.45594000000E+02  0.51100000000E-03 0.  1.
         11   -1    0    0    0    0 -0.00000000000E+00 -0.00000000000E+00 -0.45593999997E+02  0.45594000000E+02  0.51100000000E-03 0. -1.
    9900012    2    1    2    0    0 -0.25834068531E+02 -0.26413826679E+02 -0.22771333591E+02  0.47787274542E+02  0.20000015948E+02 0.  0.
        -12    1    1    2    0    0  0.25834068531E+02  0.26413826679E+02  0.22771333591E+02  0.43400725458E+02  0.00000000000E+00 0.  1.
         11    1    3    3    0    0 -0.85633484756E+01 -0.14123512721E+00 -0.11266019274E+02  0.14151822321E+02  0.51100000000E-03 0. -1.
        -11    1    3    3    0    0 -0.35083138708E+01 -0.37090147556E+01 -0.10451556892E+01  0.52112769403E+01  0.51100000000E-03 0.  1.
         12    1    3    3    0    0 -0.13762406185E+02 -0.22563576797E+02 -0.10460158629E+02  0.28424175281E+02  0.00000000000E+00 0. -1.
</event>
<event>
 7    1  0.2505412E-009  0.4778727E+02  0.7816164E-02  0.1312668E+00
        -11   -1    0    0    0    0  0.00000000000E+00  0.00000000000E+00  0.45593999997E+02  0.45594000000E+02  0.51100000000E-03 0.  1.
         11   -1    0    0    0    0 -0.00000000000E+00 -0.00000000000E+00 -0.45593999997E+02  0.45594000000E+02  0.51100000000E-03 0. -1.
    9900012    2    1    2    0    0 -0.10142319083E+01  0.17236607517E+01 -0.43354626739E+02  0.47787270370E+02  0.19999996926E+02 0.  0.
        -12    1    1    2    0    0  0.10142319083E+01 -0.17236607517E+01  0.43354626739E+02  0.43400729630E+02  0.00000000000E+00 0.  1.
         11    1    3    3    0    0  0.12276249763E+01  0.58004172796E+01 -0.55128709419E+01  0.80959032840E+01  0.51100000000E-03 0. -1.
        -11    1    3    3    0    0  0.12339081863E+01  0.30704265615E+01 -0.18274664353E+02  0.18571844447E+02  0.51100000000E-03 0.  1.
        -12    1    3    3    0    0 -0.34757650710E+01 -0.71471830894E+01 -0.19567091444E+02  0.21119522639E+02  0.00000000000E+00 0.  1.
</event>
<event>
 7    1  0.2505412E-009  0.4778727E+02  0.7816164E-02  0.1312668E+00
        -11   -1    0    0    0    0  0.00000000000E+00  0.00000000000E+00  0.45593999997E+02  0.45594000000E+02  0.51100000000E-03 0. -1.
         11   -1    0    0    0    0 -0.00000000000E+00 -0.00000000000E+00 -0.45593999997E+02  0.45594000000E+02  0.51100000000E-03 0.  1.
    9900012    2    1    2    0    0  0.39232934022E+01  0.17642166580E+02  0.39458651680E+02  0.47787268841E+02  0.19999989953E+02 0.  0.
        -12    1    1    2    0    0 -0.39232934022E+01 -0.17642166580E+02 -0.39458651680E+02  0.43400731159E+02  0.00000000000E+00 0.  1.
         11    1    3    3    0    0 -0.13792204111E+01 -0.25918613431E+01  0.54729926475E+01  0.62107683055E+01  0.51100000000E-03 0. -1.
        -11    1    3    3    0    0  0.55348071388E+01  0.86750462344E+01  0.76735137330E+01  0.12836406448E+02  0.51100000000E-03 0.  1.
        -12    1    3    3    0    0 -0.23229332556E+00  0.11558981689E+02  0.26312145299E+02  0.28740094087E+02  0.00000000000E+00 0.  1.
</event>
<event>
 7    1  0.2505412E-009  0.4778727E+02  0.7816164E-02  0.1312668E+00
        -11   -1    0    0    0    0  0.00000000000E+00  0.00000000000E+00  0.45593999997E+02  0.45594000000E+02  0.51100000000E-03 0.  1.
         11   -1    0    0    0    0 -0.00000000000E+00 -0.00000000000E+00 -0.45593999997E+02  0.45594000000E+02  0.51100000000E-03 0. -1.
    9900012    2    1    2    0    0 -0.47125800591E+01  0.79917574234E+01 -0.42397488653E+02  0.47787266808E+02  0.19999980686E+02 0.  0.
        -12    1    1    2    0    0  0.47125800591E+01 -0.79917574234E+01  0.42397488653E+02  0.43400733192E+02  0.00000000000E+00 0.  1.
         11    1    3    3    0    0  0.46944771506E+01  0.90765626283E+01 -0.11189662775E+02  0.15153569155E+02  0.51100000000E-03 0. -1.
        -11    1    3    3    0    0 -0.26925463139E+01 -0.22800488373E+00 -0.10783886400E+02  0.11117283753E+02  0.51100000000E-03 0.  1.
         12    1    3    3    0    0 -0.67145108958E+01 -0.85680032118E+00 -0.20423939478E+02  0.21516413901E+02  0.00000000000E+00 0. -1.
</event>
<event>
 7    1  0.2505412E-009  0.4778727E+02  0.7816164E-02  0.1312668E+00
        -11   -1    0    0    0    0  0.00000000000E+00  0.00000000000E+00  0.45593999997E+02  0.45594000000E+02  0.51100000000E-03 0.  1.
         11   -1    0    0    0    0 -0.00000000000E+00 -0.00000000000E+00 -0.45593999997E+02  0.45594000000E+02  0.51100000000E-03 0. -1.
    9900012    2    1    2    0    0 -0.24636096483E+02  0.13655996832E+02 -0.33018170653E+02  0.47787273132E+02  0.20000009518E+02 0.  0.
        -12    1    1    2    0    0  0.24636096483E+02 -0.13655996832E+02  0.33018170653E+02  0.43400726868E+02  0.00000000000E+00 0.  1.
         11    1    3    3    0    0 -0.39350108363E+01  0.42150422556E+01 -0.14135954008E+02  0.15266829647E+02  0.51100000000E-03 0. -1.
        -11    1    3    3    0    0 -0.10884655264E+01  0.31833950943E+01 -0.91506331906E+01  0.97495050941E+01  0.51100000000E-03 0.  1.
         12    1    3    3    0    0 -0.19612620121E+02  0.62575594819E+01 -0.97315834543E+01  0.22770938391E+02  0.00000000000E+00 0. -1.
</event>
<event>
 7    1  0.2505412E-009  0.4778727E+02  0.7816164E-02  0.1312668E+00
        -11   -1    0    0    0    0  0.00000000000E+00  0.00000000000E+00  0.45593999997E+02  0.45594000000E+02  0.51100000000E-03 0. -1.
         11   -1    0    0    0    0 -0.00000000000E+00 -0.00000000000E+00 -0.45593999997E+02  0.45594000000E+02  0.51100000000E-03 0.  1.
    9900012    2    1    2    0    0  0.34467832905E+02 -0.19620031462E+02  0.17625156768E+02  0.47787270849E+02  0.19999999109E+02 0.  0.
        -12    1    1    2    0    0 -0.34467832905E+02  0.19620031462E+02 -0.17625156768E+02  0.43400729151E+02  0.00000000000E+00 0.  1.
         11    1    3    3    0    0  0.19757020978E+02 -0.10570726185E+02  0.10730959031E+02  0.24844186684E+02  0.51100000000E-03 0. -1.
        -11    1    3    3    0    0  0.13457704382E+02 -0.32500124995E+01  0.91506187275E+01  0.16595367180E+02  0.51100000000E-03 0.  1.
        -12    1    3    3    0    0  0.12531075456E+01 -0.57992927770E+01 -0.22564209911E+01  0.63477169851E+01  0.00000000000E+00 0.  1.
</event>
<event>
 7    1  0.2505412E-009  0.4778728E+02  0.7816164E-02  0.1312668E+00
        -11   -1    0    0    0    0  0.00000000000E+00  0.00000000000E+00  0.45593999997E+02  0.45594000000E+02  0.51100000000E-03 0. -1.
         11   -1    0    0    0    0 -0.00000000000E+00 -0.00000000000E+00 -0.45593999997E+02  0.45594000000E+02  0.51100000000E-03 0.  1.
    9900012    2    1    2    0    0  0.21263777791E+02  0.12786074242E+01  0.37813223039E+02  0.47787275127E+02  0.20000018614E+02 0.  0.
        -12    1    1    2    0    0 -0.21263777791E+02 -0.12786074242E+01 -0.37813223039E+02  0.43400724873E+02  0.00000000000E+00 0.  1.
         11    1    3    3    0    0  0.87121840820E+00  0.31390427816E+01  0.17332868341E+02  0.17636352693E+02  0.51100000000E-03 0. -1.
        -11    1    3    3    0    0  0.49445222298E+01  0.17479052872E+01  0.15839707760E+01  0.54783607634E+01  0.51100000000E-03 0.  1.
         12    1    3    3    0    0  0.15448037153E+02 -0.36083406446E+01  0.18896383922E+02  0.24672561671E+02  0.00000000000E+00 0. -1.
</event>
<event>
 7    1  0.2505412E-009  0.4778727E+02  0.7816164E-02  0.1312668E+00
        -11   -1    0    0    0    0  0.00000000000E+00  0.00000000000E+00  0.45593999997E+02  0.45594000000E+02  0.51100000000E-03 0.  1.
         11   -1    0    0    0    0 -0.00000000000E+00 -0.00000000000E+00 -0.45593999997E+02  0.45594000000E+02  0.51100000000E-03 0. -1.
    9900012    2    1    2    0    0 -0.21698862161E+02 -0.17831080495E+02 -0.33088295128E+02  0.47787270454E+02  0.19999997306E+02 0.  0.
        -12    1    1    2    0    0  0.21698862161E+02  0.17831080495E+02  0.33088295128E+02  0.43400729546E+02  0.00000000000E+00 0.  1.
         11    1    3    3    0    0 -0.54575667397E+01 -0.84327197059E+01 -0.59501839601E+01  0.11674779903E+02  0.51100000000E-03 0. -1.
        -11    1    3    3    0    0 -0.54521683580E+00 -0.23960192885E+01 -0.14682032178E+02  0.14886243279E+02  0.51100000000E-03 0.  1.
        -12    1    3    3    0    0 -0.15696078585E+02 -0.70023415006E+01 -0.12456078990E+02  0.21226247272E+02  0.00000000000E+00 0.  1.
</event>
<event>
 7    1  0.2505412E-009  0.4778727E+02  0.7816164E-02  0.1312668E+00
        -11   -1    0    0    0    0  0.00000000000E+00  0.00000000000E+00  0.45593999997E+02  0.45594000000E+02  0.51100000000E-03 0.  1.
         11   -1    0    0    0    0 -0.00000000000E+00 -0.00000000000E+00 -0.45593999997E+02  0.45594000000E+02  0.51100000000E-03 0. -1.
    9900012    2    1    2    0    0  0.24605077226E+02 -0.19945514711E+02 -0.29671363132E+02  0.47787272212E+02  0.20000005325E+02 0.  0.
        -12    1    1    2    0    0 -0.24605077226E+02  0.19945514711E+02  0.29671363132E+02  0.43400727788E+02  0.00000000000E+00 0.  1.
         11    1    3    3    0    0  0.48659022085E+01  0.26143201446E+01 -0.60506780174E+01  0.81928248396E+01  0.51100000000E-03 0. -1.
        -11    1    3    3    0    0  0.67312021863E+00 -0.69208433314E+01 -0.35953371964E+01  0.78280018564E+01  0.51100000000E-03 0.  1.
         12    1    3    3    0    0  0.19066054799E+02 -0.15638991524E+02 -0.20025347919E+02  0.31766445516E+02  0.00000000000E+00 0. -1.
</event>
<event>
 7    1  0.2505412E-009  0.4778727E+02  0.7816164E-02  0.1312668E+00
        -11   -1    0    0    0    0  0.00000000000E+00  0.00000000000E+00  0.45593999997E+02  0.45594000000E+02  0.51100000000E-03 0.  1.
         11   -1    0    0    0    0 -0.00000000000E+00 -0.00000000000E+00 -0.45593999997E+02  0.45594000000E+02  0.51100000000E-03 0. -1.
    9900012    2    1    2    0    0 -0.55164791010E+01  0.42601350872E+02 -0.61900621054E+01  0.47787268362E+02  0.19999987770E+02 0.  0.
        -12    1    1    2    0    0  0.55164791010E+01 -0.42601350872E+02  0.61900621054E+01  0.43400731638E+02  0.00000000000E+00 0.  1.
         11    1    3    3    0    0 -0.15978619618E+01  0.21081055207E+02 -0.36542807844E+01  0.21455018522E+02  0.51100000000E-03 0. -1.
        -11    1    3    3    0    0 -0.60969701841E+01  0.22408293283E+01  0.11119047559E+01  0.65901968067E+01  0.51100000000E-03 0.  1.
        -12    1    3    3    0    0  0.21783530449E+01  0.19279466338E+02 -0.36476860769E+01  0.19742053033E+02  0.00000000000E+00 0.  1.
</event>
<event>
 7    1  0.2505412E-009  0.4778727E+02  0.7816164E-02  0.1312668E+00
        -11   -1    0    0    0    0  0.00000000000E+00  0.00000000000E+00  0.45593999997E+02  0.45594000000E+02  0.51100000000E-03 0.  1.
         11   -1    0    0    0    0 -0.00000000000E+00 -0.00000000000E+00 -0.45593999997E+02  0.45594000000E+02  0.51100000000E-03 0. -1.
    9900012    2    1    2    0    0  0.39937901680E+02 -0.10783522909E+02 -0.13126422509E+02  0.47787270457E+02  0.19999997323E+02 0.  0.
        -12    1    1    2    0    0 -0.39937901680E+02  0.10783522909E+02  0.13126422509E+02  0.43400729543E+02  0.00000000000E+00 0.  1.
         11    1    3    3    0    0  0.22722909378E+02 -0.12029914458E+02 -0.11488172080E+02  0.28160744849E+02  0.51100000000E-03 0. -1.
        -11    1    3    3    0    0 -0.11173326303E+01  0.88100482677E-01  0.28718296603E+00  0.11570083055E+01  0.51100000000E-03 0.  1.
         12    1    3    3    0    0  0.18332324933E+02  0.11582910663E+01 -0.19254333943E+01  0.18469517302E+02  0.00000000000E+00 0. -1.
</event>
<event>
 7    1  0.2505412E-009  0.4778727E+02  0.7816164E-02  0.1312668E+00
        -11   -1    0    0    0    0  0.00000000000E+00  0.00000000000E+00  0.45593999997E+02  0.45594000000E+02  0.51100000000E-03 0.  1.
         11   -1    0    0    0    0 -0.00000000000E+00 -0.00000000000E+00 -0.45593999997E+02  0.45594000000E+02  0.51100000000E-03 0. -1.
    9900012    2    1    2    0    0 -0.27516368440E+01 -0.22466701699E+02 -0.37031058084E+02  0.47787268976E+02  0.19999990570E+02 0.  0.
        -12    1    1    2    0    0  0.27516368440E+01  0.22466701699E+02  0.37031058084E+02  0.43400731024E+02  0.00000000000E+00 0.  1.
         11    1    3    3    0    0 -0.26377779733E+01 -0.91846985349E+01 -0.55207221027E+01  0.11036074148E+02  0.51100000000E-03 0. -1.
        -11    1    3    3    0    0  0.39739527875E+00  0.14530193539E+01  0.43470219315E+00  0.15678502825E+01  0.51100000000E-03 0.  1.
         12    1    3    3    0    0 -0.51125414949E+00 -0.14735022518E+02 -0.31945038175E+02  0.35183344545E+02  0.00000000000E+00 0. -1.
</event>
<event>
 7    1  0.2505412E-009  0.4778727E+02  0.7816164E-02  0.1312668E+00
        -11   -1    0    0    0    0  0.00000000000E+00  0.00000000000E+00  0.45593999997E+02  0.45594000000E+02  0.51100000000E-03 0.  1.
         11   -1    0    0    0    0 -0.00000000000E+00 -0.00000000000E+00 -0.45593999997E+02  0.45594000000E+02  0.51100000000E-03 0. -1.
    9900012    2    1    2    0    0 -0.11869627800E+02 -0.39682146211E+02 -0.12963889243E+02  0.47787271708E+02  0.20000003024E+02 0.  0.
        -12    1    1    2    0    0  0.11869627800E+02  0.39682146211E+02  0.12963889243E+02  0.43400728292E+02  0.00000000000E+00 0.  1.
         11    1    3    3    0    0 -0.38109811466E+01 -0.82812300240E+01 -0.68688685981E+01  0.11414188718E+02  0.51100000000E-03 0. -1.
        -11    1    3    3    0    0  0.28454607472E+01 -0.19023039876E+02 -0.17468476970E+01  0.19313833646E+02  0.51100000000E-03 0.  1.
         12    1    3    3    0    0 -0.10904107401E+02 -0.12377876311E+02 -0.43481729478E+01  0.17059249343E+02  0.00000000000E+00 0. -1.
</event>
<event>
 7    1  0.2505412E-009  0.4778727E+02  0.7816164E-02  0.1312668E+00
        -11   -1    0    0    0    0  0.00000000000E+00  0.00000000000E+00  0.45593999997E+02  0.45594000000E+02  0.51100000000E-03 0.  1.
         11   -1    0    0    0    0 -0.00000000000E+00 -0.00000000000E+00 -0.45593999997E+02  0.45594000000E+02  0.51100000000E-03 0. -1.
    9900012    2    1    2    0    0 -0.24737926462E+01  0.41802658319E+02 -0.11403560577E+02  0.47787273204E+02  0.20000009845E+02 0.  0.
        -12    1    1    2    0    0  0.24737926462E+01 -0.41802658319E+02  0.11403560577E+02  0.43400726796E+02  0.00000000000E+00 0.  1.
         11    1    3    3    0    0 -0.78443570872E+01  0.20458673969E+02 -0.68901168595E+01  0.22968782930E+02  0.51100000000E-03 0. -1.
        -11    1    3    3    0    0  0.28415688581E+01 -0.65469689613E-01 -0.67064474595E+00  0.29203706087E+01  0.51100000000E-03 0.  1.
         12    1    3    3    0    0  0.25289955829E+01  0.21409454039E+02 -0.38427989715E+01  0.21898119665E+02  0.00000000000E+00 0. -1.
</event>
<event>
 7    1  0.2505412E-009  0.4778727E+02  0.7816164E-02  0.1312668E+00
        -11   -1    0    0    0    0  0.00000000000E+00  0.00000000000E+00  0.45593999997E+02  0.45594000000E+02  0.51100000000E-03 0. -1.
         11   -1    0    0    0    0 -0.00000000000E+00 -0.00000000000E+00 -0.45593999997E+02  0.45594000000E+02  0.51100000000E-03 0.  1.
    9900012    2    1    2    0    0 -0.30598750849E+01 -0.13877815437E+02  0.41008128167E+02  0.47787272211E+02  0.20000005320E+02 0.  0.
        -12    1    1    2    0    0  0.30598750849E+01  0.13877815437E+02 -0.41008128167E+02  0.43400727789E+02  0.00000000000E+00 0.  1.
         11    1    3    3    0    0  0.34213237113E+01 -0.61106798291E+01  0.11881401946E+02  0.13791793806E+02  0.51100000000E-03 0. -1.
        -11    1    3    3    0    0 -0.38749513058E+01 -0.98565489116E+01  0.99555585497E+01  0.14535472141E+02  0.51100000000E-03 0.  1.
         12    1    3    3    0    0 -0.26062474903E+01  0.20894133037E+01  0.19171167671E+02  0.19460006264E+02  0.00000000000E+00 0. -1.
</event>
<event>
 7    1  0.2505412E-009  0.4778725E+02  0.7816164E-02  0.1312668E+00
        -11   -1    0    0    0    0  0.00000000000E+00  0.00000000000E+00  0.45593999997E+02  0.45594000000E+02  0.51100000000E-03 0. -1.
         11   -1    0    0    0    0 -0.00000000000E+00 -0.00000000000E+00 -0.45593999997E+02  0.45594000000E+02  0.51100000000E-03 0.  1.
    9900012    2    1    2    0    0 -0.19113687677E+00 -0.30563637027E+02  0.30813185751E+02  0.47787252797E+02  0.19999916803E+02 0.  0.
        -12    1    1    2    0    0  0.19113687677E+00  0.30563637027E+02 -0.30813185751E+02  0.43400747203E+02  0.00000000000E+00 0.  1.
         11    1    3    3    0    0  0.23180080259E+01  0.91472726348E+00  0.14998341313E+01  0.29085030269E+01  0.51100000000E-03 0. -1.
        -11    1    3    3    0    0  0.58827411805E+00 -0.35106179197E+01 -0.81710063565E+00  0.36521443462E+01  0.51100000000E-03 0.  1.
         12    1    3    3    0    0 -0.30974190207E+01 -0.27967746371E+02  0.30130452256E+02  0.41226605424E+02  0.00000000000E+00 0. -1.
</event>
<event>
 7    1  0.2505412E-009  0.4778727E+02  0.7816164E-02  0.1312668E+00
        -11   -1    0    0    0    0  0.00000000000E+00  0.00000000000E+00  0.45593999997E+02  0.45594000000E+02  0.51100000000E-03 0. -1.
         11   -1    0    0    0    0 -0.00000000000E+00 -0.00000000000E+00 -0.45593999997E+02  0.45594000000E+02  0.51100000000E-03 0.  1.
    9900012    2    1    2    0    0 -0.29614555072E+02  0.59801742102E+01  0.31158295540E+02  0.47787265713E+02  0.19999975692E+02 0.  0.
        -12    1    1    2    0    0  0.29614555072E+02 -0.59801742102E+01 -0.31158295540E+02  0.43400734287E+02  0.00000000000E+00 0.  1.
         11    1    3    3    0    0 -0.26647627316E+02  0.78329436562E+01  0.26063298994E+02  0.38088667640E+02  0.51100000000E-03 0. -1.
        -11    1    3    3    0    0 -0.41391703599E+01 -0.37818139632E+01  0.21888865002E+01  0.60188098900E+01  0.51100000000E-03 0.  1.
        -12    1    3    3    0    0  0.11722426038E+01  0.19290445172E+01  0.29061100463E+01  0.36797881832E+01  0.00000000000E+00 0.  1.
</event>
<event>
 7    1  0.2505412E-009  0.4778727E+02  0.7816164E-02  0.1312668E+00
        -11   -1    0    0    0    0  0.00000000000E+00  0.00000000000E+00  0.45593999997E+02  0.45594000000E+02  0.51100000000E-03 0.  1.
         11   -1    0    0    0    0 -0.00000000000E+00 -0.00000000000E+00 -0.45593999997E+02  0.45594000000E+02  0.51100000000E-03 0. -1.
    9900012    2    1    2    0    0  0.23793828194E+02 -0.16267465657E+02 -0.32447597678E+02  0.47787270811E+02  0.19999998936E+02 0.  0.
        -12    1    1    2    0    0 -0.23793828194E+02  0.16267465657E+02  0.32447597678E+02  0.43400729189E+02  0.00000000000E+00 0.  1.
         11    1    3    3    0    0  0.15123479420E+02 -0.10998831789E+02 -0.16099700912E+02  0.24675783680E+02  0.51100000000E-03 0. -1.
        -11    1    3    3    0    0  0.32712758493E+00  0.29421082040E+00  0.20831796261E+01  0.21291336452E+01  0.51100000000E-03 0.  1.
         12    1    3    3    0    0  0.83432211894E+01 -0.55628446878E+01 -0.18431076392E+02  0.20982353486E+02  0.00000000000E+00 0. -1.
</event>
<event>
 7    1  0.2505412E-009  0.4778727E+02  0.7816164E-02  0.1312668E+00
        -11   -1    0    0    0    0  0.00000000000E+00  0.00000000000E+00  0.45593999997E+02  0.45594000000E+02  0.51100000000E-03 0.  1.
         11   -1    0    0    0    0 -0.00000000000E+00 -0.00000000000E+00 -0.45593999997E+02  0.45594000000E+02  0.51100000000E-03 0. -1.
    9900012    2    1    2    0    0 -0.13829047653E+02  0.30507055900E+02 -0.27598917505E+02  0.47787271134E+02  0.20000000406E+02 0.  0.
        -12    1    1    2    0    0  0.13829047653E+02 -0.30507055900E+02  0.27598917505E+02  0.43400728866E+02  0.00000000000E+00 0.  1.
         11    1    3    3    0    0 -0.15467009987E+01  0.10913506739E+02 -0.47065061625E+01  0.11985329109E+02  0.51100000000E-03 0. -1.
        -11    1    3    3    0    0 -0.56721534000E+01  0.12695347349E+02 -0.22235637972E+02  0.26225345847E+02  0.51100000000E-03 0.  1.
        -12    1    3    3    0    0 -0.66101932540E+01  0.68982018118E+01 -0.65677337067E+00  0.95765961778E+01  0.00000000000E+00 0.  1.
</event>
<event>
 7    1  0.2505412E-009  0.4778727E+02  0.7816164E-02  0.1312668E+00
        -11   -1    0    0    0    0  0.00000000000E+00  0.00000000000E+00  0.45593999997E+02  0.45594000000E+02  0.51100000000E-03 0.  1.
         11   -1    0    0    0    0 -0.00000000000E+00 -0.00000000000E+00 -0.45593999997E+02  0.45594000000E+02  0.51100000000E-03 0. -1.
    9900012    2    1    2    0    0  0.16775391183E+02 -0.34287801178E+02  0.20653235887E+02  0.47787271762E+02  0.20000003270E+02 0.  0.
        -12    1    1    2    0    0 -0.16775391183E+02  0.34287801178E+02 -0.20653235887E+02  0.43400728238E+02  0.00000000000E+00 0.  1.
         11    1    3    3    0    0  0.34565160929E+01  0.83660819512E+00  0.12615927401E+01  0.37734643599E+01  0.51100000000E-03 0. -1.
        -11    1    3    3    0    0 -0.75419332667E+00  0.58726210350E+00  0.12069255325E+01  0.15395953541E+01  0.51100000000E-03 0.  1.
        -12    1    3    3    0    0  0.14073068417E+02 -0.35711671477E+02  0.18184717615E+02  0.42474212048E+02  0.00000000000E+00 0.  1.
</event>
<event>
 7    1  0.2505412E-009  0.4778727E+02  0.7816164E-02  0.1312668E+00
        -11   -1    0    0    0    0  0.00000000000E+00  0.00000000000E+00  0.45593999997E+02  0.45594000000E+02  0.51100000000E-03 0.  1.
         11   -1    0    0    0    0 -0.00000000000E+00 -0.00000000000E+00 -0.45593999997E+02  0.45594000000E+02  0.51100000000E-03 0. -1.
    9900012    2    1    2    0    0 -0.28025192693E+02 -0.27492944097E+02 -0.18502703760E+02  0.47787269050E+02  0.19999990905E+02 0.  0.
        -12    1    1    2    0    0  0.28025192693E+02  0.27492944097E+02  0.18502703760E+02  0.43400730950E+02  0.00000000000E+00 0.  1.
         11    1    3    3    0    0 -0.78807145115E+01 -0.10496712678E+02 -0.40632370565E+01  0.13740325102E+02  0.51100000000E-03 0. -1.
        -11    1    3    3    0    0 -0.54198956059E+01  0.24987053843E+01 -0.52380441372E+01  0.79407747494E+01  0.51100000000E-03 0.  1.
        -12    1    3    3    0    0 -0.14724582576E+02 -0.19494936803E+02 -0.92014225664E+01  0.26106169198E+02  0.00000000000E+00 0.  1.
</event>
<event>
 7    1  0.2505412E-009  0.4778727E+02  0.7816164E-02  0.1312668E+00
        -11   -1    0    0    0    0  0.00000000000E+00  0.00000000000E+00  0.45593999997E+02  0.45594000000E+02  0.51100000000E-03 0.  1.
         11   -1    0    0    0    0 -0.00000000000E+00 -0.00000000000E+00 -0.45593999997E+02  0.45594000000E+02  0.51100000000E-03 0. -1.
    9900012    2    1    2    0    0 -0.11724176690E+02 -0.35182088360E+02 -0.22547461643E+02  0.47787266285E+02  0.19999978302E+02 0.  0.
        -12    1    1    2    0    0  0.11724176690E+02  0.35182088360E+02  0.22547461643E+02  0.43400733715E+02  0.00000000000E+00 0.  1.
         11    1    3    3    0    0 -0.77152839331E+01 -0.22687823024E+02 -0.17027703717E+02  0.29397374269E+02  0.51100000000E-03 0. -1.
        -11    1    3    3    0    0 -0.57394964855E+01 -0.64492062537E+01 -0.78651494967E+01  0.11678812357E+02  0.51100000000E-03 0.  1.
        -12    1    3    3    0    0  0.17306037290E+01 -0.60450590823E+01  0.23453915711E+01  0.67110796596E+01  0.00000000000E+00 0.  1.
</event>
<event>
 7    1  0.2505412E-009  0.4778727E+02  0.7816164E-02  0.1312668E+00
        -11   -1    0    0    0    0  0.00000000000E+00  0.00000000000E+00  0.45593999997E+02  0.45594000000E+02  0.51100000000E-03 0.  1.
         11   -1    0    0    0    0 -0.00000000000E+00 -0.00000000000E+00 -0.45593999997E+02  0.45594000000E+02  0.51100000000E-03 0. -1.
    9900012    2    1    2    0    0 -0.18715250357E+02  0.13003725725E+02 -0.36935969179E+02  0.47787270768E+02  0.19999998740E+02 0.  0.
        -12    1    1    2    0    0  0.18715250357E+02 -0.13003725725E+02  0.36935969179E+02  0.43400729232E+02  0.00000000000E+00 0.  1.
         11    1    3    3    0    0 -0.13979327335E+02  0.40053140608E+01 -0.15817243133E+02  0.21486026018E+02  0.51100000000E-03 0. -1.
        -11    1    3    3    0    0 -0.29977124576E+01 -0.63437197048E+00 -0.44138704039E-01  0.30644177688E+01  0.51100000000E-03 0.  1.
        -12    1    3    3    0    0 -0.17382105651E+01  0.96327836348E+01 -0.21074587342E+02  0.23236826982E+02  0.00000000000E+00 0.  1.
</event>
<event>
 7    1  0.2505412E-009  0.4778730E+02  0.7816164E-02  0.1312668E+00
        -11   -1    0    0    0    0  0.00000000000E+00  0.00000000000E+00  0.45593999997E+02  0.45594000000E+02  0.51100000000E-03 0.  1.
         11   -1    0    0    0    0 -0.00000000000E+00 -0.00000000000E+00 -0.45593999997E+02  0.45594000000E+02  0.51100000000E-03 0. -1.
    9900012    2    1    2    0    0 -0.39500866607E+02  0.78972987149E+01 -0.16153494327E+02  0.47787295298E+02  0.20000110580E+02 0.  0.
        -12    1    1    2    0    0  0.39500866607E+02 -0.78972987149E+01  0.16153494327E+02  0.43400704702E+02  0.00000000000E+00 0.  1.
         11    1    3    3    0    0 -0.79914761883E+01 -0.36270273222E+01 -0.85936484220E+00  0.88180228542E+01  0.51100000000E-03 0. -1.
        -11    1    3    3    0    0 -0.27610847172E+02  0.77570166797E+01 -0.78032336496E+01  0.29722392988E+02  0.51100000000E-03 0.  1.
        -12    1    3    3    0    0 -0.38985432470E+01  0.37673093574E+01 -0.74908958354E+01  0.92468794552E+01  0.00000000000E+00 0.  1.
</event>
<event>
 7    1  0.2505412E-009  0.4778727E+02  0.7816164E-02  0.1312668E+00
        -11   -1    0    0    0    0  0.00000000000E+00  0.00000000000E+00  0.45593999997E+02  0.45594000000E+02  0.51100000000E-03 0. -1.
         11   -1    0    0    0    0 -0.00000000000E+00 -0.00000000000E+00 -0.45593999997E+02  0.45594000000E+02  0.51100000000E-03 0.  1.
    9900012    2    1    2    0    0  0.41476065813E+02  0.95915478083E+01  0.84475665750E+01  0.47787271829E+02  0.20000003578E+02 0.  0.
        -12    1    1    2    0    0 -0.41476065813E+02 -0.95915478083E+01 -0.84475665750E+01  0.43400728171E+02  0.00000000000E+00 0.  1.
         11    1    3    3    0    0  0.35511429994E+02  0.60469152082E+01  0.97564491433E+01  0.37320438688E+02  0.51100000000E-03 0. -1.
        -11    1    3    3    0    0  0.54619750887E+00  0.17550834731E+00  0.28129011464E+01  0.28708096452E+01  0.51100000000E-03 0.  1.
         12    1    3    3    0    0  0.54184383108E+01  0.33691242528E+01 -0.41217837147E+01  0.75960234958E+01  0.00000000000E+00 0. -1.
</event>
<event>
 7    1  0.2505412E-009  0.4778725E+02  0.7816164E-02  0.1312668E+00
        -11   -1    0    0    0    0  0.00000000000E+00  0.00000000000E+00  0.45593999997E+02  0.45594000000E+02  0.51100000000E-03 0. -1.
         11   -1    0    0    0    0 -0.00000000000E+00 -0.00000000000E+00 -0.45593999997E+02  0.45594000000E+02  0.51100000000E-03 0.  1.
    9900012    2    1    2    0    0 -0.70431570211E+01 -0.16825183892E+02  0.39381880532E+02  0.47787246687E+02  0.19999888947E+02 0.  0.
        -12    1    1    2    0    0  0.70431570211E+01  0.16825183892E+02 -0.39381880532E+02  0.43400753313E+02  0.00000000000E+00 0.  1.
         11    1    3    3    0    0 -0.30303243340E+00 -0.61924100388E+00 -0.37502002625E+00  0.78481103317E+00  0.51100000000E-03 0.  1.
        -11    1    3    3    0    0 -0.10708337347E+02 -0.17811742747E+02  0.32494178402E+02  0.38571988524E+02  0.51100000000E-03 0. -1.
         12    1    3    3    0    0  0.39682127595E+01  0.16057998586E+01  0.72627221564E+01  0.84304471299E+01  0.00000000000E+00 0. -1.
</event>
<event>
 7    1  0.2505412E-009  0.4778726E+02  0.7816164E-02  0.1312668E+00
        -11   -1    0    0    0    0  0.00000000000E+00  0.00000000000E+00  0.45593999997E+02  0.45594000000E+02  0.51100000000E-03 0.  1.
         11   -1    0    0    0    0 -0.00000000000E+00 -0.00000000000E+00 -0.45593999997E+02  0.45594000000E+02  0.51100000000E-03 0. -1.
    9900012    2    1    2    0    0 -0.67730118234E-01  0.12584458965E+00 -0.43400501518E+02  0.47787263183E+02  0.19999964155E+02 0.  0.
        -12    1    1    2    0    0  0.67730118234E-01 -0.12584458965E+00  0.43400501518E+02  0.43400736817E+02  0.00000000000E+00 0.  1.
         11    1    3    3    0    0 -0.30985993256E+00 -0.26203077176E+01 -0.25606229192E+02  0.25741814222E+02  0.51100000000E-03 0.  1.
        -11    1    3    3    0    0 -0.26627700249E+01  0.40861100859E+01 -0.18180362779E+02  0.18823183335E+02  0.51100000000E-03 0. -1.
        -12    1    3    3    0    0  0.29048998392E+01 -0.13399577786E+01  0.38609045282E+00  0.32222656257E+01  0.00000000000E+00 0.  1.
</event>
<event>
 7    1  0.2505412E-009  0.4778721E+02  0.7816164E-02  0.1312668E+00
        -11   -1    0    0    0    0  0.00000000000E+00  0.00000000000E+00  0.45593999997E+02  0.45594000000E+02  0.51100000000E-03 0.  1.
         11   -1    0    0    0    0 -0.00000000000E+00 -0.00000000000E+00 -0.45593999997E+02  0.45594000000E+02  0.51100000000E-03 0. -1.
    9900012    2    1    2    0    0 -0.22237191006E+02  0.32848262253E+02  0.17610442264E+02  0.47787208837E+02  0.19999716368E+02 0.  0.
        -12    1    1    2    0    0  0.22237191006E+02 -0.32848262253E+02 -0.17610442264E+02  0.43400791163E+02  0.00000000000E+00 0.  1.
         11    1    3    3    0    0 -0.86640555416E+01  0.23164285818E+02  0.16306540951E+02  0.29623525684E+02  0.51100000000E-03 0. -1.
        -11    1    3    3    0    0 -0.69222060678E+01  0.31588143846E+01  0.38180918816E+01  0.85130999665E+01  0.51100000000E-03 0.  1.
         12    1    3    3    0    0 -0.66509293968E+01  0.65251620505E+01 -0.25141905688E+01  0.96505831866E+01  0.00000000000E+00 0. -1.
</event>
<event>
 7    1  0.2505412E-009  0.4778727E+02  0.7816164E-02  0.1312668E+00
        -11   -1    0    0    0    0  0.00000000000E+00  0.00000000000E+00  0.45593999997E+02  0.45594000000E+02  0.51100000000E-03 0.  1.
         11   -1    0    0    0    0 -0.00000000000E+00 -0.00000000000E+00 -0.45593999997E+02  0.45594000000E+02  0.51100000000E-03 0. -1.
    9900012    2    1    2    0    0 -0.34311157806E+02 -0.25791015928E+02 -0.64180207563E+01  0.47787273704E+02  0.20000012127E+02 0.  0.
        -12    1    1    2    0    0  0.34311157806E+02  0.25791015928E+02  0.64180207563E+01  0.43400726296E+02  0.00000000000E+00 0.  1.
         11    1    3    3    0    0 -0.29275656457E+02 -0.27093353534E+02 -0.42237284041E+01  0.40111765713E+02  0.51100000000E-03 0. -1.
        -11    1    3    3    0    0 -0.37876783425E+01 -0.12922368686E+01  0.85769651278E-01  0.40029664057E+01  0.51100000000E-03 0.  1.
         12    1    3    3    0    0 -0.12478230061E+01  0.25945744746E+01 -0.22800620035E+01  0.36725415856E+01  0.00000000000E+00 0. -1.
</event>
<event>
 7    1  0.2505412E-009  0.4778727E+02  0.7816164E-02  0.1312668E+00
        -11   -1    0    0    0    0  0.00000000000E+00  0.00000000000E+00  0.45593999997E+02  0.45594000000E+02  0.51100000000E-03 0. -1.
         11   -1    0    0    0    0 -0.00000000000E+00 -0.00000000000E+00 -0.45593999997E+02  0.45594000000E+02  0.51100000000E-03 0.  1.
    9900012    2    1    2    0    0 -0.17483141147E+02  0.17812070072E+02  0.35506237885E+02  0.47787274276E+02  0.20000014733E+02 0.  0.
        -12    1    1    2    0    0  0.17483141147E+02 -0.17812070072E+02 -0.35506237885E+02  0.43400725724E+02  0.00000000000E+00 0.  1.
         11    1    3    3    0    0 -0.84131479007E+01  0.65048109783E+01  0.70405530520E+01  0.12753940999E+02  0.51100000000E-03 0. -1.
        -11    1    3    3    0    0 -0.17099769156E+01  0.12778038544E+02  0.18802405820E+02  0.22797648014E+02  0.51100000000E-03 0.  1.
         12    1    3    3    0    0 -0.73600163312E+01 -0.14707794495E+01  0.96632790125E+01  0.12235685263E+02  0.00000000000E+00 0. -1.
</event>
<event>
 7    1  0.2505412E-009  0.4778727E+02  0.7816164E-02  0.1312668E+00
        -11   -1    0    0    0    0  0.00000000000E+00  0.00000000000E+00  0.45593999997E+02  0.45594000000E+02  0.51100000000E-03 0.  1.
         11   -1    0    0    0    0 -0.00000000000E+00 -0.00000000000E+00 -0.45593999997E+02  0.45594000000E+02  0.51100000000E-03 0. -1.
    9900012    2    1    2    0    0 -0.11935029412E+02  0.37075378214E+02 -0.19146663667E+02  0.47787270440E+02  0.19999997244E+02 0.  0.
        -12    1    1    2    0    0  0.11935029412E+02 -0.37075378214E+02  0.19146663667E+02  0.43400729560E+02  0.00000000000E+00 0.  1.
         11    1    3    3    0    0 -0.41542198367E+01  0.10841044559E+02 -0.12292943906E+02  0.16908644526E+02  0.51100000000E-03 0. -1.
        -11    1    3    3    0    0 -0.81888107263E+01  0.10865448359E+02  0.94689881442E+00  0.13638592551E+02  0.51100000000E-03 0.  1.
         12    1    3    3    0    0  0.40800115107E+00  0.15368885296E+02 -0.78006185750E+01  0.17240033362E+02  0.00000000000E+00 0. -1.
</event>
<event>
 7    1  0.2505412E-009  0.4778728E+02  0.7816164E-02  0.1312668E+00
        -11   -1    0    0    0    0  0.00000000000E+00  0.00000000000E+00  0.45593999997E+02  0.45594000000E+02  0.51100000000E-03 0.  1.
         11   -1    0    0    0    0 -0.00000000000E+00 -0.00000000000E+00 -0.45593999997E+02  0.45594000000E+02  0.51100000000E-03 0. -1.
    9900012    2    1    2    0    0  0.20067236571E+02 -0.12641076033E+02 -0.36347377221E+02  0.47787278604E+02  0.20000034465E+02 0.  0.
        -12    1    1    2    0    0 -0.20067236571E+02  0.12641076033E+02  0.36347377221E+02  0.43400721396E+02  0.00000000000E+00 0.  1.
         11    1    3    3    0    0  0.92665594924E+01 -0.36195481885E+01 -0.26137485747E+02  0.27966737660E+02  0.51100000000E-03 0. -1.
        -11    1    3    3    0    0  0.11109432815E+02 -0.76533382409E+01 -0.11639545607E+02  0.17817746936E+02  0.51100000000E-03 0.  1.
         12    1    3    3    0    0 -0.30875573578E+00 -0.13681896033E+01  0.14296541329E+01  0.20027940070E+01  0.00000000000E+00 0. -1.
</event>
<event>
 7    1  0.2505412E-009  0.4778728E+02  0.7816164E-02  0.1312668E+00
        -11   -1    0    0    0    0  0.00000000000E+00  0.00000000000E+00  0.45593999997E+02  0.45594000000E+02  0.51100000000E-03 0. -1.
         11   -1    0    0    0    0 -0.00000000000E+00 -0.00000000000E+00 -0.45593999997E+02  0.45594000000E+02  0.51100000000E-03 0.  1.
    9900012    2    1    2    0    0  0.12290192713E+02  0.40151157100E+02 -0.10975363127E+02  0.47787275937E+02  0.20000022308E+02 0.  0.
        -12    1    1    2    0    0 -0.12290192713E+02 -0.40151157100E+02  0.10975363127E+02  0.43400724063E+02  0.00000000000E+00 0.  1.
         11    1    3    3    0    0  0.85477576554E+01  0.28564018861E+02 -0.40359381469E+01  0.30087474660E+02  0.51100000000E-03 0. -1.
        -11    1    3    3    0    0  0.48906410611E+01  0.17527244628E+01  0.63460811027E+00  0.52338456937E+01  0.51100000000E-03 0.  1.
        -12    1    3    3    0    0 -0.11482060036E+01  0.98344137765E+01 -0.75740330903E+01  0.12465955583E+02  0.00000000000E+00 0.  1.
</event>
<event>
 7    1  0.2505412E-009  0.4778727E+02  0.7816164E-02  0.1312668E+00
        -11   -1    0    0    0    0  0.00000000000E+00  0.00000000000E+00  0.45593999997E+02  0.45594000000E+02  0.51100000000E-03 0.  1.
         11   -1    0    0    0    0 -0.00000000000E+00 -0.00000000000E+00 -0.45593999997E+02  0.45594000000E+02  0.51100000000E-03 0. -1.
    9900012    2    1    2    0    0  0.27070672348E+02 -0.16852591433E+02 -0.29441338466E+02  0.47787267863E+02  0.19999985494E+02 0.  0.
        -12    1    1    2    0    0 -0.27070672348E+02  0.16852591433E+02  0.29441338466E+02  0.43400732137E+02  0.00000000000E+00 0.  1.
         11    1    3    3    0    0  0.52505832916E+01 -0.76267545762E+01 -0.14011315125E+01  0.93647840361E+01  0.51100000000E-03 0.  1.
        -11    1    3    3    0    0  0.34572692799E+01  0.67635199416E+00 -0.10794430413E+02  0.11354729899E+02  0.51100000000E-03 0. -1.
         12    1    3    3    0    0  0.18362819776E+02 -0.99021888506E+01 -0.17245776541E+02  0.27067753927E+02  0.00000000000E+00 0. -1.
</event>
<event>
 7    1  0.2505412E-009  0.4778727E+02  0.7816164E-02  0.1312668E+00
        -11   -1    0    0    0    0  0.00000000000E+00  0.00000000000E+00  0.45593999997E+02  0.45594000000E+02  0.51100000000E-03 0.  1.
         11   -1    0    0    0    0 -0.00000000000E+00 -0.00000000000E+00 -0.45593999997E+02  0.45594000000E+02  0.51100000000E-03 0. -1.
    9900012    2    1    2    0    0 -0.21166220712E+02  0.36672702375E+02 -0.95250912880E+01  0.47787270021E+02  0.19999995332E+02 0.  0.
        -12    1    1    2    0    0  0.21166220712E+02 -0.36672702375E+02  0.95250912880E+01  0.43400729979E+02  0.00000000000E+00 0.  1.
         11    1    3    3    0    0 -0.24165161096E+01  0.36974481957E+01  0.32802668939E+01  0.55018928037E+01  0.51100000000E-03 0.  1.
        -11    1    3    3    0    0 -0.38352306856E+01  0.20475261589E+02 -0.61871186983E+01  0.21730756305E+02  0.51100000000E-03 0. -1.
         12    1    3    3    0    0 -0.14914473916E+02  0.12499992590E+02 -0.66182394836E+01  0.20554620912E+02  0.00000000000E+00 0. -1.
</event>
<event>
 7    1  0.2505412E-009  0.4778729E+02  0.7816164E-02  0.1312668E+00
        -11   -1    0    0    0    0  0.00000000000E+00  0.00000000000E+00  0.45593999997E+02  0.45594000000E+02  0.51100000000E-03 0.  1.
         11   -1    0    0    0    0 -0.00000000000E+00 -0.00000000000E+00 -0.45593999997E+02  0.45594000000E+02  0.51100000000E-03 0. -1.
    9900012    2    1    2    0    0  0.30070930276E+02  0.28439618502E+02 -0.13059426293E+02  0.47787293055E+02  0.20000100354E+02 0.  0.
        -12    1    1    2    0    0 -0.30070930276E+02 -0.28439618502E+02  0.13059426293E+02  0.43400706945E+02  0.00000000000E+00 0.  1.
         11    1    3    3    0    0  0.77390930781E+01  0.85189726577E+01  0.25963901881E-01  0.11509436615E+02  0.51100000000E-03 0. -1.
        -11    1    3    3    0    0  0.25709523166E+01  0.73011029201E+01  0.24878810938E+01  0.81305259524E+01  0.51100000000E-03 0.  1.
         12    1    3    3    0    0  0.19760884881E+02  0.12619542924E+02 -0.15573271289E+02  0.28147330487E+02  0.00000000000E+00 0. -1.
</event>
<event>
 7    1  0.2505412E-009  0.4778727E+02  0.7816164E-02  0.1312668E+00
        -11   -1    0    0    0    0  0.00000000000E+00  0.00000000000E+00  0.45593999997E+02  0.45594000000E+02  0.51100000000E-03 0.  1.
         11   -1    0    0    0    0 -0.00000000000E+00 -0.00000000000E+00 -0.45593999997E+02  0.45594000000E+02  0.51100000000E-03 0. -1.
    9900012    2    1    2    0    0  0.26665489417E+02 -0.24799379476E+02 -0.23612830355E+02  0.47787270679E+02  0.19999998333E+02 0.  0.
        -12    1    1    2    0    0 -0.26665489417E+02  0.24799379476E+02  0.23612830355E+02  0.43400729321E+02  0.00000000000E+00 0.  1.
         11    1    3    3    0    0  0.97559351424E+01 -0.15531213683E+02 -0.73786411880E+01  0.19769704474E+02  0.51100000000E-03 0. -1.
        -11    1    3    3    0    0  0.48081942096E+01 -0.53988265974E+01 -0.13051552968E+02  0.14920090325E+02  0.51100000000E-03 0.  1.
        -12    1    3    3    0    0  0.12101360065E+02 -0.38693391960E+01 -0.31826361999E+01  0.13097475879E+02  0.00000000000E+00 0.  1.
</event>
<event>
 7    1  0.2505412E-009  0.4778727E+02  0.7816164E-02  0.1312668E+00
        -11   -1    0    0    0    0  0.00000000000E+00  0.00000000000E+00  0.45593999997E+02  0.45594000000E+02  0.51100000000E-03 0.  1.
         11   -1    0    0    0    0 -0.00000000000E+00 -0.00000000000E+00 -0.45593999997E+02  0.45594000000E+02  0.51100000000E-03 0. -1.
    9900012    2    1    2    0    0  0.10594206965E+02 -0.80587152541E+01 -0.41309118993E+02  0.47787269306E+02  0.19999992075E+02 0.  0.
        -12    1    1    2    0    0 -0.10594206965E+02  0.80587152541E+01  0.41309118993E+02  0.43400730694E+02  0.00000000000E+00 0.  1.
         11    1    3    3    0    0  0.10133735323E+02 -0.10191947992E+01 -0.21057428991E+02  0.23391166402E+02  0.51100000000E-03 0. -1.
        -11    1    3    3    0    0 -0.45106798029E+01 -0.46495020519E+00 -0.11560505576E+02  0.12418039314E+02  0.51100000000E-03 0.  1.
         12    1    3    3    0    0  0.49711514447E+01 -0.65745702497E+01 -0.86911844254E+01  0.11978063590E+02  0.00000000000E+00 0. -1.
</event>
<event>
 7    1  0.2505412E-009  0.4778727E+02  0.7816164E-02  0.1312668E+00
        -11   -1    0    0    0    0  0.00000000000E+00  0.00000000000E+00  0.45593999997E+02  0.45594000000E+02  0.51100000000E-03 0.  1.
         11   -1    0    0    0    0 -0.00000000000E+00 -0.00000000000E+00 -0.45593999997E+02  0.45594000000E+02  0.51100000000E-03 0. -1.
    9900012    2    1    2    0    0  0.17622814863E+02  0.39429169029E+02  0.42895711423E+01  0.47787269653E+02  0.19999993658E+02 0.  0.
        -12    1    1    2    0    0 -0.17622814863E+02 -0.39429169029E+02 -0.42895711423E+01  0.43400730347E+02  0.00000000000E+00 0.  1.
         11    1    3    3    0    0  0.17373350797E+02  0.39691291295E+02  0.34188156981E+01  0.43461709856E+02  0.51100000000E-03 0. -1.
        -11    1    3    3    0    0 -0.44842322356E+00  0.67747470159E+00 -0.14863292418E+01  0.16938802304E+01  0.51100000000E-03 0.  1.
        -12    1    3    3    0    0  0.69788728952E+00 -0.93959696689E+00  0.23570846860E+01  0.26316795675E+01  0.00000000000E+00 0.  1.
</event>
<event>
 7    1  0.2505412E-009  0.4778728E+02  0.7816164E-02  0.1312668E+00
        -11   -1    0    0    0    0  0.00000000000E+00  0.00000000000E+00  0.45593999997E+02  0.45594000000E+02  0.51100000000E-03 0.  1.
         11   -1    0    0    0    0 -0.00000000000E+00 -0.00000000000E+00 -0.45593999997E+02  0.45594000000E+02  0.51100000000E-03 0. -1.
    9900012    2    1    2    0    0 -0.29847193638E+01  0.38689078876E+02 -0.19438859913E+02  0.47787278247E+02  0.20000032839E+02 0.  0.
        -12    1    1    2    0    0  0.29847193638E+01 -0.38689078876E+02  0.19438859913E+02  0.43400721753E+02  0.00000000000E+00 0.  1.
         11    1    3    3    0    0  0.10203328716E+01  0.24364468114E+02 -0.15251968109E+02  0.28762665334E+02  0.51100000000E-03 0. -1.
        -11    1    3    3    0    0 -0.17619373314E+01  0.14657256899E+02 -0.59246991922E+00  0.14774661547E+02  0.51100000000E-03 0.  1.
        -12    1    3    3    0    0 -0.22431149039E+01 -0.33264613741E+00 -0.35944218845E+01  0.42499513655E+01  0.00000000000E+00 0.  1.
</event>
<event>
 7    1  0.2505412E-009  0.4778726E+02  0.7816164E-02  0.1312668E+00
        -11   -1    0    0    0    0  0.00000000000E+00  0.00000000000E+00  0.45593999997E+02  0.45594000000E+02  0.51100000000E-03 0.  1.
         11   -1    0    0    0    0 -0.00000000000E+00 -0.00000000000E+00 -0.45593999997E+02  0.45594000000E+02  0.51100000000E-03 0. -1.
    9900012    2    1    2    0    0 -0.26963515279E+02 -0.28335469257E+02 -0.18806749576E+02  0.47787264939E+02  0.19999972164E+02 0.  0.
        -12    1    1    2    0    0  0.26963515279E+02  0.28335469257E+02  0.18806749576E+02  0.43400735061E+02  0.00000000000E+00 0.  1.
         11    1    3    3    0    0 -0.22053166296E+02 -0.23010663658E+02 -0.18403593815E+02  0.36803872775E+02  0.51100000000E-03 0. -1.
        -11    1    3    3    0    0 -0.10325042310E+01  0.96609366310E+00 -0.28642722486E+01  0.31942851670E+01  0.51100000000E-03 0.  1.
        -12    1    3    3    0    0 -0.38778447512E+01 -0.62908992626E+01  0.24611164878E+01  0.77891069972E+01  0.00000000000E+00 0.  1.
</event>
<event>
 7    1  0.2505412E-009  0.4778727E+02  0.7816164E-02  0.1312668E+00
        -11   -1    0    0    0    0  0.00000000000E+00  0.00000000000E+00  0.45593999997E+02  0.45594000000E+02  0.51100000000E-03 0. -1.
         11   -1    0    0    0    0 -0.00000000000E+00 -0.00000000000E+00 -0.45593999997E+02  0.45594000000E+02  0.51100000000E-03 0.  1.
    9900012    2    1    2    0    0  0.19648144342E+02  0.38102125221E+02  0.67677188398E+01  0.47787267970E+02  0.19999985982E+02 0.  0.
        -12    1    1    2    0    0 -0.19648144342E+02 -0.38102125221E+02 -0.67677188398E+01  0.43400732030E+02  0.00000000000E+00 0.  1.
         11    1    3    3    0    0  0.92957504713E+01  0.17894001574E+02  0.18202125978E+01  0.20246467428E+02  0.51100000000E-03 0. -1.
        -11    1    3    3    0    0 -0.36830308946E+01  0.30701690319E+01  0.19940671451E+01  0.51929720291E+01  0.51100000000E-03 0.  1.
         12    1    3    3    0    0  0.14035424765E+02  0.17137954615E+02  0.29534390969E+01  0.22347828513E+02  0.00000000000E+00 0. -1.
</event>
<event>
 7    1  0.2505412E-009  0.4778727E+02  0.7816164E-02  0.1312668E+00
        -11   -1    0    0    0    0  0.00000000000E+00  0.00000000000E+00  0.45593999997E+02  0.45594000000E+02  0.51100000000E-03 0.  1.
         11   -1    0    0    0    0 -0.00000000000E+00 -0.00000000000E+00 -0.45593999997E+02  0.45594000000E+02  0.51100000000E-03 0. -1.
    9900012    2    1    2    0    0 -0.12522307290E+02  0.29073250165E+02 -0.29691097624E+02  0.47787270362E+02  0.19999996888E+02 0.  0.
        -12    1    1    2    0    0  0.12522307290E+02 -0.29073250165E+02  0.29691097624E+02  0.43400729638E+02  0.00000000000E+00 0.  1.
         11    1    3    3    0    0 -0.12424889130E+02  0.22885095638E+02 -0.14383424150E+02  0.29748753970E+02  0.51100000000E-03 0. -1.
        -11    1    3    3    0    0  0.14152739442E+00 -0.12579183445E+01 -0.32661630642E+00  0.13073129073E+01  0.51100000000E-03 0.  1.
         12    1    3    3    0    0 -0.23894555494E+00  0.74460728713E+01 -0.14981057167E+02  0.16731203484E+02  0.00000000000E+00 0. -1.
</event>
<event>
 7    1  0.2505412E-009  0.4778727E+02  0.7816164E-02  0.1312668E+00
        -11   -1    0    0    0    0  0.00000000000E+00  0.00000000000E+00  0.45593999997E+02  0.45594000000E+02  0.51100000000E-03 0. -1.
         11   -1    0    0    0    0 -0.00000000000E+00 -0.00000000000E+00 -0.45593999997E+02  0.45594000000E+02  0.51100000000E-03 0.  1.
    9900012    2    1    2    0    0  0.27073948388E+02 -0.22656254289E+02  0.25245173158E+02  0.47787270656E+02  0.19999998231E+02 0.  0.
        -12    1    1    2    0    0 -0.27073948388E+02  0.22656254289E+02 -0.25245173158E+02  0.43400729344E+02  0.00000000000E+00 0.  1.
         11    1    3    3    0    0  0.13094850659E+02 -0.10112311723E+02  0.63129708747E+01  0.17708403759E+02  0.51100000000E-03 0. -1.
        -11    1    3    3    0    0 -0.21318139774E+01 -0.23981614670E+01 -0.28292570347E-01  0.32088331192E+01  0.51100000000E-03 0.  1.
        -12    1    3    3    0    0  0.16110911707E+02 -0.10145781100E+02  0.18960494854E+02  0.26870033779E+02  0.00000000000E+00 0.  1.
</event>
<event>
 7    1  0.2505412E-009  0.4778728E+02  0.7816164E-02  0.1312668E+00
        -11   -1    0    0    0    0  0.00000000000E+00  0.00000000000E+00  0.45593999997E+02  0.45594000000E+02  0.51100000000E-03 0.  1.
         11   -1    0    0    0    0 -0.00000000000E+00 -0.00000000000E+00 -0.45593999997E+02  0.45594000000E+02  0.51100000000E-03 0. -1.
    9900012    2    1    2    0    0 -0.37898194243E+02 -0.11527835919E+02 -0.17732978141E+02  0.47787278328E+02  0.20000033210E+02 0.  0.
        -12    1    1    2    0    0  0.37898194243E+02  0.11527835919E+02  0.17732978141E+02  0.43400721672E+02  0.00000000000E+00 0.  1.
         11    1    3    3    0    0 -0.30707252767E+02 -0.50172360350E+00 -0.91532748665E+01  0.32046365474E+02  0.51100000000E-03 0. -1.
        -11    1    3    3    0    0 -0.33365051020E+01 -0.42874158260E+01 -0.34237052489E+01  0.64215230789E+01  0.51100000000E-03 0.  1.
         12    1    3    3    0    0 -0.38544363744E+01 -0.67386964900E+01 -0.51559980255E+01  0.93193897755E+01  0.00000000000E+00 0. -1.
</event>
<event>
 7    1  0.2505412E-009  0.4778727E+02  0.7816164E-02  0.1312668E+00
        -11   -1    0    0    0    0  0.00000000000E+00  0.00000000000E+00  0.45593999997E+02  0.45594000000E+02  0.51100000000E-03 0. -1.
         11   -1    0    0    0    0 -0.00000000000E+00 -0.00000000000E+00 -0.45593999997E+02  0.45594000000E+02  0.51100000000E-03 0.  1.
    9900012    2    1    2    0    0  0.31126581512E+02  0.43081240095E+01  0.29936590128E+02  0.47787269158E+02  0.19999991399E+02 0.  0.
        -12    1    1    2    0    0 -0.31126581512E+02 -0.43081240095E+01 -0.29936590128E+02  0.43400730842E+02  0.00000000000E+00 0.  1.
         11    1    3    3    0    0  0.15520661441E+02 -0.44851921944E+01  0.21746109565E+02  0.27090610219E+02  0.51100000000E-03 0. -1.
        -11    1    3    3    0    0  0.67017026954E+01  0.17445239499E+01  0.42315634084E+00  0.69379567871E+01  0.51100000000E-03 0.  1.
         12    1    3    3    0    0  0.89042173764E+01  0.70487922540E+01  0.77673242223E+01  0.13758702152E+02  0.00000000000E+00 0. -1.
</event>
<event>
 7    1  0.2505412E-009  0.4778727E+02  0.7816164E-02  0.1312668E+00
        -11   -1    0    0    0    0  0.00000000000E+00  0.00000000000E+00  0.45593999997E+02  0.45594000000E+02  0.51100000000E-03 0.  1.
         11   -1    0    0    0    0 -0.00000000000E+00 -0.00000000000E+00 -0.45593999997E+02  0.45594000000E+02  0.51100000000E-03 0. -1.
    9900012    2    1    2    0    0 -0.40804601737E+02 -0.25685887403E+01 -0.14560582884E+02  0.47787265617E+02  0.19999975256E+02 0.  0.
        -12    1    1    2    0    0  0.40804601737E+02  0.25685887403E+01  0.14560582884E+02  0.43400734383E+02  0.00000000000E+00 0.  1.
         11    1    3    3    0    0 -0.31990169576E+02  0.28364510967E+01 -0.46949764560E+01  0.32457036348E+02  0.51100000000E-03 0. -1.
        -11    1    3    3    0    0 -0.84342694351E+01 -0.47502499053E+01 -0.59944988622E+01  0.11385771469E+02  0.51100000000E-03 0.  1.
        -12    1    3    3    0    0 -0.38016272608E+00 -0.65478993166E+00 -0.38711075663E+01  0.39444578009E+01  0.00000000000E+00 0.  1.
</event>
<event>
 7    1  0.2505412E-009  0.4778728E+02  0.7816164E-02  0.1312668E+00
        -11   -1    0    0    0    0  0.00000000000E+00  0.00000000000E+00  0.45593999997E+02  0.45594000000E+02  0.51100000000E-03 0.  1.
         11   -1    0    0    0    0 -0.00000000000E+00 -0.00000000000E+00 -0.45593999997E+02  0.45594000000E+02  0.51100000000E-03 0. -1.
    9900012    2    1    2    0    0  0.33328662816E+02  0.24430947316E+02 -0.13264669549E+02  0.47787280996E+02  0.20000045372E+02 0.  0.
        -12    1    1    2    0    0 -0.33328662816E+02 -0.24430947316E+02  0.13264669549E+02  0.43400719004E+02  0.00000000000E+00 0.  1.
         11    1    3    3    0    0  0.94909423156E+01  0.33744467131E+01 -0.57935912749E+01  0.11620265779E+02  0.51100000000E-03 0. -1.
        -11    1    3    3    0    0  0.20026102893E+02  0.17612459044E+02  0.51180071424E+00  0.26674059513E+02  0.51100000000E-03 0.  1.
        -12    1    3    3    0    0  0.38116176067E+01  0.34440415586E+01 -0.79828789885E+01  0.94929557031E+01  0.00000000000E+00 0.  1.
</event>
<event>
 7    1  0.2505412E-009  0.4778728E+02  0.7816164E-02  0.1312668E+00
        -11   -1    0    0    0    0  0.00000000000E+00  0.00000000000E+00  0.45593999997E+02  0.45594000000E+02  0.51100000000E-03 0.  1.
         11   -1    0    0    0    0 -0.00000000000E+00 -0.00000000000E+00 -0.45593999997E+02  0.45594000000E+02  0.51100000000E-03 0. -1.
    9900012    2    1    2    0    0 -0.27966089045E+02 -0.28428627981E+02 -0.17126983300E+02  0.47787279012E+02  0.20000036325E+02 0.  0.
        -12    1    1    2    0    0  0.27966089045E+02  0.28428627981E+02  0.17126983300E+02  0.43400720988E+02  0.00000000000E+00 0.  1.
         11    1    3    3    0    0 -0.14303771747E+01  0.26901637765E+01 -0.16156640493E+01  0.34486708436E+01  0.51100000000E-03 0. -1.
        -11    1    3    3    0    0 -0.13652615199E+02 -0.10895614875E+02 -0.50911163865E+01  0.18194169165E+02  0.51100000000E-03 0.  1.
         12    1    3    3    0    0 -0.12883096671E+02 -0.20223176882E+02 -0.10420202864E+02  0.26144439003E+02  0.00000000000E+00 0. -1.
</event>
<event>
 7    1  0.3415872E-009  0.4778727E+02  0.7816164E-02  0.1312668E+00
        -11   -1    0    0    0    0  0.00000000000E+00  0.00000000000E+00  0.45593999997E+02  0.45594000000E+02  0.51100000000E-03 0. -1.
         11   -1    0    0    0    0 -0.00000000000E+00 -0.00000000000E+00 -0.45593999997E+02  0.45594000000E+02  0.51100000000E-03 0.  1.
    9900012    2    1    2    0    0  0.82272080195E+01  0.45876643901E+01  0.42366138105E+02  0.47787271040E+02  0.19999999980E+02 0.  0.
        -12    1    1    2    0    0 -0.82272080195E+01 -0.45876643901E+01 -0.42366138105E+02  0.43400728960E+02  0.00000000000E+00 0.  1.
         11    1    3    3    0    0  0.45483211542E+01  0.27561997161E+01  0.35448751098E+02  0.35845471358E+02  0.51100000000E-03 0. -1.
        -11    1    3    3    0    0 -0.27135323176E+01  0.18217254739E+01  0.30508413299E+01  0.44709701880E+01  0.51100000000E-03 0.  1.
        -12    1    3    3    0    0  0.63924191829E+01  0.97392001327E-02  0.38665456764E+01  0.74708294941E+01  0.00000000000E+00 0.  1.
</event>
<event>
 7    1  0.2505412E-009  0.4778727E+02  0.7816164E-02  0.1312668E+00
        -11   -1    0    0    0    0  0.00000000000E+00  0.00000000000E+00  0.45593999997E+02  0.45594000000E+02  0.51100000000E-03 0.  1.
         11   -1    0    0    0    0 -0.00000000000E+00 -0.00000000000E+00 -0.45593999997E+02  0.45594000000E+02  0.51100000000E-03 0. -1.
    9900012    2    1    2    0    0 -0.40460763654E+02  0.11091764979E+01 -0.15662694374E+02  0.47787266561E+02  0.19999979560E+02 0.  0.
        -12    1    1    2    0    0  0.40460763654E+02 -0.11091764979E+01  0.15662694374E+02  0.43400733439E+02  0.00000000000E+00 0.  1.
         11    1    3    3    0    0 -0.16800221321E+02  0.50992773392E+01 -0.91687781077E+01  0.19806982558E+02  0.51100000000E-03 0. -1.
        -11    1    3    3    0    0 -0.22225090971E+02 -0.24799808763E+01 -0.13192348633E+01  0.22401905158E+02  0.51100000000E-03 0.  1.
         12    1    3    3    0    0 -0.14354513618E+01 -0.15101199650E+01 -0.51746814026E+01  0.55783788451E+01  0.00000000000E+00 0. -1.
</event>
<event>
 7    1  0.2505412E-009  0.4778727E+02  0.7816164E-02  0.1312668E+00
        -11   -1    0    0    0    0  0.00000000000E+00  0.00000000000E+00  0.45593999997E+02  0.45594000000E+02  0.51100000000E-03 0.  1.
         11   -1    0    0    0    0 -0.00000000000E+00 -0.00000000000E+00 -0.45593999997E+02  0.45594000000E+02  0.51100000000E-03 0. -1.
    9900012    2    1    2    0    0 -0.19393493413E+02 -0.76523611767E+00 -0.38819196625E+02  0.47787271900E+02  0.20000003899E+02 0.  0.
        -12    1    1    2    0    0  0.19393493413E+02  0.76523611767E+00  0.38819196625E+02  0.43400728100E+02  0.00000000000E+00 0.  1.
         11    1    3    3    0    0 -0.39917573560E+01  0.51968257768E+01 -0.14067163198E+01  0.67022366423E+01  0.51100000000E-03 0.  1.
        -11    1    3    3    0    0 -0.27038031289E+01 -0.27953881872E+01 -0.82442970841E+01  0.91155461245E+01  0.51100000000E-03 0. -1.
        -12    1    3    3    0    0 -0.12697932928E+02 -0.31666737073E+01 -0.29168183221E+02  0.31969489133E+02  0.00000000000E+00 0.  1.
</event>
<event>
 7    1  0.2531643E-009  0.4778726E+02  0.7816164E-02  0.1312668E+00
        -11   -1    0    0    0    0  0.00000000000E+00  0.00000000000E+00  0.45593999997E+02  0.45594000000E+02  0.51100000000E-03 0. -1.
         11   -1    0    0    0    0 -0.00000000000E+00 -0.00000000000E+00 -0.45593999997E+02  0.45594000000E+02  0.51100000000E-03 0.  1.
    9900012    2    1    2    0    0  0.34967744079E+02  0.17423197022E+02  0.18902722366E+02  0.47787264600E+02  0.19999970616E+02 0.  0.
        -12    1    1    2    0    0 -0.34967744079E+02 -0.17423197022E+02 -0.18902722366E+02  0.43400735400E+02  0.00000000000E+00 0.  1.
         11    1    3    3    0    0  0.30390931358E+02  0.12997000929E+02  0.18436520563E+02  0.37847536679E+02  0.51100000000E-03 0. -1.
        -11    1    3    3    0    0  0.61349462366E+01  0.47518272338E+01 -0.93878554856E+00  0.78165686816E+01  0.51100000000E-03 0.  1.
        -12    1    3    3    0    0 -0.15581335158E+01 -0.32563114122E+00  0.14049873524E+01  0.21231592389E+01  0.00000000000E+00 0.  1.
</event>
<event>
 7    1  0.2505412E-009  0.4778727E+02  0.7816164E-02  0.1312668E+00
        -11   -1    0    0    0    0  0.00000000000E+00  0.00000000000E+00  0.45593999997E+02  0.45594000000E+02  0.51100000000E-03 0. -1.
         11   -1    0    0    0    0 -0.00000000000E+00 -0.00000000000E+00 -0.45593999997E+02  0.45594000000E+02  0.51100000000E-03 0.  1.
    9900012    2    1    2    0    0  0.39906245372E+02 -0.89610114163E+01  0.14519470498E+02  0.47787272254E+02  0.20000005516E+02 0.  0.
        -12    1    1    2    0    0 -0.39906245372E+02  0.89610114163E+01 -0.14519470498E+02  0.43400727746E+02  0.00000000000E+00 0.  1.
         11    1    3    3    0    0  0.27307013806E+02 -0.58199901123E+01  0.43991036465E+01  0.28264773148E+02  0.51100000000E-03 0. -1.
        -11    1    3    3    0    0  0.94549705673E+01 -0.22239831010E+01  0.91994111416E+00  0.97564779084E+01  0.51100000000E-03 0.  1.
        -12    1    3    3    0    0  0.31442609985E+01 -0.91703820302E+00  0.92004257377E+01  0.97660211984E+01  0.00000000000E+00 0.  1.
</event>
<event>
 7    1  0.2505412E-009  0.4778727E+02  0.7816164E-02  0.1312668E+00
        -11   -1    0    0    0    0  0.00000000000E+00  0.00000000000E+00  0.45593999997E+02  0.45594000000E+02  0.51100000000E-03 0.  1.
         11   -1    0    0    0    0 -0.00000000000E+00 -0.00000000000E+00 -0.45593999997E+02  0.45594000000E+02  0.51100000000E-03 0. -1.
    9900012    2    1    2    0    0 -0.32226886794E+02  0.26708728556E+02 -0.11475835949E+02  0.47787271616E+02  0.20000002606E+02 0.  0.
        -12    1    1    2    0    0  0.32226886794E+02 -0.26708728556E+02  0.11475835949E+02  0.43400728384E+02  0.00000000000E+00 0.  1.
         11    1    3    3    0    0 -0.33328166129E+01  0.21985511460E+01 -0.24774169410E+01  0.46988177957E+01  0.51100000000E-03 0. -1.
        -11    1    3    3    0    0 -0.13424281137E+02  0.22252017956E+02 -0.23302007681E+01  0.26092019145E+02  0.51100000000E-03 0.  1.
        -12    1    3    3    0    0 -0.15469789044E+02  0.22581594541E+01 -0.66682182401E+01  0.16996434676E+02  0.00000000000E+00 0.  1.
</event>
<event>
 7    1  0.2505412E-009  0.4778727E+02  0.7816164E-02  0.1312668E+00
        -11   -1    0    0    0    0  0.00000000000E+00  0.00000000000E+00  0.45593999997E+02  0.45594000000E+02  0.51100000000E-03 0. -1.
         11   -1    0    0    0    0 -0.00000000000E+00 -0.00000000000E+00 -0.45593999997E+02  0.45594000000E+02  0.51100000000E-03 0.  1.
    9900012    2    1    2    0    0  0.42865095662E+00  0.98222934642E+01  0.42272474842E+02  0.47787270515E+02  0.19999997586E+02 0.  0.
        -12    1    1    2    0    0 -0.42865095662E+00 -0.98222934642E+01 -0.42272474842E+02  0.43400729485E+02  0.00000000000E+00 0.  1.
         11    1    3    3    0    0  0.30777054048E+01  0.45613790321E+01  0.15903044287E+02  0.16828109433E+02  0.51100000000E-03 0. -1.
        -11    1    3    3    0    0 -0.35955353852E+01 -0.35104883495E+01  0.27118780966E+01  0.57101388976E+01  0.51100000000E-03 0.  1.
        -12    1    3    3    0    0  0.94648093703E+00  0.87714027816E+01  0.23657552459E+02  0.25249022184E+02  0.00000000000E+00 0.  1.
</event>
<event>
 7    1  0.2505412E-009  0.4778728E+02  0.7816164E-02  0.1312668E+00
        -11   -1    0    0    0    0  0.00000000000E+00  0.00000000000E+00  0.45593999997E+02  0.45594000000E+02  0.51100000000E-03 0. -1.
         11   -1    0    0    0    0 -0.00000000000E+00 -0.00000000000E+00 -0.45593999997E+02  0.45594000000E+02  0.51100000000E-03 0.  1.
    9900012    2    1    2    0    0  0.13031708610E+02  0.20546823779E+02  0.35939190417E+02  0.47787276451E+02  0.20000024652E+02 0.  0.
        -12    1    1    2    0    0 -0.13031708610E+02 -0.20546823779E+02 -0.35939190417E+02  0.43400723549E+02  0.00000000000E+00 0.  1.
         11    1    3    3    0    0  0.37408702015E+01  0.15261693333E+02  0.19515080796E+02  0.25054974995E+02  0.51100000000E-03 0. -1.
        -11    1    3    3    0    0 -0.55373255191E-01 -0.47649185176E+00  0.10000132788E+02  0.10011631572E+02  0.51100000000E-03 0.  1.
         12    1    3    3    0    0  0.93462116634E+01  0.57616222980E+01  0.64239768325E+01  0.12720669884E+02  0.00000000000E+00 0. -1.
</event>
<event>
 7    1  0.2505412E-009  0.4778727E+02  0.7816164E-02  0.1312668E+00
        -11   -1    0    0    0    0  0.00000000000E+00  0.00000000000E+00  0.45593999997E+02  0.45594000000E+02  0.51100000000E-03 0.  1.
         11   -1    0    0    0    0 -0.00000000000E+00 -0.00000000000E+00 -0.45593999997E+02  0.45594000000E+02  0.51100000000E-03 0. -1.
    9900012    2    1    2    0    0 -0.12677166739E+02 -0.27019630291E+02 -0.31509557482E+02  0.47787272007E+02  0.20000004388E+02 0.  0.
        -12    1    1    2    0    0  0.12677166739E+02  0.27019630291E+02  0.31509557482E+02  0.43400727993E+02  0.00000000000E+00 0.  1.
         11    1    3    3    0    0 -0.56903363754E+01 -0.47712349173E+01 -0.62514181724E+01  0.97069480337E+01  0.51100000000E-03 0. -1.
        -11    1    3    3    0    0 -0.70272596556E+01 -0.93788971000E+00 -0.49820321395E+01  0.86650250938E+01  0.51100000000E-03 0.  1.
        -12    1    3    3    0    0  0.40429292206E-01 -0.21310505664E+02 -0.20276107170E+02  0.29415298879E+02  0.00000000000E+00 0.  1.
</event>
<event>
 7    1  0.2505412E-009  0.4778727E+02  0.7816164E-02  0.1312668E+00
        -11   -1    0    0    0    0  0.00000000000E+00  0.00000000000E+00  0.45593999997E+02  0.45594000000E+02  0.51100000000E-03 0. -1.
         11   -1    0    0    0    0 -0.00000000000E+00 -0.00000000000E+00 -0.45593999997E+02  0.45594000000E+02  0.51100000000E-03 0.  1.
    9900012    2    1    2    0    0  0.32578694572E+02  0.24617224797E+02 -0.14705233273E+02  0.47787274403E+02  0.20000015313E+02 0.  0.
        -12    1    1    2    0    0 -0.32578694572E+02 -0.24617224797E+02  0.14705233273E+02  0.43400725597E+02  0.00000000000E+00 0.  1.
         11    1    3    3    0    0  0.27683776810E+00 -0.18089091401E+01  0.20577831857E+00  0.18415038432E+01  0.51100000000E-03 0.  1.
        -11    1    3    3    0    0  0.11916750301E+02  0.13886752118E+02 -0.11890762736E+02  0.21822948033E+02  0.51100000000E-03 0. -1.
        -12    1    3    3    0    0  0.20385106503E+02  0.12539381818E+02 -0.30202488553E+01  0.24122822527E+02  0.00000000000E+00 0.  1.
</event>
<event>
 7    1  0.2505412E-009  0.4778727E+02  0.7816164E-02  0.1312668E+00
        -11   -1    0    0    0    0  0.00000000000E+00  0.00000000000E+00  0.45593999997E+02  0.45594000000E+02  0.51100000000E-03 0.  1.
         11   -1    0    0    0    0 -0.00000000000E+00 -0.00000000000E+00 -0.45593999997E+02  0.45594000000E+02  0.51100000000E-03 0. -1.
    9900012    2    1    2    0    0 -0.11732244349E+02 -0.40759189822E+02  0.92014164868E+01  0.47787272151E+02  0.20000005046E+02 0.  0.
        -12    1    1    2    0    0  0.11732244349E+02  0.40759189822E+02 -0.92014164868E+01  0.43400727849E+02  0.00000000000E+00 0.  1.
         11    1    3    3    0    0 -0.42057851387E+01 -0.19835739604E+02 -0.49690126322E+01  0.20876692293E+02  0.51100000000E-03 0. -1.
        -11    1    3    3    0    0 -0.11696898187E+01 -0.10620160469E+02  0.54789201862E+01  0.12007270686E+02  0.51100000000E-03 0.  1.
         12    1    3    3    0    0 -0.63567693921E+01 -0.10303289749E+02  0.86915089328E+01  0.14903309172E+02  0.00000000000E+00 0. -1.
</event>
<event>
 7    1  0.2505412E-009  0.4778723E+02  0.7816164E-02  0.1312668E+00
        -11   -1    0    0    0    0  0.00000000000E+00  0.00000000000E+00  0.45593999997E+02  0.45594000000E+02  0.51100000000E-03 0.  1.
         11   -1    0    0    0    0 -0.00000000000E+00 -0.00000000000E+00 -0.45593999997E+02  0.45594000000E+02  0.51100000000E-03 0. -1.
    9900012    2    1    2    0    0  0.22752379903E+02  0.12692906099E+00 -0.36958628058E+02  0.47787227078E+02  0.19999799540E+02 0.  0.
        -12    1    1    2    0    0 -0.22752379903E+02 -0.12692906099E+00  0.36958628058E+02  0.43400772922E+02  0.00000000000E+00 0.  1.
         11    1    3    3    0    0  0.16505340410E+01  0.45302171085E+01 -0.15735473979E+01  0.50718025736E+01  0.51100000000E-03 0. -1.
        -11    1    3    3    0    0  0.40046760451E+01 -0.52769634053E+01 -0.76216872587E+01  0.10098212215E+02  0.51100000000E-03 0.  1.
         12    1    3    3    0    0  0.17097169817E+02  0.87367535771E+00 -0.27763393402E+02  0.32617212290E+02  0.00000000000E+00 0. -1.
</event>
<event>
 7    1  0.2505412E-009  0.4778727E+02  0.7816164E-02  0.1312668E+00
        -11   -1    0    0    0    0  0.00000000000E+00  0.00000000000E+00  0.45593999997E+02  0.45594000000E+02  0.51100000000E-03 0.  1.
         11   -1    0    0    0    0 -0.00000000000E+00 -0.00000000000E+00 -0.45593999997E+02  0.45594000000E+02  0.51100000000E-03 0. -1.
    9900012    2    1    2    0    0 -0.19964833680E+02  0.31082985085E+02 -0.22778866859E+02  0.47787270502E+02  0.19999997525E+02 0.  0.
        -12    1    1    2    0    0  0.19964833680E+02 -0.31082985085E+02  0.22778866859E+02  0.43400729498E+02  0.00000000000E+00 0.  1.
         11    1    3    3    0    0 -0.20064274693E+02  0.24978716488E+02 -0.11615090481E+02  0.34079637960E+02  0.51100000000E-03 0.  1.
        -11    1    3    3    0    0 -0.24476617412E+01  0.26052807841E+01 -0.42808577568E+01  0.55771210636E+01  0.51100000000E-03 0. -1.
        -12    1    3    3    0    0  0.25471027540E+01  0.34989878127E+01 -0.68829186210E+01  0.81305114781E+01  0.00000000000E+00 0.  1.
</event>
<event>
 7    1  0.2505412E-009  0.4778727E+02  0.7816164E-02  0.1312668E+00
        -11   -1    0    0    0    0  0.00000000000E+00  0.00000000000E+00  0.45593999997E+02  0.45594000000E+02  0.51100000000E-03 0. -1.
         11   -1    0    0    0    0 -0.00000000000E+00 -0.00000000000E+00 -0.45593999997E+02  0.45594000000E+02  0.51100000000E-03 0.  1.
    9900012    2    1    2    0    0 -0.42597918439E+02  0.76510437830E+01  0.32407127485E+01  0.47787270220E+02  0.19999996240E+02 0.  0.
        -12    1    1    2    0    0  0.42597918439E+02 -0.76510437830E+01 -0.32407127485E+01  0.43400729780E+02  0.00000000000E+00 0.  1.
         11    1    3    3    0    0 -0.17977750452E+02 -0.22419870784E+01 -0.20418849519E+01  0.18231711707E+02  0.51100000000E-03 0. -1.
        -11    1    3    3    0    0  0.12714251251E+01  0.68070441762E+00  0.96885431490E+00  0.17374001547E+01  0.51100000000E-03 0.  1.
         12    1    3    3    0    0 -0.25891593113E+02  0.92123264438E+01  0.43137433856E+01  0.27818158358E+02  0.00000000000E+00 0. -1.
</event>
<event>
 7    1  0.2505412E-009  0.4778727E+02  0.7816164E-02  0.1312668E+00
        -11   -1    0    0    0    0  0.00000000000E+00  0.00000000000E+00  0.45593999997E+02  0.45594000000E+02  0.51100000000E-03 0.  1.
         11   -1    0    0    0    0 -0.00000000000E+00 -0.00000000000E+00 -0.45593999997E+02  0.45594000000E+02  0.51100000000E-03 0. -1.
    9900012    2    1    2    0    0  0.34688726813E+02 -0.22220568523E+02 -0.13658766725E+02  0.47787270261E+02  0.19999996430E+02 0.  0.
        -12    1    1    2    0    0 -0.34688726813E+02  0.22220568523E+02  0.13658766725E+02  0.43400729739E+02  0.00000000000E+00 0.  1.
         11    1    3    3    0    0  0.28703688459E+02 -0.21022456824E+02 -0.14668077407E+02  0.38483735748E+02  0.51100000000E-03 0. -1.
        -11    1    3    3    0    0 -0.66477500843E+00 -0.58072930930E+00 -0.18414838008E+01  0.20421153719E+01  0.51100000000E-03 0.  1.
        -12    1    3    3    0    0  0.66498133622E+01 -0.61738238955E+00  0.28507944820E+01  0.72614191413E+01  0.00000000000E+00 0.  1.
</event>
<event>
 7    1  0.2505412E-009  0.4778727E+02  0.7816164E-02  0.1312668E+00
        -11   -1    0    0    0    0  0.00000000000E+00  0.00000000000E+00  0.45593999997E+02  0.45594000000E+02  0.51100000000E-03 0.  1.
         11   -1    0    0    0    0 -0.00000000000E+00 -0.00000000000E+00 -0.45593999997E+02  0.45594000000E+02  0.51100000000E-03 0. -1.
    9900012    2    1    2    0    0  0.34105470589E+02  0.20157315177E+02  0.17723508378E+02  0.47787271568E+02  0.20000002386E+02 0.  0.
        -12    1    1    2    0    0 -0.34105470589E+02 -0.20157315177E+02 -0.17723508378E+02  0.43400728432E+02  0.00000000000E+00 0.  1.
         11    1    3    3    0    0  0.34573626166E+01 -0.11608633510E+01  0.42917208555E+01  0.56320358792E+01  0.51100000000E-03 0. -1.
        -11    1    3    3    0    0  0.63429199596E+01  0.74694905077E+01 -0.22941106623E+01  0.10064236983E+02  0.51100000000E-03 0.  1.
         12    1    3    3    0    0  0.24305188013E+02  0.13848688020E+02  0.15725898185E+02  0.32090998706E+02  0.00000000000E+00 0. -1.
</event>
<event>
 7    1  0.2505412E-009  0.4778727E+02  0.7816164E-02  0.1312668E+00
        -11   -1    0    0    0    0  0.00000000000E+00  0.00000000000E+00  0.45593999997E+02  0.45594000000E+02  0.51100000000E-03 0.  1.
         11   -1    0    0    0    0 -0.00000000000E+00 -0.00000000000E+00 -0.45593999997E+02  0.45594000000E+02  0.51100000000E-03 0. -1.
    9900012    2    1    2    0    0 -0.30447360435E+02  0.30739188556E+02  0.34181329581E+01  0.47787273007E+02  0.20000008950E+02 0.  0.
        -12    1    1    2    0    0  0.30447360435E+02 -0.30739188556E+02 -0.34181329581E+01  0.43400726993E+02  0.00000000000E+00 0.  1.
         11    1    3    3    0    0 -0.11083068666E+02  0.17347924296E+02 -0.22488312750E+01  0.20708503829E+02  0.51100000000E-03 0. -1.
        -11    1    3    3    0    0 -0.63056764930E+01  0.11289799199E+02  0.70019156855E+00  0.12950343257E+02  0.51100000000E-03 0.  1.
        -12    1    3    3    0    0 -0.13058615276E+02  0.21014650610E+01  0.49667726645E+01  0.14128425922E+02  0.00000000000E+00 0.  1.
</event>
<event>
 7    1  0.2505412E-009  0.4778727E+02  0.7816164E-02  0.1312668E+00
        -11   -1    0    0    0    0  0.00000000000E+00  0.00000000000E+00  0.45593999997E+02  0.45594000000E+02  0.51100000000E-03 0. -1.
         11   -1    0    0    0    0 -0.00000000000E+00 -0.00000000000E+00 -0.45593999997E+02  0.45594000000E+02  0.51100000000E-03 0.  1.
    9900012    2    1    2    0    0  0.29940369914E+01  0.37674712314E+02  0.21337176156E+02  0.47787270838E+02  0.19999999061E+02 0.  0.
        -12    1    1    2    0    0 -0.29940369914E+01 -0.37674712314E+02 -0.21337176156E+02  0.43400729162E+02  0.00000000000E+00 0.  1.
         11    1    3    3    0    0 -0.12451003773E+01  0.31273325930E+01  0.41268641845E+01  0.53255508969E+01  0.51100000000E-03 0. -1.
        -11    1    3    3    0    0  0.10315492255E-01  0.27696544162E+01  0.89329708974E+01  0.93524895782E+01  0.51100000000E-03 0.  1.
         12    1    3    3    0    0  0.42288218764E+01  0.31777725305E+02  0.82773410741E+01  0.33109230363E+02  0.00000000000E+00 0. -1.
</event>
<event>
 7    1  0.2505412E-009  0.4778725E+02  0.7816164E-02  0.1312668E+00
        -11   -1    0    0    0    0  0.00000000000E+00  0.00000000000E+00  0.45593999997E+02  0.45594000000E+02  0.51100000000E-03 0.  1.
         11   -1    0    0    0    0 -0.00000000000E+00 -0.00000000000E+00 -0.45593999997E+02  0.45594000000E+02  0.51100000000E-03 0. -1.
    9900012    2    1    2    0    0  0.30280092637E+02 -0.25624923293E+01 -0.30986690675E+02  0.47787246827E+02  0.19999889583E+02 0.  0.
        -12    1    1    2    0    0 -0.30280092637E+02  0.25624923293E+01  0.30986690675E+02  0.43400753173E+02  0.00000000000E+00 0.  1.
         11    1    3    3    0    0  0.46694909057E+01  0.76882932466E+00 -0.12006005284E+02  0.12905014800E+02  0.51100000000E-03 0. -1.
        -11    1    3    3    0    0  0.13806034521E+02  0.17285281730E+01 -0.27469710706E+01  0.14182392223E+02  0.51100000000E-03 0.  1.
        -12    1    3    3    0    0  0.11804567210E+02 -0.50598498269E+01 -0.16233714319E+02  0.20699839803E+02  0.00000000000E+00 0.  1.
</event>
<event>
 7    1  0.2505412E-009  0.4778727E+02  0.7816164E-02  0.1312668E+00
        -11   -1    0    0    0    0  0.00000000000E+00  0.00000000000E+00  0.45593999997E+02  0.45594000000E+02  0.51100000000E-03 0. -1.
         11   -1    0    0    0    0 -0.00000000000E+00 -0.00000000000E+00 -0.45593999997E+02  0.45594000000E+02  0.51100000000E-03 0.  1.
    9900012    2    1    2    0    0 -0.43589998122E+01 -0.40121981873E+02  0.15963991908E+02  0.47787270208E+02  0.19999996188E+02 0.  0.
        -12    1    1    2    0    0  0.43589998122E+01  0.40121981873E+02 -0.15963991908E+02  0.43400729792E+02  0.00000000000E+00 0.  1.
         11    1    3    3    0    0 -0.70569225191E+01 -0.10425918486E+02  0.74011095418E+01  0.14603984197E+02  0.51100000000E-03 0. -1.
        -11    1    3    3    0    0  0.38815902628E+01 -0.42885568251E+01 -0.12554154529E+01  0.59189974515E+01  0.51100000000E-03 0.  1.
         12    1    3    3    0    0 -0.11836675559E+01 -0.25407506562E+02  0.98182978195E+01  0.27264288560E+02  0.00000000000E+00 0. -1.
</event>
<event>
 7    1  0.2505412E-009  0.4778727E+02  0.7816164E-02  0.1312668E+00
        -11   -1    0    0    0    0  0.00000000000E+00  0.00000000000E+00  0.45593999997E+02  0.45594000000E+02  0.51100000000E-03 0. -1.
         11   -1    0    0    0    0 -0.00000000000E+00 -0.00000000000E+00 -0.45593999997E+02  0.45594000000E+02  0.51100000000E-03 0.  1.
    9900012    2    1    2    0    0 -0.32324620178E+01 -0.30038450366E+02  0.31158719730E+02  0.47787272744E+02  0.20000007751E+02 0.  0.
        -12    1    1    2    0    0  0.32324620178E+01  0.30038450366E+02 -0.31158719730E+02  0.43400727256E+02  0.00000000000E+00 0.  1.
         11    1    3    3    0    0 -0.88761007241E+01 -0.67674861779E+01  0.97181098766E+01  0.14799516650E+02  0.51100000000E-03 0. -1.
        -11    1    3    3    0    0 -0.75399248528E+00  0.61336535375E-01  0.17445030207E+00  0.77633756024E+00  0.51100000000E-03 0.  1.
         12    1    3    3    0    0  0.63976311916E+01 -0.23332300724E+02  0.21266159551E+02  0.32211418534E+02  0.00000000000E+00 0. -1.
</event>
<event>
 7    1  0.2505412E-009  0.4778726E+02  0.7816164E-02  0.1312668E+00
        -11   -1    0    0    0    0  0.00000000000E+00  0.00000000000E+00  0.45593999997E+02  0.45594000000E+02  0.51100000000E-03 0.  1.
         11   -1    0    0    0    0 -0.00000000000E+00 -0.00000000000E+00 -0.45593999997E+02  0.45594000000E+02  0.51100000000E-03 0. -1.
    9900012    2    1    2    0    0  0.34639034876E+02  0.21414755667E+02 -0.15005665101E+02  0.47787257120E+02  0.19999936512E+02 0.  0.
        -12    1    1    2    0    0 -0.34639034876E+02 -0.21414755667E+02  0.15005665101E+02  0.43400742880E+02  0.00000000000E+00 0.  1.
         11    1    3    3    0    0  0.13464172255E+02  0.53302786522E+01 -0.10058268155E+02  0.17631351722E+02  0.51100000000E-03 0.  1.
        -11    1    3    3    0    0  0.17139727569E+02  0.60440103633E+01 -0.63343657956E+01  0.19246415581E+02  0.51100000000E-03 0. -1.
        -12    1    3    3    0    0  0.40351350521E+01  0.10040466651E+02  0.13869688500E+01  0.10909489816E+02  0.00000000000E+00 0.  1.
</event>
<event>
 7    1  0.2505412E-009  0.4778727E+02  0.7816164E-02  0.1312668E+00
        -11   -1    0    0    0    0  0.00000000000E+00  0.00000000000E+00  0.45593999997E+02  0.45594000000E+02  0.51100000000E-03 0. -1.
         11   -1    0    0    0    0 -0.00000000000E+00 -0.00000000000E+00 -0.45593999997E+02  0.45594000000E+02  0.51100000000E-03 0.  1.
    9900012    2    1    2    0    0  0.10018463125E+02  0.66557693318E+01  0.41700774781E+02  0.47787268600E+02  0.19999988853E+02 0.  0.
        -12    1    1    2    0    0 -0.10018463125E+02 -0.66557693318E+01 -0.41700774781E+02  0.43400731400E+02  0.00000000000E+00 0.  1.
         11    1    3    3    0    0  0.58912083245E+01  0.11943691609E+02  0.27310245059E+02  0.30384331328E+02  0.51100000000E-03 0. -1.
        -11    1    3    3    0    0  0.24624840415E+01 -0.26921311968E+00  0.48253508389E+00  0.25237162532E+01  0.51100000000E-03 0.  1.
         12    1    3    3    0    0  0.16647707591E+01 -0.50187091575E+01  0.13907994637E+02  0.14879221019E+02  0.00000000000E+00 0. -1.
</event>
<event>
 7    1  0.2505412E-009  0.4778727E+02  0.7816164E-02  0.1312668E+00
        -11   -1    0    0    0    0  0.00000000000E+00  0.00000000000E+00  0.45593999997E+02  0.45594000000E+02  0.51100000000E-03 0.  1.
         11   -1    0    0    0    0 -0.00000000000E+00 -0.00000000000E+00 -0.45593999997E+02  0.45594000000E+02  0.51100000000E-03 0. -1.
    9900012    2    1    2    0    0 -0.71243657831E+01  0.30406963111E+02 -0.30137736227E+02  0.47787272606E+02  0.20000007119E+02 0.  0.
        -12    1    1    2    0    0  0.71243657831E+01 -0.30406963111E+02  0.30137736227E+02  0.43400727394E+02  0.00000000000E+00 0.  1.
         11    1    3    3    0    0 -0.71345337022E+01  0.96937643108E+01 -0.15554275985E+02  0.19667387710E+02  0.51100000000E-03 0. -1.
        -11    1    3    3    0    0 -0.90669596599E+00 -0.14111650666E+01 -0.21423818219E+01  0.27208977474E+01  0.51100000000E-03 0.  1.
         12    1    3    3    0    0  0.91686388515E+00  0.22124363867E+02 -0.12441078420E+02  0.25398987148E+02  0.00000000000E+00 0. -1.
</event>
<event>
 7    1  0.2505412E-009  0.4778727E+02  0.7816164E-02  0.1312668E+00
        -11   -1    0    0    0    0  0.00000000000E+00  0.00000000000E+00  0.45593999997E+02  0.45594000000E+02  0.51100000000E-03 0.  1.
         11   -1    0    0    0    0 -0.00000000000E+00 -0.00000000000E+00 -0.45593999997E+02  0.45594000000E+02  0.51100000000E-03 0. -1.
    9900012    2    1    2    0    0 -0.11225567305E+02  0.18135161031E+02 -0.37798488838E+02  0.47787272064E+02  0.20000004648E+02 0.  0.
        -12    1    1    2    0    0  0.11225567305E+02 -0.18135161031E+02  0.37798488838E+02  0.43400727936E+02  0.00000000000E+00 0.  1.
         11    1    3    3    0    0 -0.33199568398E+01  0.46824031631E+01 -0.19070576153E+02  0.19915669405E+02  0.51100000000E-03 0. -1.
        -11    1    3    3    0    0 -0.83878577016E+01  0.15579563125E+01 -0.59110709016E+01  0.10379024239E+02  0.51100000000E-03 0.  1.
         12    1    3    3    0    0  0.48224723633E+00  0.11894801556E+02 -0.12816841784E+02  0.17492578419E+02  0.00000000000E+00 0. -1.
</event>
<event>
 7    1  0.2505412E-009  0.4778727E+02  0.7816164E-02  0.1312668E+00
        -11   -1    0    0    0    0  0.00000000000E+00  0.00000000000E+00  0.45593999997E+02  0.45594000000E+02  0.51100000000E-03 0. -1.
         11   -1    0    0    0    0 -0.00000000000E+00 -0.00000000000E+00 -0.45593999997E+02  0.45594000000E+02  0.51100000000E-03 0.  1.
    9900012    2    1    2    0    0  0.22599918115E+02  0.36937193435E+02 -0.29172938317E+01  0.47787272345E+02  0.20000005931E+02 0.  0.
        -12    1    1    2    0    0 -0.22599918115E+02 -0.36937193435E+02  0.29172938317E+01  0.43400727655E+02  0.00000000000E+00 0.  1.
         11    1    3    3    0    0 -0.82369267018E+00  0.78621744984E+01  0.81740760707E-01  0.79056270638E+01  0.51100000000E-03 0. -1.
        -11    1    3    3    0    0  0.56909258675E+01  0.15659746974E+02 -0.54046075730E+01  0.17516395057E+02  0.51100000000E-03 0.  1.
         12    1    3    3    0    0  0.17732684918E+02  0.13415271963E+02  0.24055729806E+01  0.22365250224E+02  0.00000000000E+00 0. -1.
</event>
<event>
 7    1  0.2505412E-009  0.4778726E+02  0.7816164E-02  0.1312668E+00
        -11   -1    0    0    0    0  0.00000000000E+00  0.00000000000E+00  0.45593999997E+02  0.45594000000E+02  0.51100000000E-03 0.  1.
         11   -1    0    0    0    0 -0.00000000000E+00 -0.00000000000E+00 -0.45593999997E+02  0.45594000000E+02  0.51100000000E-03 0. -1.
    9900012    2    1    2    0    0 -0.11861095717E+01 -0.10558829137E+02 -0.42080024205E+02  0.47787260770E+02  0.19999953153E+02 0.  0.
        -12    1    1    2    0    0  0.11861095717E+01  0.10558829137E+02  0.42080024205E+02  0.43400739230E+02  0.00000000000E+00 0.  1.
         11    1    3    3    0    0 -0.64557749360E+00 -0.54588840635E+01 -0.28014852284E+02  0.28549047870E+02  0.51100000000E-03 0. -1.
        -11    1    3    3    0    0 -0.23743507715E+01 -0.83415211983E+01 -0.66102981377E+01  0.10904795240E+02  0.51100000000E-03 0.  1.
         12    1    3    3    0    0  0.18338186935E+01  0.32415761252E+01 -0.74548737833E+01  0.83334176603E+01  0.00000000000E+00 0. -1.
</event>
<event>
 7    1  0.2505412E-009  0.4778729E+02  0.7816164E-02  0.1312668E+00
        -11   -1    0    0    0    0  0.00000000000E+00  0.00000000000E+00  0.45593999997E+02  0.45594000000E+02  0.51100000000E-03 0.  1.
         11   -1    0    0    0    0 -0.00000000000E+00 -0.00000000000E+00 -0.45593999997E+02  0.45594000000E+02  0.51100000000E-03 0. -1.
    9900012    2    1    2    0    0  0.13738411949E+02 -0.13282693190E+02 -0.38967266222E+02  0.47787288738E+02  0.20000080672E+02 0.  0.
        -12    1    1    2    0    0 -0.13738411949E+02  0.13282693190E+02  0.38967266222E+02  0.43400711262E+02  0.00000000000E+00 0.  1.
         11    1    3    3    0    0  0.13494977673E+01 -0.32431460298E+01 -0.99162817113E+01  0.10520065762E+02  0.51100000000E-03 0. -1.
        -11    1    3    3    0    0 -0.28590630874E+01  0.21089049857E+01 -0.68841316004E+01  0.77468051563E+01  0.51100000000E-03 0.  1.
         12    1    3    3    0    0  0.15247977269E+02 -0.12148452146E+02 -0.22166852910E+02  0.29520417820E+02  0.00000000000E+00 0. -1.
</event>
<event>
 7    1  0.2849300E-009  0.4778727E+02  0.7816164E-02  0.1312668E+00
        -11   -1    0    0    0    0  0.00000000000E+00  0.00000000000E+00  0.45593999997E+02  0.45594000000E+02  0.51100000000E-03 0. -1.
         11   -1    0    0    0    0 -0.00000000000E+00 -0.00000000000E+00 -0.45593999997E+02  0.45594000000E+02  0.51100000000E-03 0.  1.
    9900012    2    1    2    0    0 -0.13607372371E+02 -0.86286579968E+01  0.40298995454E+02  0.47787270095E+02  0.19999995671E+02 0.  0.
        -12    1    1    2    0    0  0.13607372371E+02  0.86286579968E+01 -0.40298995454E+02  0.43400729905E+02  0.00000000000E+00 0.  1.
         11    1    3    3    0    0 -0.13160374432E+02 -0.24030621541E+01  0.25620868142E+02  0.28903270533E+02  0.51100000000E-03 0. -1.
        -11    1    3    3    0    0 -0.20058100262E+01 -0.11164091429E+01 -0.86150267006E+00  0.24519034131E+01  0.51100000000E-03 0.  1.
         12    1    3    3    0    0  0.15588120868E+01 -0.51091866998E+01  0.15539629982E+02  0.16432096149E+02  0.00000000000E+00 0. -1.
</event>
<event>
 7    1  0.2505412E-009  0.4778727E+02  0.7816164E-02  0.1312668E+00
        -11   -1    0    0    0    0  0.00000000000E+00  0.00000000000E+00  0.45593999997E+02  0.45594000000E+02  0.51100000000E-03 0.  1.
         11   -1    0    0    0    0 -0.00000000000E+00 -0.00000000000E+00 -0.45593999997E+02  0.45594000000E+02  0.51100000000E-03 0. -1.
    9900012    2    1    2    0    0  0.63588092118E+01  0.29865989731E+02 -0.30841711041E+02  0.47787274924E+02  0.20000017688E+02 0.  0.
        -12    1    1    2    0    0 -0.63588092118E+01 -0.29865989731E+02  0.30841711041E+02  0.43400725076E+02  0.00000000000E+00 0.  1.
         11    1    3    3    0    0  0.41275808908E+01  0.17462035526E+02 -0.16055542391E+02  0.24077791644E+02  0.51100000000E-03 0. -1.
        -11    1    3    3    0    0 -0.31241599020E+01  0.82060221917E+01 -0.16767823135E+01  0.89392826609E+01  0.51100000000E-03 0.  1.
        -12    1    3    3    0    0  0.53553882230E+01  0.41979320134E+01 -0.13109386337E+02  0.14770200619E+02  0.00000000000E+00 0.  1.
</event>
<event>
 7    1  0.2505412E-009  0.4778727E+02  0.7816164E-02  0.1312668E+00
        -11   -1    0    0    0    0  0.00000000000E+00  0.00000000000E+00  0.45593999997E+02  0.45594000000E+02  0.51100000000E-03 0.  1.
         11   -1    0    0    0    0 -0.00000000000E+00 -0.00000000000E+00 -0.45593999997E+02  0.45594000000E+02  0.51100000000E-03 0. -1.
    9900012    2    1    2    0    0  0.25966822179E+01  0.31347746247E+02 -0.29903168055E+02  0.47787269441E+02  0.19999992691E+02 0.  0.
        -12    1    1    2    0    0 -0.25966822179E+01 -0.31347746247E+02  0.29903168055E+02  0.43400730559E+02  0.00000000000E+00 0.  1.
         11    1    3    3    0    0  0.24741214894E+01  0.22925565207E+02 -0.20185051709E+02  0.30645376975E+02  0.51100000000E-03 0. -1.
        -11    1    3    3    0    0  0.41531009345E+01  0.83053745532E+01 -0.92084488202E+01  0.13077577137E+02  0.51100000000E-03 0.  1.
        -12    1    3    3    0    0 -0.40305402061E+01  0.11680648667E+00 -0.50966752581E+00  0.40643153292E+01  0.00000000000E+00 0.  1.
</event>
<event>
 7    1  0.2505412E-009  0.4778728E+02  0.7816164E-02  0.1312668E+00
        -11   -1    0    0    0    0  0.00000000000E+00  0.00000000000E+00  0.45593999997E+02  0.45594000000E+02  0.51100000000E-03 0.  1.
         11   -1    0    0    0    0 -0.00000000000E+00 -0.00000000000E+00 -0.45593999997E+02  0.45594000000E+02  0.51100000000E-03 0. -1.
    9900012    2    1    2    0    0 -0.11246838228E+02  0.60737318034E+00 -0.41913752218E+02  0.47787275383E+02  0.20000019782E+02 0.  0.
        -12    1    1    2    0    0  0.11246838228E+02 -0.60737318034E+00  0.41913752218E+02  0.43400724617E+02  0.00000000000E+00 0.  1.
         11    1    3    3    0    0 -0.31356172088E+01 -0.58911584753E+01 -0.83590821077E+01  0.10696359072E+02  0.51100000000E-03 0. -1.
        -11    1    3    3    0    0  0.27022519439E+01  0.24957152574E+01 -0.13137930976E+02  0.13643166451E+02  0.51100000000E-03 0.  1.
         12    1    3    3    0    0 -0.10813472963E+02  0.40028163982E+01 -0.20416739134E+02  0.23447749860E+02  0.00000000000E+00 0. -1.
</event>
<event>
 7    1  0.2505412E-009  0.4778727E+02  0.7816164E-02  0.1312668E+00
        -11   -1    0    0    0    0  0.00000000000E+00  0.00000000000E+00  0.45593999997E+02  0.45594000000E+02  0.51100000000E-03 0.  1.
         11   -1    0    0    0    0 -0.00000000000E+00 -0.00000000000E+00 -0.45593999997E+02  0.45594000000E+02  0.51100000000E-03 0. -1.
    9900012    2    1    2    0    0 -0.93235131362E+01  0.31006322645E+02 -0.28901618836E+02  0.47787268296E+02  0.19999987468E+02 0.  0.
        -12    1    1    2    0    0  0.93235131362E+01 -0.31006322645E+02  0.28901618836E+02  0.43400731704E+02  0.00000000000E+00 0.  1.
         11    1    3    3    0    0 -0.47917610368E+01  0.21344465784E+02 -0.11352240694E+02  0.24645903563E+02  0.51100000000E-03 0. -1.
        -11    1    3    3    0    0 -0.16713491939E+01 -0.38642835323E+00  0.90154023891E+00  0.19379138432E+01  0.51100000000E-03 0.  1.
        -12    1    3    3    0    0 -0.28604029055E+01  0.10048285214E+02 -0.18450918381E+02  0.21203450889E+02  0.00000000000E+00 0.  1.
</event>
<event>
 7    1  0.2505412E-009  0.4778727E+02  0.7816164E-02  0.1312668E+00
        -11   -1    0    0    0    0  0.00000000000E+00  0.00000000000E+00  0.45593999997E+02  0.45594000000E+02  0.51100000000E-03 0.  1.
         11   -1    0    0    0    0 -0.00000000000E+00 -0.00000000000E+00 -0.45593999997E+02  0.45594000000E+02  0.51100000000E-03 0. -1.
    9900012    2    1    2    0    0  0.32366980607E+02 -0.47608714542E+00  0.28909773445E+02  0.47787273126E+02  0.20000009491E+02 0.  0.
        -12    1    1    2    0    0 -0.32366980607E+02  0.47608714542E+00 -0.28909773445E+02  0.43400726874E+02  0.00000000000E+00 0.  1.
         11    1    3    3    0    0  0.16187268502E+02  0.28323469944E+01  0.62047347773E+01  0.17565551086E+02  0.51100000000E-03 0. -1.
        -11    1    3    3    0    0 -0.47372189596E+00 -0.58341792076E+00 -0.92060470613E+00  0.11884032106E+01  0.51100000000E-03 0.  1.
         12    1    3    3    0    0  0.16653434001E+02 -0.27250162190E+01  0.23625643374E+02  0.29033318829E+02  0.00000000000E+00 0. -1.
</event>
<event>
 7    1  0.2505412E-009  0.4778727E+02  0.7816164E-02  0.1312668E+00
        -11   -1    0    0    0    0  0.00000000000E+00  0.00000000000E+00  0.45593999997E+02  0.45594000000E+02  0.51100000000E-03 0.  1.
         11   -1    0    0    0    0 -0.00000000000E+00 -0.00000000000E+00 -0.45593999997E+02  0.45594000000E+02  0.51100000000E-03 0. -1.
    9900012    2    1    2    0    0  0.44239596218E+01 -0.15412421004E+02 -0.40330006281E+02  0.47787267903E+02  0.19999985677E+02 0.  0.
        -12    1    1    2    0    0 -0.44239596218E+01  0.15412421004E+02  0.40330006281E+02  0.43400732097E+02  0.00000000000E+00 0.  1.
         11    1    3    3    0    0  0.24076258890E+01  0.13847521768E+01 -0.99402480345E+01  0.10320985043E+02  0.51100000000E-03 0. -1.
        -11    1    3    3    0    0  0.49990074466E+01 -0.71211275612E+01 -0.47791829447E+01  0.99267881550E+01  0.51100000000E-03 0.  1.
         12    1    3    3    0    0 -0.29826737139E+01 -0.96760456196E+01 -0.25610575302E+02  0.27539494705E+02  0.00000000000E+00 0. -1.
</event>
<event>
 7    1  0.2505412E-009  0.4778727E+02  0.7816164E-02  0.1312668E+00
        -11   -1    0    0    0    0  0.00000000000E+00  0.00000000000E+00  0.45593999997E+02  0.45594000000E+02  0.51100000000E-03 0.  1.
         11   -1    0    0    0    0 -0.00000000000E+00 -0.00000000000E+00 -0.45593999997E+02  0.45594000000E+02  0.51100000000E-03 0. -1.
    9900012    2    1    2    0    0 -0.39723030750E+02 -0.17484343337E+02  0.45010368784E-01  0.47787268902E+02  0.19999990232E+02 0.  0.
        -12    1    1    2    0    0  0.39723030750E+02  0.17484343337E+02 -0.45010368784E-01  0.43400731098E+02  0.00000000000E+00 0.  1.
         11    1    3    3    0    0  0.13364460577E+01 -0.15099644344E+00 -0.21137425527E+01  0.25053534344E+01  0.51100000000E-03 0. -1.
        -11    1    3    3    0    0 -0.24985992018E+02 -0.77410911263E+01 -0.15355275210E+01  0.26202712340E+02  0.51100000000E-03 0.  1.
        -12    1    3    3    0    0 -0.16073484789E+02 -0.95922557675E+01  0.36942804425E+01  0.19079203127E+02  0.00000000000E+00 0.  1.
</event>
<event>
 7    1  0.2505412E-009  0.4778727E+02  0.7816164E-02  0.1312668E+00
        -11   -1    0    0    0    0  0.00000000000E+00  0.00000000000E+00  0.45593999997E+02  0.45594000000E+02  0.51100000000E-03 0.  1.
         11   -1    0    0    0    0 -0.00000000000E+00 -0.00000000000E+00 -0.45593999997E+02  0.45594000000E+02  0.51100000000E-03 0. -1.
    9900012    2    1    2    0    0 -0.14600943318E+01  0.42788016933E+02  0.71187854333E+01  0.47787269885E+02  0.19999994712E+02 0.  0.
        -12    1    1    2    0    0  0.14600943318E+01 -0.42788016933E+02 -0.71187854333E+01  0.43400730115E+02  0.00000000000E+00 0.  1.
         11    1    3    3    0    0 -0.73642643639E+01  0.19017471534E+02  0.71696270641E+01  0.21617126675E+02  0.51100000000E-03 0. -1.
        -11    1    3    3    0    0  0.57669090384E+00  0.19829353326E+01  0.28864820307E+01  0.35491384456E+01  0.51100000000E-03 0.  1.
        -12    1    3    3    0    0  0.53274791283E+01  0.21787610066E+02 -0.29373236615E+01  0.22621004764E+02  0.00000000000E+00 0.  1.
</event>
<event>
 7    1  0.2505412E-009  0.4778727E+02  0.7816164E-02  0.1312668E+00
        -11   -1    0    0    0    0  0.00000000000E+00  0.00000000000E+00  0.45593999997E+02  0.45594000000E+02  0.51100000000E-03 0.  1.
         11   -1    0    0    0    0 -0.00000000000E+00 -0.00000000000E+00 -0.45593999997E+02  0.45594000000E+02  0.51100000000E-03 0. -1.
    9900012    2    1    2    0    0  0.13023783203E+02 -0.24467460327E+02 -0.33396825162E+02  0.47787268731E+02  0.19999989453E+02 0.  0.
        -12    1    1    2    0    0 -0.13023783203E+02  0.24467460327E+02  0.33396825162E+02  0.43400731269E+02  0.00000000000E+00 0.  1.
         11    1    3    3    0    0  0.17004815481E+01 -0.23435857889E+01 -0.12124867997E+02  0.12465811488E+02  0.51100000000E-03 0. -1.
        -11    1    3    3    0    0  0.13318175007E+02 -0.12166225141E+02 -0.13338783609E+02  0.22434659974E+02  0.51100000000E-03 0.  1.
         12    1    3    3    0    0 -0.19948733521E+01 -0.99576493970E+01 -0.79331735561E+01  0.12886797270E+02  0.00000000000E+00 0. -1.
</event>
<event>
 7    1  0.2505412E-009  0.4778727E+02  0.7816164E-02  0.1312668E+00
        -11   -1    0    0    0    0  0.00000000000E+00  0.00000000000E+00  0.45593999997E+02  0.45594000000E+02  0.51100000000E-03 0.  1.
         11   -1    0    0    0    0 -0.00000000000E+00 -0.00000000000E+00 -0.45593999997E+02  0.45594000000E+02  0.51100000000E-03 0. -1.
    9900012    2    1    2    0    0 -0.37873739268E+02 -0.10331877875E+02 -0.18505544502E+02  0.47787274155E+02  0.20000014180E+02 0.  0.
        -12    1    1    2    0    0  0.37873739268E+02  0.10331877875E+02  0.18505544502E+02  0.43400725845E+02  0.00000000000E+00 0.  1.
         11    1    3    3    0    0 -0.21386308899E+02 -0.94670475514E+01 -0.18728253914E+02  0.29962421341E+02  0.51100000000E-03 0. -1.
        -11    1    3    3    0    0 -0.94402662442E+01  0.15886559820E+01 -0.24789957499E+01  0.98887751910E+01  0.51100000000E-03 0.  1.
        -12    1    3    3    0    0 -0.70471641253E+01 -0.24534863052E+01  0.27017051616E+01  0.79360776230E+01  0.00000000000E+00 0.  1.
</event>
<event>
 7    1  0.2505412E-009  0.4778728E+02  0.7816164E-02  0.1312668E+00
        -11   -1    0    0    0    0  0.00000000000E+00  0.00000000000E+00  0.45593999997E+02  0.45594000000E+02  0.51100000000E-03 0.  1.
         11   -1    0    0    0    0 -0.00000000000E+00 -0.00000000000E+00 -0.45593999997E+02  0.45594000000E+02  0.51100000000E-03 0. -1.
    9900012    2    1    2    0    0  0.18872241197E+01  0.28038006195E+02 -0.33074631844E+02  0.47787277911E+02  0.20000031306E+02 0.  0.
        -12    1    1    2    0    0 -0.18872241197E+01 -0.28038006195E+02  0.33074631844E+02  0.43400722089E+02  0.00000000000E+00 0.  1.
         11    1    3    3    0    0  0.67143818553E+01  0.76622532510E+01 -0.46180377089E+01  0.11185674817E+02  0.51100000000E-03 0.  1.
        -11    1    3    3    0    0  0.39513864637E+00  0.15743610835E+02 -0.16900262526E+02  0.23100569049E+02  0.51100000000E-03 0. -1.
        -12    1    3    3    0    0 -0.52222963820E+01  0.46321421095E+01 -0.11556331609E+02  0.13501034045E+02  0.00000000000E+00 0.  1.
</event>
<event>
 7    1  0.2505412E-009  0.4778727E+02  0.7816164E-02  0.1312668E+00
        -11   -1    0    0    0    0  0.00000000000E+00  0.00000000000E+00  0.45593999997E+02  0.45594000000E+02  0.51100000000E-03 0.  1.
         11   -1    0    0    0    0 -0.00000000000E+00 -0.00000000000E+00 -0.45593999997E+02  0.45594000000E+02  0.51100000000E-03 0. -1.
    9900012    2    1    2    0    0 -0.31975034265E+02 -0.22167503363E+02 -0.19230771954E+02  0.47787267155E+02  0.19999982264E+02 0.  0.
        -12    1    1    2    0    0  0.31975034265E+02  0.22167503363E+02  0.19230771954E+02  0.43400732845E+02  0.00000000000E+00 0.  1.
         11    1    3    3    0    0 -0.11559206815E+02 -0.14007231817E+02 -0.51527373428E+01  0.18877725174E+02  0.51100000000E-03 0. -1.
        -11    1    3    3    0    0 -0.39352086024E+01  0.41235946833E+00  0.19158467474E+01  0.43961774414E+01  0.51100000000E-03 0.  1.
         12    1    3    3    0    0 -0.16480618848E+02 -0.85726310142E+01 -0.15993881358E+02  0.24513364539E+02  0.00000000000E+00 0. -1.
</event>
<event>
 7    1  0.2505412E-009  0.4778727E+02  0.7816164E-02  0.1312668E+00
        -11   -1    0    0    0    0  0.00000000000E+00  0.00000000000E+00  0.45593999997E+02  0.45594000000E+02  0.51100000000E-03 0.  1.
         11   -1    0    0    0    0 -0.00000000000E+00 -0.00000000000E+00 -0.45593999997E+02  0.45594000000E+02  0.51100000000E-03 0. -1.
    9900012    2    1    2    0    0  0.16043551418E+01 -0.24598460873E+02 -0.35720654782E+02  0.47787269467E+02  0.19999992809E+02 0.  0.
        -12    1    1    2    0    0 -0.16043551418E+01  0.24598460873E+02  0.35720654782E+02  0.43400730533E+02  0.00000000000E+00 0.  1.
         11    1    3    3    0    0  0.93332188783E+01 -0.13142475969E+02 -0.19992786891E+02  0.25681611654E+02  0.51100000000E-03 0. -1.
        -11    1    3    3    0    0 -0.19259097052E+01 -0.44430772504E+00  0.88937118371E-01  0.19784963025E+01  0.51100000000E-03 0.  1.
         12    1    3    3    0    0 -0.58029540314E+01 -0.11011677179E+02 -0.15816805009E+02  0.20127161511E+02  0.00000000000E+00 0. -1.
</event>
<event>
 7    1  0.2505412E-009  0.4778727E+02  0.7816164E-02  0.1312668E+00
        -11   -1    0    0    0    0  0.00000000000E+00  0.00000000000E+00  0.45593999997E+02  0.45594000000E+02  0.51100000000E-03 0.  1.
         11   -1    0    0    0    0 -0.00000000000E+00 -0.00000000000E+00 -0.45593999997E+02  0.45594000000E+02  0.51100000000E-03 0. -1.
    9900012    2    1    2    0    0 -0.15309992882E+02 -0.12662412971E+01 -0.40590933537E+02  0.47787272650E+02  0.20000007322E+02 0.  0.
        -12    1    1    2    0    0  0.15309992882E+02  0.12662412971E+01  0.40590933537E+02  0.43400727350E+02  0.00000000000E+00 0.  1.
         11    1    3    3    0    0 -0.37302834029E+01  0.54982616457E+01 -0.53360233568E+01  0.85216806392E+01  0.51100000000E-03 0. -1.
        -11    1    3    3    0    0 -0.10926629368E+02 -0.37374504805E+01 -0.15825627221E+02  0.19591075586E+02  0.51100000000E-03 0.  1.
        -12    1    3    3    0    0 -0.65308011113E+00 -0.30270524623E+01 -0.19429282960E+02  0.19674516425E+02  0.00000000000E+00 0.  1.
</event>
<event>
 7    1  0.2763858E-009  0.4778727E+02  0.7816164E-02  0.1312668E+00
        -11   -1    0    0    0    0  0.00000000000E+00  0.00000000000E+00  0.45593999997E+02  0.45594000000E+02  0.51100000000E-03 0. -1.
         11   -1    0    0    0    0 -0.00000000000E+00 -0.00000000000E+00 -0.45593999997E+02  0.45594000000E+02  0.51100000000E-03 0.  1.
    9900012    2    1    2    0    0 -0.22702538261E+02  0.36171945854E+02  0.77335816208E+01  0.47787271952E+02  0.20000004140E+02 0.  0.
        -12    1    1    2    0    0  0.22702538261E+02 -0.36171945854E+02 -0.77335816208E+01  0.43400728048E+02  0.00000000000E+00 0.  1.
         11    1    3    3    0    0 -0.79798737108E+01  0.16329123224E+02  0.29484904036E+01  0.18412285182E+02  0.51100000000E-03 0. -1.
        -11    1    3    3    0    0  0.88367131253E+00  0.72732987673E-01 -0.29068564677E+01  0.30390754945E+01  0.51100000000E-03 0.  1.
        -12    1    3    3    0    0 -0.15606335863E+02  0.19770089642E+02  0.76919476850E+01  0.26335911276E+02  0.00000000000E+00 0.  1.
</event>
<event>
 7    1  0.2505412E-009  0.4778727E+02  0.7816164E-02  0.1312668E+00
        -11   -1    0    0    0    0  0.00000000000E+00  0.00000000000E+00  0.45593999997E+02  0.45594000000E+02  0.51100000000E-03 0. -1.
         11   -1    0    0    0    0 -0.00000000000E+00 -0.00000000000E+00 -0.45593999997E+02  0.45594000000E+02  0.51100000000E-03 0.  1.
    9900012    2    1    2    0    0  0.42508018364E+02 -0.30220508460E+01 -0.82194030739E+01  0.47787274160E+02  0.20000014205E+02 0.  0.
        -12    1    1    2    0    0 -0.42508018364E+02  0.30220508460E+01  0.82194030739E+01  0.43400725840E+02  0.00000000000E+00 0.  1.
         11    1    3    3    0    0  0.53540575670E+01 -0.38380769982E+01  0.41001579769E+00  0.66003697389E+01  0.51100000000E-03 0. -1.
        -11    1    3    3    0    0  0.17477933770E+02  0.66899240716E+01  0.48522427510E+00  0.18720809165E+02  0.51100000000E-03 0.  1.
        -12    1    3    3    0    0  0.19676027027E+02 -0.58738979194E+01 -0.91146431467E+01  0.22466095256E+02  0.00000000000E+00 0.  1.
</event>
<event>
 7    1  0.2505412E-009  0.4778727E+02  0.7816164E-02  0.1312668E+00
        -11   -1    0    0    0    0  0.00000000000E+00  0.00000000000E+00  0.45593999997E+02  0.45594000000E+02  0.51100000000E-03 0. -1.
         11   -1    0    0    0    0 -0.00000000000E+00 -0.00000000000E+00 -0.45593999997E+02  0.45594000000E+02  0.51100000000E-03 0.  1.
    9900012    2    1    2    0    0 -0.39820670057E+02  0.80750918730E+01 -0.15255502861E+02  0.47787271433E+02  0.20000001773E+02 0.  0.
        -12    1    1    2    0    0  0.39820670057E+02 -0.80750918730E+01  0.15255502861E+02  0.43400728567E+02  0.00000000000E+00 0.  1.
         11    1    3    3    0    0 -0.17260487667E+02 -0.95260572934E+00 -0.45698206606E+01  0.17880580341E+02  0.51100000000E-03 0. -1.
        -11    1    3    3    0    0 -0.17851397314E+02  0.76710517917E+01 -0.14037098012E+02  0.23969929965E+02  0.51100000000E-03 0.  1.
         12    1    3    3    0    0 -0.47087850756E+01  0.13566458107E+01  0.33514158116E+01  0.59367611276E+01  0.00000000000E+00 0. -1.
</event>
<event>
 7    1  0.2505412E-009  0.4778727E+02  0.7816164E-02  0.1312668E+00
        -11   -1    0    0    0    0  0.00000000000E+00  0.00000000000E+00  0.45593999997E+02  0.45594000000E+02  0.51100000000E-03 0.  1.
         11   -1    0    0    0    0 -0.00000000000E+00 -0.00000000000E+00 -0.45593999997E+02  0.45594000000E+02  0.51100000000E-03 0. -1.
    9900012    2    1    2    0    0  0.16902611951E+02 -0.46751470578E+01 -0.39699728044E+02  0.47787266164E+02  0.19999977746E+02 0.  0.
        -12    1    1    2    0    0 -0.16902611951E+02  0.46751470578E+01  0.39699728044E+02  0.43400733836E+02  0.00000000000E+00 0.  1.
         11    1    3    3    0    0  0.95233452267E+01 -0.95227926535E+01 -0.10700183007E+02  0.17200918605E+02  0.51100000000E-03 0.  1.
        -11    1    3    3    0    0  0.40604034675E+01  0.20011462528E+01 -0.85478768776E+01  0.96725209754E+01  0.51100000000E-03 0. -1.
        -12    1    3    3    0    0  0.33188632573E+01  0.28464993429E+01 -0.20451668159E+02  0.20913826583E+02  0.00000000000E+00 0.  1.
</event>
<event>
 7    1  0.2505412E-009  0.4778728E+02  0.7816164E-02  0.1312668E+00
        -11   -1    0    0    0    0  0.00000000000E+00  0.00000000000E+00  0.45593999997E+02  0.45594000000E+02  0.51100000000E-03 0.  1.
         11   -1    0    0    0    0 -0.00000000000E+00 -0.00000000000E+00 -0.45593999997E+02  0.45594000000E+02  0.51100000000E-03 0. -1.
    9900012    2    1    2    0    0  0.11355962806E+02 -0.27412221830E+02 -0.31673882179E+02  0.47787278701E+02  0.20000034910E+02 0.  0.
        -12    1    1    2    0    0 -0.11355962806E+02  0.27412221830E+02  0.31673882179E+02  0.43400721299E+02  0.00000000000E+00 0.  1.
         11    1    3    3    0    0  0.18554259561E+01 -0.22813329195E+02 -0.25572643201E+02  0.34319829181E+02  0.51100000000E-03 0. -1.
        -11    1    3    3    0    0  0.63937863457E+01 -0.55406717826E+01 -0.56883399070E+01  0.10194937901E+02  0.51100000000E-03 0.  1.
        -12    1    3    3    0    0  0.31067505046E+01  0.94177914715E+00 -0.41289907153E+00  0.32725116200E+01  0.00000000000E+00 0.  1.
</event>
<event>
 7    1  0.2505412E-009  0.4778727E+02  0.7816164E-02  0.1312668E+00
        -11   -1    0    0    0    0  0.00000000000E+00  0.00000000000E+00  0.45593999997E+02  0.45594000000E+02  0.51100000000E-03 0. -1.
         11   -1    0    0    0    0 -0.00000000000E+00 -0.00000000000E+00 -0.45593999997E+02  0.45594000000E+02  0.51100000000E-03 0.  1.
    9900012    2    1    2    0    0 -0.91939808991E+01 -0.39415116883E+02 -0.15669788083E+02  0.47787274404E+02  0.20000015318E+02 0.  0.
        -12    1    1    2    0    0  0.91939808991E+01  0.39415116883E+02  0.15669788083E+02  0.43400725596E+02  0.00000000000E+00 0.  1.
         11    1    3    3    0    0 -0.75173511317E+01 -0.14765274915E+02 -0.11793282493E+01  0.16610681104E+02  0.51100000000E-03 0. -1.
        -11    1    3    3    0    0 -0.48620543273E+01 -0.70989776461E+01 -0.91421748865E+01  0.12554458085E+02  0.51100000000E-03 0.  1.
         12    1    3    3    0    0  0.31854245599E+01 -0.17550864322E+02 -0.53482849473E+01  0.18622135215E+02  0.00000000000E+00 0. -1.
</event>
<event>
 7    1  0.2505412E-009  0.4778727E+02  0.7816164E-02  0.1312668E+00
        -11   -1    0    0    0    0  0.00000000000E+00  0.00000000000E+00  0.45593999997E+02  0.45594000000E+02  0.51100000000E-03 0.  1.
         11   -1    0    0    0    0 -0.00000000000E+00 -0.00000000000E+00 -0.45593999997E+02  0.45594000000E+02  0.51100000000E-03 0. -1.
    9900012    2    1    2    0    0  0.13090033642E+02  0.90185326536E+01 -0.40384907200E+02  0.47787266809E+02  0.19999980687E+02 0.  0.
        -12    1    1    2    0    0 -0.13090033642E+02 -0.90185326536E+01  0.40384907200E+02  0.43400733191E+02  0.00000000000E+00 0.  1.
         11    1    3    3    0    0  0.59201029991E+01 -0.13438624618E+01 -0.12922633935E+02  0.14277536689E+02  0.51100000000E-03 0. -1.
        -11    1    3    3    0    0 -0.42743526646E+01  0.32233762458E+01 -0.50969692325E+01  0.73918428515E+01  0.51100000000E-03 0.  1.
         12    1    3    3    0    0  0.11444283308E+02  0.71390188696E+01 -0.22365304033E+02  0.26117887268E+02  0.00000000000E+00 0. -1.
</event>
<event>
 7    1  0.2505412E-009  0.4778727E+02  0.7816164E-02  0.1312668E+00
        -11   -1    0    0    0    0  0.00000000000E+00  0.00000000000E+00  0.45593999997E+02  0.45594000000E+02  0.51100000000E-03 0.  1.
         11   -1    0    0    0    0 -0.00000000000E+00 -0.00000000000E+00 -0.45593999997E+02  0.45594000000E+02  0.51100000000E-03 0. -1.
    9900012    2    1    2    0    0  0.27999860409E+01  0.43225088136E+02 -0.27157463743E+01  0.47787269078E+02  0.19999991035E+02 0.  0.
        -12    1    1    2    0    0 -0.27999860409E+01 -0.43225088136E+02  0.27157463743E+01  0.43400730922E+02  0.00000000000E+00 0.  1.
         11    1    3    3    0    0  0.13596061593E+01  0.78477213835E+01  0.10482196802E+01  0.80333072007E+01  0.51100000000E-03 0. -1.
        -11    1    3    3    0    0  0.50962589148E+01  0.13548252501E+01 -0.13895647143E+01  0.54532831158E+01  0.51100000000E-03 0.  1.
        -12    1    3    3    0    0 -0.36558790332E+01  0.34022541502E+02 -0.23744013401E+01  0.34300678762E+02  0.00000000000E+00 0.  1.
</event>
<event>
 7    1  0.2505412E-009  0.4778727E+02  0.7816164E-02  0.1312668E+00
        -11   -1    0    0    0    0  0.00000000000E+00  0.00000000000E+00  0.45593999997E+02  0.45594000000E+02  0.51100000000E-03 0.  1.
         11   -1    0    0    0    0 -0.00000000000E+00 -0.00000000000E+00 -0.45593999997E+02  0.45594000000E+02  0.51100000000E-03 0. -1.
    9900012    2    1    2    0    0  0.21019881014E+02 -0.19247563945E+02 -0.32731012639E+02  0.47787270697E+02  0.19999998414E+02 0.  0.
        -12    1    1    2    0    0 -0.21019881014E+02  0.19247563945E+02  0.32731012639E+02  0.43400729303E+02  0.00000000000E+00 0.  1.
         11    1    3    3    0    0  0.53003247051E+01 -0.14076533454E+02 -0.19507332514E+02  0.24632869466E+02  0.51100000000E-03 0. -1.
        -11    1    3    3    0    0  0.27742520467E+01  0.23026619544E+01 -0.47779535058E+01  0.59856132902E+01  0.51100000000E-03 0.  1.
        -12    1    3    3    0    0  0.12945304262E+02 -0.74736924452E+01 -0.84457266200E+01  0.17168787941E+02  0.00000000000E+00 0.  1.
</event>
<event>
 7    1  0.2505412E-009  0.4778727E+02  0.7816164E-02  0.1312668E+00
        -11   -1    0    0    0    0  0.00000000000E+00  0.00000000000E+00  0.45593999997E+02  0.45594000000E+02  0.51100000000E-03 0. -1.
         11   -1    0    0    0    0 -0.00000000000E+00 -0.00000000000E+00 -0.45593999997E+02  0.45594000000E+02  0.51100000000E-03 0.  1.
    9900012    2    1    2    0    0  0.40226618114E+02  0.15338385243E+02 -0.54932935362E+01  0.47787272579E+02  0.20000006998E+02 0.  0.
        -12    1    1    2    0    0 -0.40226618114E+02 -0.15338385243E+02  0.54932935362E+01  0.43400727421E+02  0.00000000000E+00 0.  1.
         11    1    3    3    0    0  0.15224626458E+02  0.60701802426E+01  0.15856264483E+01  0.16466649643E+02  0.51100000000E-03 0. -1.
        -11    1    3    3    0    0  0.13699293047E+00  0.53340878317E+01 -0.12245773974E+01  0.54745639208E+01  0.51100000000E-03 0.  1.
        -12    1    3    3    0    0  0.24864998726E+02  0.39341171688E+01 -0.58543425871E+01  0.25846059016E+02  0.00000000000E+00 0.  1.
</event>
<event>
 7    1  0.2505412E-009  0.4778728E+02  0.7816164E-02  0.1312668E+00
        -11   -1    0    0    0    0  0.00000000000E+00  0.00000000000E+00  0.45593999997E+02  0.45594000000E+02  0.51100000000E-03 0.  1.
         11   -1    0    0    0    0 -0.00000000000E+00 -0.00000000000E+00 -0.45593999997E+02  0.45594000000E+02  0.51100000000E-03 0. -1.
    9900012    2    1    2    0    0  0.22828233054E+02 -0.36864854674E+02 -0.18646847949E+01  0.47787276690E+02  0.20000025739E+02 0.  0.
        -12    1    1    2    0    0 -0.22828233054E+02  0.36864854674E+02  0.18646847949E+01  0.43400723310E+02  0.00000000000E+00 0.  1.
         11    1    3    3    0    0  0.90402720866E+01 -0.19587393715E+02 -0.43915994701E+01  0.22015418645E+02  0.51100000000E-03 0. -1.
        -11    1    3    3    0    0  0.99979524753E+01 -0.18934780308E+02  0.12756706021E+01  0.21450228315E+02  0.51100000000E-03 0.  1.
        -12    1    3    3    0    0  0.37900084921E+01  0.16573193490E+01  0.12512440731E+01  0.43216297302E+01  0.00000000000E+00 0.  1.
</event>
<event>
 7    1  0.2505412E-009  0.4778722E+02  0.7816164E-02  0.1312668E+00
        -11   -1    0    0    0    0  0.00000000000E+00  0.00000000000E+00  0.45593999997E+02  0.45594000000E+02  0.51100000000E-03 0.  1.
         11   -1    0    0    0    0 -0.00000000000E+00 -0.00000000000E+00 -0.45593999997E+02  0.45594000000E+02  0.51100000000E-03 0. -1.
    9900012    2    1    2    0    0 -0.28756369853E+00  0.33530361605E+02 -0.27554667517E+02  0.47787221848E+02  0.19999775691E+02 0.  0.
        -12    1    1    2    0    0  0.28756369853E+00 -0.33530361605E+02  0.27554667517E+02  0.43400778152E+02  0.00000000000E+00 0.  1.
         11    1    3    3    0    0 -0.62795537142E+01  0.29726707651E+01 -0.60703223468E+01  0.92259622795E+01  0.51100000000E-03 0.  1.
        -11    1    3    3    0    0  0.21053923796E+01  0.13910395869E+02 -0.14167609741E+02  0.19966295509E+02  0.51100000000E-03 0. -1.
        -12    1    3    3    0    0  0.38865976361E+01  0.16647294971E+02 -0.73167354292E+01  0.18594964060E+02  0.00000000000E+00 0.  1.
</event>
<event>
 7    1  0.2505412E-009  0.4778727E+02  0.7816164E-02  0.1312668E+00
        -11   -1    0    0    0    0  0.00000000000E+00  0.00000000000E+00  0.45593999997E+02  0.45594000000E+02  0.51100000000E-03 0. -1.
         11   -1    0    0    0    0 -0.00000000000E+00 -0.00000000000E+00 -0.45593999997E+02  0.45594000000E+02  0.51100000000E-03 0.  1.
    9900012    2    1    2    0    0  0.31278269659E+02 -0.29684712978E+02  0.49103063330E+01  0.47787269065E+02  0.19999990973E+02 0.  0.
        -12    1    1    2    0    0 -0.31278269659E+02  0.29684712978E+02 -0.49103063330E+01  0.43400730935E+02  0.00000000000E+00 0.  1.
         11    1    3    3    0    0  0.79931606036E+01 -0.29986340131E+01  0.57300262290E+01  0.10281810309E+02  0.51100000000E-03 0. -1.
        -11    1    3    3    0    0  0.21277421717E+02 -0.16386485533E+02 -0.20808055580E+01  0.26936505621E+02  0.51100000000E-03 0.  1.
        -12    1    3    3    0    0  0.20076873381E+01 -0.10299593432E+02  0.12610856619E+01  0.10568953134E+02  0.00000000000E+00 0.  1.
</event>
<event>
 7    1  0.2505412E-009  0.4778727E+02  0.7816164E-02  0.1312668E+00
        -11   -1    0    0    0    0  0.00000000000E+00  0.00000000000E+00  0.45593999997E+02  0.45594000000E+02  0.51100000000E-03 0.  1.
         11   -1    0    0    0    0 -0.00000000000E+00 -0.00000000000E+00 -0.45593999997E+02  0.45594000000E+02  0.51100000000E-03 0. -1.
    9900012    2    1    2    0    0 -0.41471747523E+00 -0.15898345347E+02 -0.40381851159E+02  0.47787270992E+02  0.19999999762E+02 0.  0.
        -12    1    1    2    0    0  0.41471747523E+00  0.15898345347E+02  0.40381851159E+02  0.43400729008E+02  0.00000000000E+00 0.  1.
         11    1    3    3    0    0 -0.20205971644E+01 -0.97344486462E+01 -0.31529950939E+02  0.33060249694E+02  0.51100000000E-03 0. -1.
        -11    1    3    3    0    0 -0.65473567077E+00 -0.84910782118E+01 -0.66663703637E+01  0.10815155204E+02  0.51100000000E-03 0.  1.
         12    1    3    3    0    0  0.22606153600E+01  0.23271815107E+01 -0.21855298568E+01  0.39118660949E+01  0.00000000000E+00 0. -1.
</event>
<event>
 7    1  0.2505412E-009  0.4778727E+02  0.7816164E-02  0.1312668E+00
        -11   -1    0    0    0    0  0.00000000000E+00  0.00000000000E+00  0.45593999997E+02  0.45594000000E+02  0.51100000000E-03 0. -1.
         11   -1    0    0    0    0 -0.00000000000E+00 -0.00000000000E+00 -0.45593999997E+02  0.45594000000E+02  0.51100000000E-03 0.  1.
    9900012    2    1    2    0    0 -0.43673477151E+01 -0.42774121340E+02 -0.59096530357E+01  0.47787272109E+02  0.20000004853E+02 0.  0.
        -12    1    1    2    0    0  0.43673477151E+01  0.42774121340E+02  0.59096530357E+01  0.43400727891E+02  0.00000000000E+00 0.  1.
         11    1    3    3    0    0 -0.24295869759E+00 -0.14996353382E+02 -0.29182206306E+00  0.15001160090E+02  0.51100000000E-03 0. -1.
        -11    1    3    3    0    0 -0.38240910564E+01 -0.36271215846E+01 -0.68014481958E+01  0.86046139494E+01  0.51100000000E-03 0.  1.
        -12    1    3    3    0    0 -0.30029796107E+00 -0.24150646374E+02  0.11836172232E+01  0.24181498069E+02  0.00000000000E+00 0.  1.
</event>
<event>
 7    1  0.2505412E-009  0.4778728E+02  0.7816164E-02  0.1312668E+00
        -11   -1    0    0    0    0  0.00000000000E+00  0.00000000000E+00  0.45593999997E+02  0.45594000000E+02  0.51100000000E-03 0. -1.
         11   -1    0    0    0    0 -0.00000000000E+00 -0.00000000000E+00 -0.45593999997E+02  0.45594000000E+02  0.51100000000E-03 0.  1.
    9900012    2    1    2    0    0  0.42336631098E+02  0.58344520887E+01  0.75625064247E+01  0.47787278032E+02  0.20000031858E+02 0.  0.
        -12    1    1    2    0    0 -0.42336631098E+02 -0.58344520887E+01 -0.75625064247E+01  0.43400721968E+02  0.00000000000E+00 0.  1.
         11    1    3    3    0    0  0.21558970604E+02 -0.24935502539E+00  0.12201431117E+01  0.21594910069E+02  0.51100000000E-03 0. -1.
        -11    1    3    3    0    0 -0.65231318764E+00 -0.13907996381E+01 -0.15315496243E+01  0.21692119862E+01  0.51100000000E-03 0.  1.
        -12    1    3    3    0    0  0.21429973682E+02  0.74746067522E+01  0.78739129373E+01  0.24023155976E+02  0.00000000000E+00 0.  1.
</event>
<event>
 7    1  0.2505412E-009  0.4778729E+02  0.7816164E-02  0.1312668E+00
        -11   -1    0    0    0    0  0.00000000000E+00  0.00000000000E+00  0.45593999997E+02  0.45594000000E+02  0.51100000000E-03 0.  1.
         11   -1    0    0    0    0 -0.00000000000E+00 -0.00000000000E+00 -0.45593999997E+02  0.45594000000E+02  0.51100000000E-03 0. -1.
    9900012    2    1    2    0    0 -0.38426574663E+02  0.18461011220E+02  0.81370281060E+01  0.47787288001E+02  0.20000077312E+02 0.  0.
        -12    1    1    2    0    0  0.38426574663E+02 -0.18461011220E+02 -0.81370281060E+01  0.43400711999E+02  0.00000000000E+00 0.  1.
         11    1    3    3    0    0 -0.26475332836E+02  0.11299075467E+02  0.10220143213E+01  0.28803764836E+02  0.51100000000E-03 0. -1.
        -11    1    3    3    0    0 -0.13598371033E+00  0.18623330142E+01 -0.23078348442E+01  0.29686491464E+01  0.51100000000E-03 0.  1.
         12    1    3    3    0    0 -0.11815258117E+02  0.52996027387E+01  0.94228486290E+01  0.16014874019E+02  0.00000000000E+00 0. -1.
</event>
<event>
 7    1  0.2505412E-009  0.4778727E+02  0.7816164E-02  0.1312668E+00
        -11   -1    0    0    0    0  0.00000000000E+00  0.00000000000E+00  0.45593999997E+02  0.45594000000E+02  0.51100000000E-03 0. -1.
         11   -1    0    0    0    0 -0.00000000000E+00 -0.00000000000E+00 -0.45593999997E+02  0.45594000000E+02  0.51100000000E-03 0.  1.
    9900012    2    1    2    0    0 -0.31529618936E+02 -0.20744458602E+02  0.21428344092E+02  0.47787270012E+02  0.19999995294E+02 0.  0.
        -12    1    1    2    0    0  0.31529618936E+02  0.20744458602E+02 -0.21428344092E+02  0.43400729988E+02  0.00000000000E+00 0.  1.
         11    1    3    3    0    0 -0.26849193244E+02 -0.11298285615E+02  0.15213521910E+02  0.32863074793E+02  0.51100000000E-03 0. -1.
        -11    1    3    3    0    0 -0.37962141023E+01 -0.14484564366E+01  0.55111397381E+01  0.68470379751E+01  0.51100000000E-03 0.  1.
        -12    1    3    3    0    0 -0.88421158970E+00 -0.79977165505E+01  0.70368244363E+00  0.80771572437E+01  0.00000000000E+00 0.  1.
</event>
<event>
 7    1  0.2505412E-009  0.4778727E+02  0.7816164E-02  0.1312668E+00
        -11   -1    0    0    0    0  0.00000000000E+00  0.00000000000E+00  0.45593999997E+02  0.45594000000E+02  0.51100000000E-03 0. -1.
         11   -1    0    0    0    0 -0.00000000000E+00 -0.00000000000E+00 -0.45593999997E+02  0.45594000000E+02  0.51100000000E-03 0.  1.
    9900012    2    1    2    0    0  0.23968549984E+02  0.31206467414E+02  0.18310879276E+02  0.47787270782E+02  0.19999998802E+02 0.  0.
        -12    1    1    2    0    0 -0.23968549984E+02 -0.31206467414E+02 -0.18310879276E+02  0.43400729218E+02  0.00000000000E+00 0.  1.
         11    1    3    3    0    0  0.10332145052E+02  0.27440021841E+02  0.11206703102E+02  0.31389460249E+02  0.51100000000E-03 0. -1.
        -11    1    3    3    0    0  0.78053588858E+01  0.42419183793E+01  0.49049372521E+01  0.10147704597E+02  0.51100000000E-03 0.  1.
         12    1    3    3    0    0  0.58310460462E+01 -0.47547280623E+00  0.21992389217E+01  0.62501059364E+01  0.00000000000E+00 0. -1.
</event>
<event>
 7    1  0.2505412E-009  0.4778727E+02  0.7816164E-02  0.1312668E+00
        -11   -1    0    0    0    0  0.00000000000E+00  0.00000000000E+00  0.45593999997E+02  0.45594000000E+02  0.51100000000E-03 0.  1.
         11   -1    0    0    0    0 -0.00000000000E+00 -0.00000000000E+00 -0.45593999997E+02  0.45594000000E+02  0.51100000000E-03 0. -1.
    9900012    2    1    2    0    0 -0.12554063671E+02 -0.13471142806E+02 -0.39300729272E+02  0.47787268157E+02  0.19999986837E+02 0.  0.
        -12    1    1    2    0    0  0.12554063671E+02  0.13471142806E+02  0.39300729272E+02  0.43400731843E+02  0.00000000000E+00 0.  1.
         11    1    3    3    0    0 -0.23898146631E+01 -0.11872488605E+02 -0.20356492941E+02  0.23686578582E+02  0.51100000000E-03 0. -1.
        -11    1    3    3    0    0 -0.22840592590E+01 -0.10565539151E+01  0.95452517912E+00  0.26915332903E+01  0.51100000000E-03 0.  1.
        -12    1    3    3    0    0 -0.78801897490E+01 -0.54210028556E+00 -0.19898761510E+02  0.21409156285E+02  0.00000000000E+00 0.  1.
</event>
<event>
 7    1  0.2505412E-009  0.4778727E+02  0.7816164E-02  0.1312668E+00
        -11   -1    0    0    0    0  0.00000000000E+00  0.00000000000E+00  0.45593999997E+02  0.45594000000E+02  0.51100000000E-03 0.  1.
         11   -1    0    0    0    0 -0.00000000000E+00 -0.00000000000E+00 -0.45593999997E+02  0.45594000000E+02  0.51100000000E-03 0. -1.
    9900012    2    1    2    0    0  0.29394773466E+02  0.22427807176E+02 -0.22728052882E+02  0.47787266946E+02  0.19999981314E+02 0.  0.
        -12    1    1    2    0    0 -0.29394773466E+02 -0.22427807176E+02  0.22728052882E+02  0.43400733054E+02  0.00000000000E+00 0.  1.
         11    1    3    3    0    0  0.23134923418E+02  0.19550785857E+02 -0.22113539802E+02  0.37502887249E+02  0.51100000000E-03 0. -1.
        -11    1    3    3    0    0  0.35201949794E+01 -0.14854593719E+01 -0.27503682427E+01  0.47077476536E+01  0.51100000000E-03 0.  1.
         12    1    3    3    0    0  0.27396550680E+01  0.43624806907E+01  0.21358551628E+01  0.55766320431E+01  0.00000000000E+00 0. -1.
</event>
<event>
 7    1  0.2505412E-009  0.4778727E+02  0.7816164E-02  0.1312668E+00
        -11   -1    0    0    0    0  0.00000000000E+00  0.00000000000E+00  0.45593999997E+02  0.45594000000E+02  0.51100000000E-03 0.  1.
         11   -1    0    0    0    0 -0.00000000000E+00 -0.00000000000E+00 -0.45593999997E+02  0.45594000000E+02  0.51100000000E-03 0. -1.
    9900012    2    1    2    0    0 -0.40626997202E+02  0.11199190000E+02 -0.10375380787E+02  0.47787270919E+02  0.19999999426E+02 0.  0.
        -12    1    1    2    0    0  0.40626997202E+02 -0.11199190000E+02  0.10375380787E+02  0.43400729081E+02  0.00000000000E+00 0.  1.
         11    1    3    3    0    0 -0.18748209198E+02 -0.10619797481E+01 -0.11964685996E+02  0.22266047255E+02  0.51100000000E-03 0. -1.
        -11    1    3    3    0    0 -0.10449791500E+02  0.33716856753E+01  0.29284447104E+00  0.10984177932E+02  0.51100000000E-03 0.  1.
         12    1    3    3    0    0 -0.11428996504E+02  0.88894840726E+01  0.12964607375E+01  0.14537045732E+02  0.00000000000E+00 0. -1.
</event>
<event>
 7    1  0.2505412E-009  0.4778727E+02  0.7816164E-02  0.1312668E+00
        -11   -1    0    0    0    0  0.00000000000E+00  0.00000000000E+00  0.45593999997E+02  0.45594000000E+02  0.51100000000E-03 0.  1.
         11   -1    0    0    0    0 -0.00000000000E+00 -0.00000000000E+00 -0.45593999997E+02  0.45594000000E+02  0.51100000000E-03 0. -1.
    9900012    2    1    2    0    0 -0.62482999217E+01  0.13654454665E+02 -0.40720241998E+02  0.47787268526E+02  0.19999988520E+02 0.  0.
        -12    1    1    2    0    0  0.62482999217E+01 -0.13654454665E+02  0.40720241998E+02  0.43400731474E+02  0.00000000000E+00 0.  1.
         11    1    3    3    0    0  0.24396801275E+01  0.11757083227E+02 -0.16489625706E+02  0.20398254859E+02  0.51100000000E-03 0. -1.
        -11    1    3    3    0    0  0.80065511356E+00  0.68212972481E+00  0.27097996604E+00  0.10861767699E+01  0.51100000000E-03 0.  1.
        -12    1    3    3    0    0 -0.94886351627E+01  0.12152417133E+01 -0.24501596258E+02  0.26302836897E+02  0.00000000000E+00 0.  1.
</event>
<event>
 7    1  0.2505412E-009  0.4778727E+02  0.7816164E-02  0.1312668E+00
        -11   -1    0    0    0    0  0.00000000000E+00  0.00000000000E+00  0.45593999997E+02  0.45594000000E+02  0.51100000000E-03 0.  1.
         11   -1    0    0    0    0 -0.00000000000E+00 -0.00000000000E+00 -0.45593999997E+02  0.45594000000E+02  0.51100000000E-03 0. -1.
    9900012    2    1    2    0    0 -0.27901056634E+02  0.33128177857E+02  0.27709275470E+01  0.47787272253E+02  0.20000005513E+02 0.  0.
        -12    1    1    2    0    0  0.27901056634E+02 -0.33128177857E+02 -0.27709275470E+01  0.43400727747E+02  0.00000000000E+00 0.  1.
         11    1    3    3    0    0 -0.14766366431E+02  0.16492551827E+02  0.57309749127E+01  0.22866873793E+02  0.51100000000E-03 0. -1.
        -11    1    3    3    0    0  0.63279898012E+00 -0.12069327868E+01  0.14133391797E+01  0.19633260552E+01  0.51100000000E-03 0.  1.
         12    1    3    3    0    0 -0.13767489184E+02  0.17842558817E+02 -0.43733865454E+01  0.22957072406E+02  0.00000000000E+00 0. -1.
</event>
<event>
 7    1  0.2505412E-009  0.4778727E+02  0.7816164E-02  0.1312668E+00
        -11   -1    0    0    0    0  0.00000000000E+00  0.00000000000E+00  0.45593999997E+02  0.45594000000E+02  0.51100000000E-03 0.  1.
         11   -1    0    0    0    0 -0.00000000000E+00 -0.00000000000E+00 -0.45593999997E+02  0.45594000000E+02  0.51100000000E-03 0. -1.
    9900012    2    1    2    0    0 -0.41736547017E+02  0.86668576768E+01 -0.81590053226E+01  0.47787272509E+02  0.20000006677E+02 0.  0.
        -12    1    1    2    0    0  0.41736547017E+02 -0.86668576768E+01  0.81590053226E+01  0.43400727491E+02  0.00000000000E+00 0.  1.
         11    1    3    3    0    0 -0.15652499276E+02  0.26989589699E+01  0.14697825308E+01  0.15951343958E+02  0.51100000000E-03 0. -1.
        -11    1    3    3    0    0 -0.75741501048E+01  0.87879827415E+01 -0.31258112353E+01  0.12015285540E+02  0.51100000000E-03 0.  1.
         12    1    3    3    0    0 -0.18509897636E+02 -0.28200840346E+01 -0.65029766181E+01  0.19820643011E+02  0.00000000000E+00 0. -1.
</event>
<event>
 7    1  0.2505412E-009  0.4778727E+02  0.7816164E-02  0.1312668E+00
        -11   -1    0    0    0    0  0.00000000000E+00  0.00000000000E+00  0.45593999997E+02  0.45594000000E+02  0.51100000000E-03 0.  1.
         11   -1    0    0    0    0 -0.00000000000E+00 -0.00000000000E+00 -0.45593999997E+02  0.45594000000E+02  0.51100000000E-03 0. -1.
    9900012    2    1    2    0    0 -0.15822454588E+02  0.10232002711E+02 -0.39097050765E+02  0.47787270430E+02  0.19999997198E+02 0.  0.
        -12    1    1    2    0    0  0.15822454588E+02 -0.10232002711E+02  0.39097050765E+02  0.43400729570E+02  0.00000000000E+00 0.  1.
         11    1    3    3    0    0 -0.14128552319E+02  0.13169960906E+02 -0.24287529052E+02  0.31031402298E+02  0.51100000000E-03 0. -1.
        -11    1    3    3    0    0 -0.14820704330E+01  0.53674418231E+00 -0.34879460810E-01  0.15766559306E+01  0.51100000000E-03 0.  1.
         12    1    3    3    0    0 -0.21183183613E+00 -0.34747023776E+01 -0.14774642253E+02  0.15179212201E+02  0.00000000000E+00 0. -1.
</event>
<event>
 7    1  0.2505412E-009  0.4778727E+02  0.7816164E-02  0.1312668E+00
        -11   -1    0    0    0    0  0.00000000000E+00  0.00000000000E+00  0.45593999997E+02  0.45594000000E+02  0.51100000000E-03 0. -1.
         11   -1    0    0    0    0 -0.00000000000E+00 -0.00000000000E+00 -0.45593999997E+02  0.45594000000E+02  0.51100000000E-03 0.  1.
    9900012    2    1    2    0    0 -0.25696809485E+02 -0.30669000102E+02  0.16813977233E+02  0.47787269414E+02  0.19999992566E+02 0.  0.
        -12    1    1    2    0    0  0.25696809485E+02  0.30669000102E+02 -0.16813977233E+02  0.43400730586E+02  0.00000000000E+00 0.  1.
         11    1    3    3    0    0  0.28417373018E+00 -0.45668093348E+01  0.23526590010E+01  0.51450468263E+01  0.51100000000E-03 0. -1.
        -11    1    3    3    0    0 -0.22116791062E+02 -0.11718446328E+02  0.11064629632E+02  0.27366045757E+02  0.51100000000E-03 0.  1.
        -12    1    3    3    0    0 -0.38641921530E+01 -0.14383744440E+02  0.33966886000E+01  0.15276176830E+02  0.00000000000E+00 0.  1.
</event>
<event>
 7    1  0.2505412E-009  0.4778732E+02  0.7816164E-02  0.1312668E+00
        -11   -1    0    0    0    0  0.00000000000E+00  0.00000000000E+00  0.45593999997E+02  0.45594000000E+02  0.51100000000E-03 0.  1.
         11   -1    0    0    0    0 -0.00000000000E+00 -0.00000000000E+00 -0.45593999997E+02  0.45594000000E+02  0.51100000000E-03 0. -1.
    9900012    2    1    2    0    0  0.96992944221E+00 -0.24795455117E+02 -0.35607069091E+02  0.47787323429E+02  0.20000238841E+02 0.  0.
        -12    1    1    2    0    0 -0.96992944221E+00  0.24795455117E+02  0.35607069091E+02  0.43400676571E+02  0.00000000000E+00 0.  1.
         11    1    3    3    0    0  0.33587866589E+01 -0.18268758062E+02 -0.15385200663E+02  0.24119149418E+02  0.51100000000E-03 0. -1.
        -11    1    3    3    0    0 -0.51379973309E+01 -0.66730409988E+01 -0.99598030387E+01  0.13043242295E+02  0.51100000000E-03 0.  1.
         12    1    3    3    0    0  0.27491401142E+01  0.14634394363E+00 -0.10262065389E+02  0.10624931716E+02  0.00000000000E+00 0. -1.
</event>
<event>
 7    1  0.2505412E-009  0.4778728E+02  0.7816164E-02  0.1312668E+00
        -11   -1    0    0    0    0  0.00000000000E+00  0.00000000000E+00  0.45593999997E+02  0.45594000000E+02  0.51100000000E-03 0. -1.
         11   -1    0    0    0    0 -0.00000000000E+00 -0.00000000000E+00 -0.45593999997E+02  0.45594000000E+02  0.51100000000E-03 0.  1.
    9900012    2    1    2    0    0  0.25526778963E+02 -0.17723375377E+01  0.35055172791E+02  0.47787276919E+02  0.20000026784E+02 0.  0.
        -12    1    1    2    0    0 -0.25526778963E+02  0.17723375377E+01 -0.35055172791E+02  0.43400723081E+02  0.00000000000E+00 0.  1.
         11    1    3    3    0    0 -0.36493648373E+00 -0.55754988401E+01  0.59135074414E+01  0.81356583307E+01  0.51100000000E-03 0. -1.
        -11    1    3    3    0    0  0.69203731246E+01  0.34944486057E+01  0.65492672190E+01  0.10148676594E+02  0.51100000000E-03 0.  1.
         12    1    3    3    0    0  0.18971342322E+02  0.30871269678E+00  0.22592398131E+02  0.29502941994E+02  0.00000000000E+00 0. -1.
</event>
<event>
 7    1  0.2505412E-009  0.4778727E+02  0.7816164E-02  0.1312668E+00
        -11   -1    0    0    0    0  0.00000000000E+00  0.00000000000E+00  0.45593999997E+02  0.45594000000E+02  0.51100000000E-03 0. -1.
         11   -1    0    0    0    0 -0.00000000000E+00 -0.00000000000E+00 -0.45593999997E+02  0.45594000000E+02  0.51100000000E-03 0.  1.
    9900012    2    1    2    0    0  0.13096784590E+02 -0.40725843281E+02 -0.73145713225E+01  0.47787273840E+02  0.20000012746E+02 0.  0.
        -12    1    1    2    0    0 -0.13096784590E+02  0.40725843281E+02  0.73145713225E+01  0.43400726160E+02  0.00000000000E+00 0.  1.
         11    1    3    3    0    0  0.21296117978E+01 -0.23416677343E+02 -0.10304959011E+02  0.25672323710E+02  0.51100000000E-03 0. -1.
        -11    1    3    3    0    0  0.11467169256E+01  0.51018506508E+00  0.11212821989E+01  0.16830099640E+01  0.51100000000E-03 0.  1.
         12    1    3    3    0    0  0.98204558667E+01 -0.17819351003E+02  0.18691054894E+01  0.20431940166E+02  0.00000000000E+00 0. -1.
</event>
<event>
 7    1  0.2616928E-009  0.4778727E+02  0.7816164E-02  0.1312668E+00
        -11   -1    0    0    0    0  0.00000000000E+00  0.00000000000E+00  0.45593999997E+02  0.45594000000E+02  0.51100000000E-03 0. -1.
         11   -1    0    0    0    0 -0.00000000000E+00 -0.00000000000E+00 -0.45593999997E+02  0.45594000000E+02  0.51100000000E-03 0.  1.
    9900012    2    1    2    0    0 -0.39233146355E+02  0.18125518941E+02  0.39810976381E+01  0.47787270189E+02  0.19999996098E+02 0.  0.
        -12    1    1    2    0    0  0.39233146355E+02 -0.18125518941E+02 -0.39810976381E+01  0.43400729811E+02  0.00000000000E+00 0.  1.
         11    1    3    3    0    0 -0.14961511946E+02  0.32845098813E+01 -0.29862865639E+01  0.15606176744E+02  0.51100000000E-03 0. -1.
        -11    1    3    3    0    0  0.11802112710E+00 -0.24341392944E+00  0.32528666749E+01  0.32640957697E+01  0.51100000000E-03 0.  1.
        -12    1    3    3    0    0 -0.24389655536E+02  0.15084422989E+02  0.37145175271E+01  0.28916997675E+02  0.00000000000E+00 0.  1.
</event>
<event>
 7    1  0.2505412E-009  0.4778726E+02  0.7816164E-02  0.1312668E+00
        -11   -1    0    0    0    0  0.00000000000E+00  0.00000000000E+00  0.45593999997E+02  0.45594000000E+02  0.51100000000E-03 0.  1.
         11   -1    0    0    0    0 -0.00000000000E+00 -0.00000000000E+00 -0.45593999997E+02  0.45594000000E+02  0.51100000000E-03 0. -1.
    9900012    2    1    2    0    0 -0.35667911493E+02 -0.24128018673E+02  0.54095118251E+01  0.47787262523E+02  0.19999961145E+02 0.  0.
        -12    1    1    2    0    0  0.35667911493E+02  0.24128018673E+02 -0.54095118251E+01  0.43400737477E+02  0.00000000000E+00 0.  1.
         11    1    3    3    0    0 -0.12625589389E+02 -0.11711652119E+02 -0.31938509520E+01  0.17514821922E+02  0.51100000000E-03 0. -1.
        -11    1    3    3    0    0  0.48860405907E-01 -0.32339286724E+01 -0.13480412602E+01  0.35039830904E+01  0.51100000000E-03 0.  1.
        -12    1    3    3    0    0 -0.23091182510E+02 -0.91824378815E+01  0.99514040373E+01  0.26768457511E+02  0.00000000000E+00 0.  1.
</event>
<event>
 7    1  0.2505412E-009  0.4778726E+02  0.7816164E-02  0.1312668E+00
        -11   -1    0    0    0    0  0.00000000000E+00  0.00000000000E+00  0.45593999997E+02  0.45594000000E+02  0.51100000000E-03 0.  1.
         11   -1    0    0    0    0 -0.00000000000E+00 -0.00000000000E+00 -0.45593999997E+02  0.45594000000E+02  0.51100000000E-03 0. -1.
    9900012    2    1    2    0    0  0.90273851162E+01  0.11830680908E+02 -0.40769660268E+02  0.47787263934E+02  0.19999967579E+02 0.  0.
        -12    1    1    2    0    0 -0.90273851162E+01 -0.11830680908E+02  0.40769660268E+02  0.43400736066E+02  0.00000000000E+00 0.  1.
         11    1    3    3    0    0  0.11108729289E+02  0.10464025867E+02 -0.40867008780E+02  0.43623527032E+02  0.51100000000E-03 0. -1.
        -11    1    3    3    0    0 -0.20484337233E+01  0.43630251122E+00 -0.13144087494E+01  0.24726728901E+01  0.51100000000E-03 0.  1.
         12    1    3    3    0    0 -0.32910449955E-01  0.93035252908E+00  0.14117572618E+01  0.16910640119E+01  0.00000000000E+00 0. -1.
</event>
<event>
 7    1  0.2505412E-009  0.4778727E+02  0.7816164E-02  0.1312668E+00
        -11   -1    0    0    0    0  0.00000000000E+00  0.00000000000E+00  0.45593999997E+02  0.45594000000E+02  0.51100000000E-03 0.  1.
         11   -1    0    0    0    0 -0.00000000000E+00 -0.00000000000E+00 -0.45593999997E+02  0.45594000000E+02  0.51100000000E-03 0. -1.
    9900012    2    1    2    0    0 -0.37082537980E+02  0.83534386582E+01 -0.20945850983E+02  0.47787271506E+02  0.20000002102E+02 0.  0.
        -12    1    1    2    0    0  0.37082537980E+02 -0.83534386582E+01  0.20945850983E+02  0.43400728494E+02  0.00000000000E+00 0.  1.
         11    1    3    3    0    0 -0.14340553015E+02 -0.47198519651E+01 -0.96930992421E+01  0.17941143679E+02  0.51100000000E-03 0. -1.
        -11    1    3    3    0    0 -0.12243096244E+02  0.58150741701E+01 -0.12147934964E+01  0.13608240766E+02  0.51100000000E-03 0.  1.
        -12    1    3    3    0    0 -0.10498888720E+02  0.72582164532E+01 -0.10037958245E+02  0.16237887060E+02  0.00000000000E+00 0.  1.
</event>
<event>
 7    1  0.2505412E-009  0.4778727E+02  0.7816164E-02  0.1312668E+00
        -11   -1    0    0    0    0  0.00000000000E+00  0.00000000000E+00  0.45593999997E+02  0.45594000000E+02  0.51100000000E-03 0.  1.
         11   -1    0    0    0    0 -0.00000000000E+00 -0.00000000000E+00 -0.45593999997E+02  0.45594000000E+02  0.51100000000E-03 0. -1.
    9900012    2    1    2    0    0  0.41346716014E+02 -0.12524196891E+02  0.41493632475E+01  0.47787266731E+02  0.19999980334E+02 0.  0.
        -12    1    1    2    0    0 -0.41346716014E+02  0.12524196891E+02 -0.41493632475E+01  0.43400733269E+02  0.00000000000E+00 0.  1.
         11    1    3    3    0    0 -0.10374055123E+01 -0.17357453405E+01  0.29744833488E+00  0.20438928193E+01  0.51100000000E-03 0. -1.
        -11    1    3    3    0    0  0.87061310305E+01  0.22705784515E+01 -0.18198171959E+01  0.91795413237E+01  0.51100000000E-03 0.  1.
         12    1    3    3    0    0  0.33677990496E+02 -0.13059030002E+02  0.56717321086E+01  0.36563832588E+02  0.00000000000E+00 0. -1.
</event>
<event>
 7    1  0.2505412E-009  0.4778728E+02  0.7816164E-02  0.1312668E+00
        -11   -1    0    0    0    0  0.00000000000E+00  0.00000000000E+00  0.45593999997E+02  0.45594000000E+02  0.51100000000E-03 0.  1.
         11   -1    0    0    0    0 -0.00000000000E+00 -0.00000000000E+00 -0.45593999997E+02  0.45594000000E+02  0.51100000000E-03 0. -1.
    9900012    2    1    2    0    0 -0.24073953531E+02 -0.51661936161E+01 -0.35740424019E+02  0.47787277608E+02  0.20000029926E+02 0.  0.
        -12    1    1    2    0    0  0.24073953531E+02  0.51661936161E+01  0.35740424019E+02  0.43400722392E+02  0.00000000000E+00 0.  1.
         11    1    3    3    0    0 -0.15879140820E+01 -0.25121810406E+01 -0.44184758461E+01  0.53249839226E+01  0.51100000000E-03 0. -1.
        -11    1    3    3    0    0 -0.17572428803E+00  0.39928973383E+01 -0.10479771793E+02  0.11216047667E+02  0.51100000000E-03 0.  1.
        -12    1    3    3    0    0 -0.22310315161E+02 -0.66469099138E+01 -0.20842176380E+02  0.31246246018E+02  0.00000000000E+00 0.  1.
</event>
<event>
 7    1  0.2505412E-009  0.4778727E+02  0.7816164E-02  0.1312668E+00
        -11   -1    0    0    0    0  0.00000000000E+00  0.00000000000E+00  0.45593999997E+02  0.45594000000E+02  0.51100000000E-03 0. -1.
         11   -1    0    0    0    0 -0.00000000000E+00 -0.00000000000E+00 -0.45593999997E+02  0.45594000000E+02  0.51100000000E-03 0.  1.
    9900012    2    1    2    0    0  0.38314987177E+01  0.26388415283E+02  0.34243173694E+02  0.47787265119E+02  0.19999972984E+02 0.  0.
        -12    1    1    2    0    0 -0.38314987177E+01 -0.26388415283E+02 -0.34243173694E+02  0.43400734881E+02  0.00000000000E+00 0.  1.
         11    1    3    3    0    0  0.40652147807E+01 -0.38710369252E+00  0.55063469444E+01  0.68553393363E+01  0.51100000000E-03 0. -1.
        -11    1    3    3    0    0  0.10616359617E+01  0.81177229066E+01  0.16953606019E+02  0.18826822711E+02  0.51100000000E-03 0.  1.
        -12    1    3    3    0    0 -0.12953520247E+01  0.18657796069E+02  0.11783220731E+02  0.22105103072E+02  0.00000000000E+00 0.  1.
</event>
<event>
 7    1  0.2505412E-009  0.4778727E+02  0.7816164E-02  0.1312668E+00
        -11   -1    0    0    0    0  0.00000000000E+00  0.00000000000E+00  0.45593999997E+02  0.45594000000E+02  0.51100000000E-03 0. -1.
         11   -1    0    0    0    0 -0.00000000000E+00 -0.00000000000E+00 -0.45593999997E+02  0.45594000000E+02  0.51100000000E-03 0.  1.
    9900012    2    1    2    0    0 -0.32259478576E+02  0.16286552316E+02 -0.24035338363E+02  0.47787271497E+02  0.20000002065E+02 0.  0.
        -12    1    1    2    0    0  0.32259478576E+02 -0.16286552316E+02  0.24035338363E+02  0.43400728503E+02  0.00000000000E+00 0.  1.
         11    1    3    3    0    0 -0.79444010325E+01  0.94080704274E+01 -0.24181148862E+01  0.12548807784E+02  0.51100000000E-03 0. -1.
        -11    1    3    3    0    0 -0.21321568473E+02  0.66802073570E+01 -0.12418195755E+02  0.25562590607E+02  0.51100000000E-03 0.  1.
        -12    1    3    3    0    0 -0.29935090703E+01  0.19827453189E+00 -0.91990277216E+01  0.96758731062E+01  0.00000000000E+00 0.  1.
</event>
<event>
 7    1  0.2505412E-009  0.4778726E+02  0.7816164E-02  0.1312668E+00
        -11   -1    0    0    0    0  0.00000000000E+00  0.00000000000E+00  0.45593999997E+02  0.45594000000E+02  0.51100000000E-03 0. -1.
         11   -1    0    0    0    0 -0.00000000000E+00 -0.00000000000E+00 -0.45593999997E+02  0.45594000000E+02  0.51100000000E-03 0.  1.
    9900012    2    1    2    0    0 -0.11177272937E+02 -0.15599744391E+01  0.41907743048E+02  0.47787264085E+02  0.19999968268E+02 0.  0.
        -12    1    1    2    0    0  0.11177272937E+02  0.15599744391E+01 -0.41907743048E+02  0.43400735915E+02  0.00000000000E+00 0.  1.
         11    1    3    3    0    0  0.53555969382E+00 -0.17176516284E+00  0.19656902094E+02  0.19664946673E+02  0.51100000000E-03 0. -1.
        -11    1    3    3    0    0 -0.99072197516E+01 -0.64348295110E+01  0.15987801008E+02  0.19878878625E+02  0.51100000000E-03 0.  1.
         12    1    3    3    0    0 -0.18056128796E+01  0.50466202348E+01  0.62630399461E+01  0.82434387868E+01  0.00000000000E+00 0. -1.
</event>
<event>
 7    1  0.2505412E-009  0.4778727E+02  0.7816164E-02  0.1312668E+00
        -11   -1    0    0    0    0  0.00000000000E+00  0.00000000000E+00  0.45593999997E+02  0.45594000000E+02  0.51100000000E-03 0. -1.
         11   -1    0    0    0    0 -0.00000000000E+00 -0.00000000000E+00 -0.45593999997E+02  0.45594000000E+02  0.51100000000E-03 0.  1.
    9900012    2    1    2    0    0 -0.24193064551E+02  0.34266532202E+02  0.11141075697E+02  0.47787272250E+02  0.20000005498E+02 0.  0.
        -12    1    1    2    0    0  0.24193064551E+02 -0.34266532202E+02 -0.11141075697E+02  0.43400727750E+02  0.00000000000E+00 0.  1.
         11    1    3    3    0    0 -0.55595293074E+01  0.62946490921E+00 -0.73056601762E+00  0.56425454504E+01  0.51100000000E-03 0. -1.
        -11    1    3    3    0    0 -0.53987271995E+01  0.14820101026E+01  0.25030767935E+01  0.61325364258E+01  0.51100000000E-03 0.  1.
         12    1    3    3    0    0 -0.13234808044E+02  0.32155057190E+02  0.93685649209E+01  0.36012190374E+02  0.00000000000E+00 0. -1.
</event>
<event>
 7    1  0.2505412E-009  0.4778727E+02  0.7816164E-02  0.1312668E+00
        -11   -1    0    0    0    0  0.00000000000E+00  0.00000000000E+00  0.45593999997E+02  0.45594000000E+02  0.51100000000E-03 0.  1.
         11   -1    0    0    0    0 -0.00000000000E+00 -0.00000000000E+00 -0.45593999997E+02  0.45594000000E+02  0.51100000000E-03 0. -1.
    9900012    2    1    2    0    0 -0.14701202312E+01 -0.42841160937E+02 -0.67894689128E+01  0.47787271757E+02  0.20000003247E+02 0.  0.
        -12    1    1    2    0    0  0.14701202312E+01  0.42841160937E+02  0.67894689128E+01  0.43400728243E+02  0.00000000000E+00 0.  1.
         11    1    3    3    0    0  0.51864315519E+01 -0.29578035338E+02 -0.98535487926E+01  0.31604614707E+02  0.51100000000E-03 0. -1.
        -11    1    3    3    0    0  0.89925017836E-01 -0.31743862485E+01  0.24847419453E+01  0.40322149446E+01  0.51100000000E-03 0.  1.
         12    1    3    3    0    0 -0.67464768010E+01 -0.10088739350E+02  0.57933793444E+00  0.12150442105E+02  0.00000000000E+00 0. -1.
</event>
<event>
 7    1  0.3302620E-009  0.4778727E+02  0.7816164E-02  0.1312668E+00
        -11   -1    0    0    0    0  0.00000000000E+00  0.00000000000E+00  0.45593999997E+02  0.45594000000E+02  0.51100000000E-03 0. -1.
         11   -1    0    0    0    0 -0.00000000000E+00 -0.00000000000E+00 -0.45593999997E+02  0.45594000000E+02  0.51100000000E-03 0.  1.
    9900012    2    1    2    0    0  0.29659586608E+02 -0.28186630652E+01  0.31559270687E+02  0.47787268375E+02  0.19999987829E+02 0.  0.
        -12    1    1    2    0    0 -0.29659586608E+02  0.28186630652E+01 -0.31559270687E+02  0.43400731625E+02  0.00000000000E+00 0.  1.
         11    1    3    3    0    0  0.17110860538E+02  0.57436998191E+01  0.16619043047E+02  0.24534959303E+02  0.51100000000E-03 0. -1.
        -11    1    3    3    0    0  0.11420390030E+02 -0.52497110107E+01  0.15222904326E+02  0.19741367494E+02  0.51100000000E-03 0.  1.
        -12    1    3    3    0    0  0.11283360398E+01 -0.33126518736E+01 -0.28267668552E+00  0.35109415778E+01  0.00000000000E+00 0.  1.
</event>
<event>
 7    1  0.2505412E-009  0.4778727E+02  0.7816164E-02  0.1312668E+00
        -11   -1    0    0    0    0  0.00000000000E+00  0.00000000000E+00  0.45593999997E+02  0.45594000000E+02  0.51100000000E-03 0.  1.
         11   -1    0    0    0    0 -0.00000000000E+00 -0.00000000000E+00 -0.45593999997E+02  0.45594000000E+02  0.51100000000E-03 0. -1.
    9900012    2    1    2    0    0  0.38569562361E+02 -0.16846030955E+02 -0.10593566504E+02  0.47787267853E+02  0.19999985448E+02 0.  0.
        -12    1    1    2    0    0 -0.38569562361E+02  0.16846030955E+02  0.10593566504E+02  0.43400732147E+02  0.00000000000E+00 0.  1.
         11    1    3    3    0    0  0.12553497620E+02 -0.14558274124E+02 -0.74943087276E+01  0.20632457719E+02  0.51100000000E-03 0.  1.
        -11    1    3    3    0    0  0.11783885490E+02 -0.43609030301E+01 -0.20846430892E+01  0.12736685972E+02  0.51100000000E-03 0. -1.
        -12    1    3    3    0    0  0.14232179251E+02  0.20731461992E+01 -0.10146146872E+01  0.14418124162E+02  0.00000000000E+00 0.  1.
</event>
<event>
 7    1  0.2505412E-009  0.4778727E+02  0.7816164E-02  0.1312668E+00
        -11   -1    0    0    0    0  0.00000000000E+00  0.00000000000E+00  0.45593999997E+02  0.45594000000E+02  0.51100000000E-03 0.  1.
         11   -1    0    0    0    0 -0.00000000000E+00 -0.00000000000E+00 -0.45593999997E+02  0.45594000000E+02  0.51100000000E-03 0. -1.
    9900012    2    1    2    0    0  0.64840353247E+01  0.24994138332E+02 -0.34883715452E+02  0.47787271103E+02  0.20000000267E+02 0.  0.
        -12    1    1    2    0    0 -0.64840353247E+01 -0.24994138332E+02  0.34883715452E+02  0.43400728897E+02  0.00000000000E+00 0.  1.
         11    1    3    3    0    0  0.50612347639E+01  0.42863233700E+01 -0.84464454130E+01  0.10739232084E+02  0.51100000000E-03 0. -1.
        -11    1    3    3    0    0 -0.34540541004E+01  0.15900613753E+02 -0.96499430442E+01  0.18917753790E+02  0.51100000000E-03 0.  1.
        -12    1    3    3    0    0  0.48768546613E+01  0.48072012087E+01 -0.16787326995E+02  0.18130285229E+02  0.00000000000E+00 0.  1.
</event>
<event>
 7    1  0.2505412E-009  0.4778727E+02  0.7816164E-02  0.1312668E+00
        -11   -1    0    0    0    0  0.00000000000E+00  0.00000000000E+00  0.45593999997E+02  0.45594000000E+02  0.51100000000E-03 0. -1.
         11   -1    0    0    0    0 -0.00000000000E+00 -0.00000000000E+00 -0.45593999997E+02  0.45594000000E+02  0.51100000000E-03 0.  1.
    9900012    2    1    2    0    0 -0.29450279407E+01  0.20085156907E+02  0.38360608853E+02  0.47787273865E+02  0.20000012858E+02 0.  0.
        -12    1    1    2    0    0  0.29450279407E+01 -0.20085156907E+02 -0.38360608853E+02  0.43400726135E+02  0.00000000000E+00 0.  1.
         11    1    3    3    0    0 -0.37199437758E+01 -0.22246265930E+01  0.11373271669E+02  0.12171205934E+02  0.51100000000E-03 0. -1.
        -11    1    3    3    0    0  0.87682441532E+00  0.98700453946E+01  0.16939997804E+02  0.19625242496E+02  0.51100000000E-03 0.  1.
        -12    1    3    3    0    0 -0.10190858017E+00  0.12439738105E+02  0.10047339380E+02  0.15990825435E+02  0.00000000000E+00 0.  1.
</event>
<event>
 7    1  0.2505412E-009  0.4778727E+02  0.7816164E-02  0.1312668E+00
        -11   -1    0    0    0    0  0.00000000000E+00  0.00000000000E+00  0.45593999997E+02  0.45594000000E+02  0.51100000000E-03 0.  1.
         11   -1    0    0    0    0 -0.00000000000E+00 -0.00000000000E+00 -0.45593999997E+02  0.45594000000E+02  0.51100000000E-03 0. -1.
    9900012    2    1    2    0    0 -0.34585270914E+02 -0.18038595509E+02 -0.19028696516E+02  0.47787272088E+02  0.20000004760E+02 0.  0.
        -12    1    1    2    0    0  0.34585270914E+02  0.18038595509E+02  0.19028696516E+02  0.43400727912E+02  0.00000000000E+00 0.  1.
         11    1    3    3    0    0 -0.21116009784E+02 -0.12964039364E+02 -0.10137371513E+02  0.26771598520E+02  0.51100000000E-03 0. -1.
        -11    1    3    3    0    0 -0.15591177619E+02 -0.26635815656E+01 -0.70919336756E+01  0.17334215005E+02  0.51100000000E-03 0.  1.
        -12    1    3    3    0    0  0.21219164891E+01 -0.24109745793E+01 -0.17993913274E+01  0.36814585639E+01  0.00000000000E+00 0.  1.
</event>
<event>
 7    1  0.2505412E-009  0.4778728E+02  0.7816164E-02  0.1312668E+00
        -11   -1    0    0    0    0  0.00000000000E+00  0.00000000000E+00  0.45593999997E+02  0.45594000000E+02  0.51100000000E-03 0.  1.
         11   -1    0    0    0    0 -0.00000000000E+00 -0.00000000000E+00 -0.45593999997E+02  0.45594000000E+02  0.51100000000E-03 0. -1.
    9900012    2    1    2    0    0  0.15657398532E+02 -0.71675386640E+01 -0.39838357434E+02  0.47787280394E+02  0.20000042627E+02 0.  0.
        -12    1    1    2    0    0 -0.15657398532E+02  0.71675386640E+01  0.39838357434E+02  0.43400719606E+02  0.00000000000E+00 0.  1.
         11    1    3    3    0    0  0.20976969621E+01 -0.29120598262E+01 -0.13255214526E+02  0.13732484749E+02  0.51100000000E-03 0. -1.
        -11    1    3    3    0    0  0.79186522998E+01 -0.20393550820E+01 -0.26770156874E+02  0.27991165083E+02  0.51100000000E-03 0.  1.
        -12    1    3    3    0    0  0.56410492700E+01 -0.22161237558E+01  0.18701396594E+00  0.60636305619E+01  0.00000000000E+00 0.  1.
</event>
<event>
 7    1  0.2505412E-009  0.4778727E+02  0.7816164E-02  0.1312668E+00
        -11   -1    0    0    0    0  0.00000000000E+00  0.00000000000E+00  0.45593999997E+02  0.45594000000E+02  0.51100000000E-03 0.  1.
         11   -1    0    0    0    0 -0.00000000000E+00 -0.00000000000E+00 -0.45593999997E+02  0.45594000000E+02  0.51100000000E-03 0. -1.
    9900012    2    1    2    0    0  0.25573741195E+02  0.21752179647E+02 -0.27503627884E+02  0.47787272991E+02  0.20000008877E+02 0.  0.
        -12    1    1    2    0    0 -0.25573741195E+02 -0.21752179647E+02  0.27503627884E+02  0.43400727009E+02  0.00000000000E+00 0.  1.
         11    1    3    3    0    0  0.35296681752E+01  0.26784733146E+01  0.49278435298E+00  0.44582074204E+01  0.51100000000E-03 0. -1.
        -11    1    3    3    0    0  0.13389769668E+02  0.34992822075E+01 -0.61669084507E+01  0.15151292613E+02  0.51100000000E-03 0.  1.
         12    1    3    3    0    0  0.86543033509E+01  0.15574424125E+02 -0.21829503786E+02  0.28177772958E+02  0.00000000000E+00 0. -1.
</event>
<event>
 7    1  0.2505412E-009  0.4778727E+02  0.7816164E-02  0.1312668E+00
        -11   -1    0    0    0    0  0.00000000000E+00  0.00000000000E+00  0.45593999997E+02  0.45594000000E+02  0.51100000000E-03 0.  1.
         11   -1    0    0    0    0 -0.00000000000E+00 -0.00000000000E+00 -0.45593999997E+02  0.45594000000E+02  0.51100000000E-03 0. -1.
    9900012    2    1    2    0    0 -0.32916097746E+02 -0.25356004063E+02  0.12538999438E+02  0.47787274893E+02  0.20000017549E+02 0.  0.
        -12    1    1    2    0    0  0.32916097746E+02  0.25356004063E+02 -0.12538999438E+02  0.43400725107E+02  0.00000000000E+00 0.  1.
         11    1    3    3    0    0 -0.25272662438E+02 -0.16495739294E+02  0.73837575206E+00  0.30188774082E+02  0.51100000000E-03 0. -1.
        -11    1    3    3    0    0 -0.49326509955E+01 -0.73047123281E+01  0.50472797070E+01  0.10157012393E+02  0.51100000000E-03 0.  1.
         12    1    3    3    0    0 -0.27107843129E+01 -0.15555524401E+01  0.67533439792E+01  0.74414884188E+01  0.00000000000E+00 0. -1.
</event>
<event>
 7    1  0.2505412E-009  0.4778727E+02  0.7816164E-02  0.1312668E+00
        -11   -1    0    0    0    0  0.00000000000E+00  0.00000000000E+00  0.45593999997E+02  0.45594000000E+02  0.51100000000E-03 0.  1.
         11   -1    0    0    0    0 -0.00000000000E+00 -0.00000000000E+00 -0.45593999997E+02  0.45594000000E+02  0.51100000000E-03 0. -1.
    9900012    2    1    2    0    0 -0.28937355568E+02 -0.15185221841E+02 -0.28559789823E+02  0.47787272998E+02  0.20000008905E+02 0.  0.
        -12    1    1    2    0    0  0.28937355568E+02  0.15185221841E+02  0.28559789823E+02  0.43400727002E+02  0.00000000000E+00 0.  1.
         11    1    3    3    0    0 -0.73602423774E+01 -0.39410289655E+01 -0.82547147663E+00  0.83896531860E+01  0.51100000000E-03 0. -1.
        -11    1    3    3    0    0 -0.68832150481E+01  0.25181482412E+01 -0.42789774954E+01  0.84870117610E+01  0.51100000000E-03 0.  1.
         12    1    3    3    0    0 -0.14693898142E+02 -0.13762341117E+02 -0.23455340851E+02  0.30910608051E+02  0.00000000000E+00 0. -1.
</event>
<event>
 7    1  0.2505412E-009  0.4778730E+02  0.7816164E-02  0.1312668E+00
        -11   -1    0    0    0    0  0.00000000000E+00  0.00000000000E+00  0.45593999997E+02  0.45594000000E+02  0.51100000000E-03 0. -1.
         11   -1    0    0    0    0 -0.00000000000E+00 -0.00000000000E+00 -0.45593999997E+02  0.45594000000E+02  0.51100000000E-03 0.  1.
    9900012    2    1    2    0    0  0.35655699968E+02  0.44096722935E+01  0.24348442276E+02  0.47787299646E+02  0.20000130407E+02 0.  0.
        -12    1    1    2    0    0 -0.35655699968E+02 -0.44096722935E+01 -0.24348442276E+02  0.43400700354E+02  0.00000000000E+00 0.  1.
         11    1    3    3    0    0  0.19903329966E+02 -0.67927427920E+00  0.11614448187E+02  0.23054269978E+02  0.51100000000E-03 0. -1.
        -11    1    3    3    0    0  0.55832808951E+01  0.14719376598E+01  0.12687651563E+02  0.13939732008E+02  0.51100000000E-03 0.  1.
         12    1    3    3    0    0  0.10169089107E+02  0.36170089129E+01  0.46342526111E-01  0.10793297659E+02  0.00000000000E+00 0. -1.
</event>
<event>
 7    1  0.2505412E-009  0.4778727E+02  0.7816164E-02  0.1312668E+00
        -11   -1    0    0    0    0  0.00000000000E+00  0.00000000000E+00  0.45593999997E+02  0.45594000000E+02  0.51100000000E-03 0. -1.
         11   -1    0    0    0    0 -0.00000000000E+00 -0.00000000000E+00 -0.45593999997E+02  0.45594000000E+02  0.51100000000E-03 0.  1.
    9900012    2    1    2    0    0 -0.24159427402E+02 -0.35533219886E+02 -0.61102952804E+01  0.47787270095E+02  0.19999995672E+02 0.  0.
        -12    1    1    2    0    0  0.24159427402E+02  0.35533219886E+02  0.61102952804E+01  0.43400729905E+02  0.00000000000E+00 0.  1.
         11    1    3    3    0    0 -0.11510904858E+02 -0.19226388412E+02 -0.13058459099E+02  0.25936042419E+02  0.51100000000E-03 0. -1.
        -11    1    3    3    0    0 -0.37795137978E+01 -0.47250270466E+01  0.29157968318E+01  0.67165822086E+01  0.51100000000E-03 0.  1.
         12    1    3    3    0    0 -0.88690087463E+01 -0.11581804427E+02  0.40323669869E+01  0.15134645468E+02  0.00000000000E+00 0. -1.
</event>
<event>
 7    1  0.2505412E-009  0.4778729E+02  0.7816164E-02  0.1312668E+00
        -11   -1    0    0    0    0  0.00000000000E+00  0.00000000000E+00  0.45593999997E+02  0.45594000000E+02  0.51100000000E-03 0. -1.
         11   -1    0    0    0    0 -0.00000000000E+00 -0.00000000000E+00 -0.45593999997E+02  0.45594000000E+02  0.51100000000E-03 0.  1.
    9900012    2    1    2    0    0  0.23194440799E+02 -0.23328910173E+02  0.28309039789E+02  0.47787287246E+02  0.20000073868E+02 0.  0.
        -12    1    1    2    0    0 -0.23194440799E+02  0.23328910173E+02 -0.28309039789E+02  0.43400712754E+02  0.00000000000E+00 0.  1.
         11    1    3    3    0    0 -0.23016889372E+01 -0.88836554233E+00  0.49465757012E+01  0.55277098992E+01  0.51100000000E-03 0. -1.
        -11    1    3    3    0    0  0.77376983056E+01 -0.11801056462E+02  0.63954706614E+01  0.15493190566E+02  0.51100000000E-03 0.  1.
         12    1    3    3    0    0  0.17758431430E+02 -0.10639488169E+02  0.16966993426E+02  0.26766386780E+02  0.00000000000E+00 0. -1.
</event>
<event>
 7    1  0.2505412E-009  0.4778727E+02  0.7816164E-02  0.1312668E+00
        -11   -1    0    0    0    0  0.00000000000E+00  0.00000000000E+00  0.45593999997E+02  0.45594000000E+02  0.51100000000E-03 0. -1.
         11   -1    0    0    0    0 -0.00000000000E+00 -0.00000000000E+00 -0.45593999997E+02  0.45594000000E+02  0.51100000000E-03 0.  1.
    9900012    2    1    2    0    0  0.20147604264E+02 -0.27709994175E+02  0.26643076151E+02  0.47787271417E+02  0.20000001697E+02 0.  0.
        -12    1    1    2    0    0 -0.20147604264E+02  0.27709994175E+02 -0.26643076151E+02  0.43400728583E+02  0.00000000000E+00 0.  1.
         11    1    3    3    0    0  0.58480364306E+01 -0.39694676109E+01  0.70170688099E+01  0.99596916695E+01  0.51100000000E-03 0. -1.
        -11    1    3    3    0    0  0.14368335295E+02 -0.21356374212E+02  0.95201508309E+01  0.27444071322E+02  0.51100000000E-03 0.  1.
        -12    1    3    3    0    0 -0.68767461964E-01 -0.23841523530E+01  0.10105856510E+02  0.10383508425E+02  0.00000000000E+00 0.  1.
</event>
<event>
 7    1  0.2505412E-009  0.4778726E+02  0.7816164E-02  0.1312668E+00
        -11   -1    0    0    0    0  0.00000000000E+00  0.00000000000E+00  0.45593999997E+02  0.45594000000E+02  0.51100000000E-03 0.  1.
         11   -1    0    0    0    0 -0.00000000000E+00 -0.00000000000E+00 -0.45593999997E+02  0.45594000000E+02  0.51100000000E-03 0. -1.
    9900012    2    1    2    0    0  0.31805284365E+01 -0.30716253531E+02 -0.30496233635E+02  0.47787259706E+02  0.19999948304E+02 0.  0.
        -12    1    1    2    0    0 -0.31805284365E+01  0.30716253531E+02  0.30496233635E+02  0.43400740294E+02  0.00000000000E+00 0.  1.
         11    1    3    3    0    0  0.73065567313E+00 -0.17785343299E+02 -0.14594017563E+02  0.23018202425E+02  0.51100000000E-03 0. -1.
        -11    1    3    3    0    0 -0.14900125447E+01 -0.32268461160E+01  0.19629119975E+01  0.40602582444E+01  0.51100000000E-03 0.  1.
        -12    1    3    3    0    0  0.39398853081E+01 -0.97040641164E+01 -0.17865128070E+02  0.20708799037E+02  0.00000000000E+00 0.  1.
</event>
<event>
 7    1  0.2505412E-009  0.4778727E+02  0.7816164E-02  0.1312668E+00
        -11   -1    0    0    0    0  0.00000000000E+00  0.00000000000E+00  0.45593999997E+02  0.45594000000E+02  0.51100000000E-03 0.  1.
         11   -1    0    0    0    0 -0.00000000000E+00 -0.00000000000E+00 -0.45593999997E+02  0.45594000000E+02  0.51100000000E-03 0. -1.
    9900012    2    1    2    0    0  0.30767811446E+02 -0.12948977260E+02  0.27736060578E+02  0.47787270863E+02  0.19999999172E+02 0.  0.
        -12    1    1    2    0    0 -0.30767811446E+02  0.12948977260E+02 -0.27736060578E+02  0.43400729137E+02  0.00000000000E+00 0.  1.
         11    1    3    3    0    0 -0.16463526669E+00 -0.51446924348E+00 -0.92657116418E+00  0.10725286742E+01  0.51100000000E-03 0. -1.
        -11    1    3    3    0    0  0.23412397236E+02 -0.53221637694E+01  0.27167608286E+02  0.36256650587E+02  0.51100000000E-03 0.  1.
        -12    1    3    3    0    0  0.75200494762E+01 -0.71123442472E+01  0.14950234563E+01  0.10458091602E+02  0.00000000000E+00 0.  1.
</event>
<event>
 7    1  0.2505412E-009  0.4778727E+02  0.7816164E-02  0.1312668E+00
        -11   -1    0    0    0    0  0.00000000000E+00  0.00000000000E+00  0.45593999997E+02  0.45594000000E+02  0.51100000000E-03 0.  1.
         11   -1    0    0    0    0 -0.00000000000E+00 -0.00000000000E+00 -0.45593999997E+02  0.45594000000E+02  0.51100000000E-03 0. -1.
    9900012    2    1    2    0    0  0.93691761640E+01 -0.25055859623E+02 -0.34176685695E+02  0.47787269493E+02  0.19999992925E+02 0.  0.
        -12    1    1    2    0    0 -0.93691761640E+01  0.25055859623E+02  0.34176685695E+02  0.43400730507E+02  0.00000000000E+00 0.  1.
         11    1    3    3    0    0  0.11450064068E+02 -0.18240841295E+02 -0.30472560527E+02  0.37314999714E+02  0.51100000000E-03 0.  1.
        -11    1    3    3    0    0 -0.84399105792E+00 -0.75678090920E+01 -0.44745679029E+01  0.88320899870E+01  0.51100000000E-03 0. -1.
        -12    1    3    3    0    0 -0.12368968458E+01  0.75279076352E+00  0.77044273528E+00  0.16401797917E+01  0.00000000000E+00 0.  1.
</event>
<event>
 7    1  0.2505412E-009  0.4778727E+02  0.7816164E-02  0.1312668E+00
        -11   -1    0    0    0    0  0.00000000000E+00  0.00000000000E+00  0.45593999997E+02  0.45594000000E+02  0.51100000000E-03 0.  1.
         11   -1    0    0    0    0 -0.00000000000E+00 -0.00000000000E+00 -0.45593999997E+02  0.45594000000E+02  0.51100000000E-03 0. -1.
    9900012    2    1    2    0    0 -0.11606356083E+02  0.90148799352E+01 -0.40836845363E+02  0.47787268428E+02  0.19999988071E+02 0.  0.
        -12    1    1    2    0    0  0.11606356083E+02 -0.90148799352E+01  0.40836845363E+02  0.43400731572E+02  0.00000000000E+00 0.  1.
         11    1    3    3    0    0 -0.61321384643E+01 -0.42192196549E+01 -0.82068495765E+01  0.11079590104E+02  0.51100000000E-03 0. -1.
        -11    1    3    3    0    0  0.69226877960E-01  0.51677575884E+01 -0.42626244628E+01  0.66992893970E+01  0.51100000000E-03 0.  1.
         12    1    3    3    0    0 -0.55434444971E+01  0.80663420018E+01 -0.28367371324E+02  0.30008388927E+02  0.00000000000E+00 0. -1.
</event>
<event>
 7    1  0.2505412E-009  0.4778728E+02  0.7816164E-02  0.1312668E+00
        -11   -1    0    0    0    0  0.00000000000E+00  0.00000000000E+00  0.45593999997E+02  0.45594000000E+02  0.51100000000E-03 0.  1.
         11   -1    0    0    0    0 -0.00000000000E+00 -0.00000000000E+00 -0.45593999997E+02  0.45594000000E+02  0.51100000000E-03 0. -1.
    9900012    2    1    2    0    0 -0.85963126748E+01 -0.36281806131E+02  0.22211635384E+02  0.47787276571E+02  0.20000025198E+02 0.  0.
        -12    1    1    2    0    0  0.85963126748E+01  0.36281806131E+02 -0.22211635384E+02  0.43400723429E+02  0.00000000000E+00 0.  1.
         11    1    3    3    0    0  0.16386343697E+01 -0.66399412939E+01  0.74727734524E+01  0.10129969710E+02  0.51100000000E-03 0. -1.
        -11    1    3    3    0    0  0.23865211140E+01 -0.12849274305E+02  0.90404914114E+01  0.15891186816E+02  0.51100000000E-03 0.  1.
         12    1    3    3    0    0 -0.12621468158E+02 -0.16792590532E+02  0.56983705200E+01  0.21766120046E+02  0.00000000000E+00 0. -1.
</event>
<event>
 7    1  0.2505412E-009  0.4778727E+02  0.7816164E-02  0.1312668E+00
        -11   -1    0    0    0    0  0.00000000000E+00  0.00000000000E+00  0.45593999997E+02  0.45594000000E+02  0.51100000000E-03 0. -1.
         11   -1    0    0    0    0 -0.00000000000E+00 -0.00000000000E+00 -0.45593999997E+02  0.45594000000E+02  0.51100000000E-03 0.  1.
    9900012    2    1    2    0    0  0.30088269199E+02  0.31061995845E+02  0.36703746510E+01  0.47787272133E+02  0.20000004965E+02 0.  0.
        -12    1    1    2    0    0 -0.30088269199E+02 -0.31061995845E+02 -0.36703746510E+01  0.43400727867E+02  0.00000000000E+00 0.  1.
         11    1    3    3    0    0  0.44332160641E-01 -0.19759376348E+01 -0.11639763812E+01  0.22937166683E+01  0.51100000000E-03 0. -1.
        -11    1    3    3    0    0  0.77157415897E+01  0.11916849030E+02  0.39906667346E+01  0.14746843064E+02  0.51100000000E-03 0.  1.
         12    1    3    3    0    0  0.22328195448E+02  0.21121084450E+02  0.84368429769E+00  0.30746712402E+02  0.00000000000E+00 0. -1.
</event>
<event>
 7    1  0.2505412E-009  0.4778727E+02  0.7816164E-02  0.1312668E+00
        -11   -1    0    0    0    0  0.00000000000E+00  0.00000000000E+00  0.45593999997E+02  0.45594000000E+02  0.51100000000E-03 0.  1.
         11   -1    0    0    0    0 -0.00000000000E+00 -0.00000000000E+00 -0.45593999997E+02  0.45594000000E+02  0.51100000000E-03 0. -1.
    9900012    2    1    2    0    0 -0.38971450138E+02  0.30385980172E+01 -0.18857782007E+02  0.47787274822E+02  0.20000017224E+02 0.  0.
        -12    1    1    2    0    0  0.38971450138E+02 -0.30385980172E+01  0.18857782007E+02  0.43400725178E+02  0.00000000000E+00 0.  1.
         11    1    3    3    0    0 -0.27017726445E+02  0.57116376069E+01 -0.90133948061E+01  0.29048608101E+02  0.51100000000E-03 0. -1.
        -11    1    3    3    0    0 -0.10867120445E+02 -0.46941556345E+01 -0.40579618653E+01  0.12513850672E+02  0.51100000000E-03 0.  1.
        -12    1    3    3    0    0 -0.10866032481E+01  0.20211160449E+01 -0.57864253354E+01  0.62248160493E+01  0.00000000000E+00 0.  1.
</event>
<event>
 7    1  0.2505412E-009  0.4778727E+02  0.7816164E-02  0.1312668E+00
        -11   -1    0    0    0    0  0.00000000000E+00  0.00000000000E+00  0.45593999997E+02  0.45594000000E+02  0.51100000000E-03 0. -1.
         11   -1    0    0    0    0 -0.00000000000E+00 -0.00000000000E+00 -0.45593999997E+02  0.45594000000E+02  0.51100000000E-03 0.  1.
    9900012    2    1    2    0    0 -0.21700332893E+02 -0.82399888915E+01  0.36671808207E+02  0.47787269802E+02  0.19999994335E+02 0.  0.
        -12    1    1    2    0    0  0.21700332893E+02  0.82399888915E+01 -0.36671808207E+02  0.43400730198E+02  0.00000000000E+00 0.  1.
         11    1    3    3    0    0 -0.65784824132E+01 -0.64889281083E+01  0.63181712513E+01  0.11193833440E+02  0.51100000000E-03 0. -1.
        -11    1    3    3    0    0 -0.10161488690E+01  0.20535795906E+01  0.15822768743E+02  0.15987800305E+02  0.51100000000E-03 0.  1.
         12    1    3    3    0    0 -0.14105701610E+02 -0.38046403738E+01  0.14530868213E+02  0.20605636057E+02  0.00000000000E+00 0. -1.
</event>
<event>
 7    1  0.2505412E-009  0.4778726E+02  0.7816164E-02  0.1312668E+00
        -11   -1    0    0    0    0  0.00000000000E+00  0.00000000000E+00  0.45593999997E+02  0.45594000000E+02  0.51100000000E-03 0. -1.
         11   -1    0    0    0    0 -0.00000000000E+00 -0.00000000000E+00 -0.45593999997E+02  0.45594000000E+02  0.51100000000E-03 0.  1.
    9900012    2    1    2    0    0  0.64662416747E+01 -0.18759860842E+02  0.38598960413E+02  0.47787258011E+02  0.19999940574E+02 0.  0.
        -12    1    1    2    0    0 -0.64662416747E+01  0.18759860842E+02 -0.38598960413E+02  0.43400741989E+02  0.00000000000E+00 0.  1.
         11    1    3    3    0    0  0.13033794517E+01 -0.40556851465E+01  0.15864343746E+02  0.16426344169E+02  0.51100000000E-03 0. -1.
        -11    1    3    3    0    0 -0.32731338364E+01 -0.10157363474E+02  0.17347760663E+02  0.20367381721E+02  0.51100000000E-03 0.  1.
        -12    1    3    3    0    0  0.84359960594E+01 -0.45468122220E+01  0.53868560043E+01  0.10993532122E+02  0.00000000000E+00 0.  1.
</event>
<event>
 7    1  0.2505412E-009  0.4778727E+02  0.7816164E-02  0.1312668E+00
        -11   -1    0    0    0    0  0.00000000000E+00  0.00000000000E+00  0.45593999997E+02  0.45594000000E+02  0.51100000000E-03 0. -1.
         11   -1    0    0    0    0 -0.00000000000E+00 -0.00000000000E+00 -0.45593999997E+02  0.45594000000E+02  0.51100000000E-03 0.  1.
    9900012    2    1    2    0    0 -0.40376656847E+02 -0.15305138326E+02 -0.43705304528E+01  0.47787271737E+02  0.20000003156E+02 0.  0.
        -12    1    1    2    0    0  0.40376656847E+02  0.15305138326E+02  0.43705304528E+01  0.43400728263E+02  0.00000000000E+00 0.  1.
         11    1    3    3    0    0 -0.35819652072E+01  0.75085123565E-01 -0.13795096787E+01  0.38391613324E+01  0.51100000000E-03 0. -1.
        -11    1    3    3    0    0 -0.11623472067E+02 -0.18269569277E+01 -0.89032607755E+01  0.14755030573E+02  0.51100000000E-03 0.  1.
         12    1    3    3    0    0 -0.25171219573E+02 -0.13553266522E+02  0.59122400014E+01  0.29193079832E+02  0.00000000000E+00 0. -1.
</event>
<event>
 7    1  0.2505412E-009  0.4778729E+02  0.7816164E-02  0.1312668E+00
        -11   -1    0    0    0    0  0.00000000000E+00  0.00000000000E+00  0.45593999997E+02  0.45594000000E+02  0.51100000000E-03 0.  1.
         11   -1    0    0    0    0 -0.00000000000E+00 -0.00000000000E+00 -0.45593999997E+02  0.45594000000E+02  0.51100000000E-03 0. -1.
    9900012    2    1    2    0    0  0.28196649547E+02 -0.30043337932E+01 -0.32856429522E+02  0.47787285396E+02  0.20000065433E+02 0.  0.
        -12    1    1    2    0    0 -0.28196649547E+02  0.30043337932E+01  0.32856429522E+02  0.43400714604E+02  0.00000000000E+00 0.  1.
         11    1    3    3    0    0  0.24939038789E+02  0.19578837164E+01 -0.23451391380E+02  0.34289309154E+02  0.51100000000E-03 0. -1.
        -11    1    3    3    0    0  0.32716722187E+01 -0.35351583044E+01 -0.93263719786E+00  0.49062201080E+01  0.51100000000E-03 0.  1.
        -12    1    3    3    0    0 -0.14061460217E-01 -0.14270592052E+01 -0.84724009443E+01  0.85917561337E+01  0.00000000000E+00 0.  1.
</event>
<event>
 7    1  0.2505412E-009  0.4778728E+02  0.7816164E-02  0.1312668E+00
        -11   -1    0    0    0    0  0.00000000000E+00  0.00000000000E+00  0.45593999997E+02  0.45594000000E+02  0.51100000000E-03 0. -1.
         11   -1    0    0    0    0 -0.00000000000E+00 -0.00000000000E+00 -0.45593999997E+02  0.45594000000E+02  0.51100000000E-03 0.  1.
    9900012    2    1    2    0    0 -0.18120848539E+02 -0.27394961739E+02  0.28368536191E+02  0.47787275051E+02  0.20000018269E+02 0.  0.
        -12    1    1    2    0    0  0.18120848539E+02  0.27394961739E+02 -0.28368536191E+02  0.43400724949E+02  0.00000000000E+00 0.  1.
         11    1    3    3    0    0 -0.90860090597E+01 -0.12520404813E+02  0.15473638009E+02  0.21880346680E+02  0.51100000000E-03 0. -1.
        -11    1    3    3    0    0 -0.11233144458E+01 -0.12182738218E+02  0.23600736113E+01  0.12459971651E+02  0.51100000000E-03 0.  1.
         12    1    3    3    0    0 -0.79115250331E+01 -0.26918187076E+01  0.10534824570E+02  0.13446956720E+02  0.00000000000E+00 0. -1.
</event>
<event>
 7    1  0.2505412E-009  0.4778728E+02  0.7816164E-02  0.1312668E+00
        -11   -1    0    0    0    0  0.00000000000E+00  0.00000000000E+00  0.45593999997E+02  0.45594000000E+02  0.51100000000E-03 0.  1.
         11   -1    0    0    0    0 -0.00000000000E+00 -0.00000000000E+00 -0.45593999997E+02  0.45594000000E+02  0.51100000000E-03 0. -1.
    9900012    2    1    2    0    0 -0.20987328066E+02  0.16375660715E+02 -0.34278155900E+02  0.47787283703E+02  0.20000057715E+02 0.  0.
        -12    1    1    2    0    0  0.20987328066E+02 -0.16375660715E+02  0.34278155900E+02  0.43400716297E+02  0.00000000000E+00 0.  1.
         11    1    3    3    0    0 -0.11217767967E+02 -0.12996420125E+01 -0.66271508179E+01  0.13093758656E+02  0.51100000000E-03 0. -1.
        -11    1    3    3    0    0  0.14119558196E+00  0.59673370480E+00  0.11334772419E+00  0.62359864858E+00  0.51100000000E-03 0.  1.
        -12    1    3    3    0    0 -0.99107556808E+01  0.17078569023E+02 -0.27764352806E+02  0.34069926398E+02  0.00000000000E+00 0.  1.
</event>
<event>
 7    1  0.2505412E-009  0.4778727E+02  0.7816164E-02  0.1312668E+00
        -11   -1    0    0    0    0  0.00000000000E+00  0.00000000000E+00  0.45593999997E+02  0.45594000000E+02  0.51100000000E-03 0.  1.
         11   -1    0    0    0    0 -0.00000000000E+00 -0.00000000000E+00 -0.45593999997E+02  0.45594000000E+02  0.51100000000E-03 0. -1.
    9900012    2    1    2    0    0 -0.31573506287E+02 -0.25645607167E+02 -0.15134056385E+02  0.47787272715E+02  0.20000007616E+02 0.  0.
        -12    1    1    2    0    0  0.31573506287E+02  0.25645607167E+02  0.15134056385E+02  0.43400727285E+02  0.00000000000E+00 0.  1.
         11    1    3    3    0    0 -0.11317917541E+02 -0.14881119422E+01 -0.14160345196E+01  0.11502820899E+02  0.51100000000E-03 0. -1.
        -11    1    3    3    0    0 -0.74330798799E+00 -0.81723650161E+01 -0.49311579601E+01  0.95737336400E+01  0.51100000000E-03 0.  1.
         12    1    3    3    0    0 -0.19512280758E+02 -0.15985130208E+02 -0.87868639056E+01  0.26710718176E+02  0.00000000000E+00 0. -1.
</event>
<event>
 7    1  0.2505412E-009  0.4778727E+02  0.7816164E-02  0.1312668E+00
        -11   -1    0    0    0    0  0.00000000000E+00  0.00000000000E+00  0.45593999997E+02  0.45594000000E+02  0.51100000000E-03 0.  1.
         11   -1    0    0    0    0 -0.00000000000E+00 -0.00000000000E+00 -0.45593999997E+02  0.45594000000E+02  0.51100000000E-03 0. -1.
    9900012    2    1    2    0    0 -0.14826052789E+02 -0.17161434336E+02 -0.37004008918E+02  0.47787270216E+02  0.19999996222E+02 0.  0.
        -12    1    1    2    0    0  0.14826052789E+02  0.17161434336E+02  0.37004008918E+02  0.43400729784E+02  0.00000000000E+00 0.  1.
         11    1    3    3    0    0  0.20337035657E+01 -0.29317347473E+01 -0.44155314272E+01  0.56769654629E+01  0.51100000000E-03 0. -1.
        -11    1    3    3    0    0 -0.12178771257E+02 -0.27147806015E+01 -0.87954144843E+01  0.15266034824E+02  0.51100000000E-03 0.  1.
         12    1    3    3    0    0 -0.46809850980E+01 -0.11514918987E+02 -0.23793063007E+02  0.26844269929E+02  0.00000000000E+00 0. -1.
</event>
<event>
 7    1  0.2505412E-009  0.4778727E+02  0.7816164E-02  0.1312668E+00
        -11   -1    0    0    0    0  0.00000000000E+00  0.00000000000E+00  0.45593999997E+02  0.45594000000E+02  0.51100000000E-03 0.  1.
         11   -1    0    0    0    0 -0.00000000000E+00 -0.00000000000E+00 -0.45593999997E+02  0.45594000000E+02  0.51100000000E-03 0. -1.
    9900012    2    1    2    0    0 -0.12908225266E+02  0.16791894075E+02 -0.37881833455E+02  0.47787270835E+02  0.19999999046E+02 0.  0.
        -12    1    1    2    0    0  0.12908225266E+02 -0.16791894075E+02  0.37881833455E+02  0.43400729165E+02  0.00000000000E+00 0.  1.
         11    1    3    3    0    0 -0.96649769740E+01  0.10825838913E+02 -0.26057028710E+02  0.29825816226E+02  0.51100000000E-03 0. -1.
        -11    1    3    3    0    0  0.26003711086E+01  0.68972675676E+01 -0.81820824810E+01  0.11012751872E+02  0.51100000000E-03 0.  1.
        -12    1    3    3    0    0 -0.58436194007E+01 -0.93121240547E+00 -0.36427222637E+01  0.69487027376E+01  0.00000000000E+00 0.  1.
</event>
<event>
 7    1  0.2505412E-009  0.4778727E+02  0.7816164E-02  0.1312668E+00
        -11   -1    0    0    0    0  0.00000000000E+00  0.00000000000E+00  0.45593999997E+02  0.45594000000E+02  0.51100000000E-03 0.  1.
         11   -1    0    0    0    0 -0.00000000000E+00 -0.00000000000E+00 -0.45593999997E+02  0.45594000000E+02  0.51100000000E-03 0. -1.
    9900012    2    1    2    0    0 -0.43153241933E+02  0.22178787602E+01  0.40622650930E+01  0.47787271052E+02  0.20000000033E+02 0.  0.
        -12    1    1    2    0    0  0.43153241933E+02 -0.22178787602E+01 -0.40622650930E+01  0.43400728948E+02  0.00000000000E+00 0.  1.
         11    1    3    3    0    0 -0.25560074697E+02  0.22902218584E+00  0.36375252530E+01  0.25818626220E+02  0.51100000000E-03 0. -1.
        -11    1    3    3    0    0 -0.56505661358E+01 -0.51761290147E+01 -0.17830477378E+01  0.78676850934E+01  0.51100000000E-03 0.  1.
         12    1    3    3    0    0 -0.11942601101E+02  0.71649855891E+01  0.22077875778E+01  0.14100959738E+02  0.00000000000E+00 0. -1.
</event>
<event>
 7    1  0.2505412E-009  0.4778727E+02  0.7816164E-02  0.1312668E+00
        -11   -1    0    0    0    0  0.00000000000E+00  0.00000000000E+00  0.45593999997E+02  0.45594000000E+02  0.51100000000E-03 0. -1.
         11   -1    0    0    0    0 -0.00000000000E+00 -0.00000000000E+00 -0.45593999997E+02  0.45594000000E+02  0.51100000000E-03 0.  1.
    9900012    2    1    2    0    0 -0.31131924127E+02  0.24046335462E+02 -0.18335763618E+02  0.47787272166E+02  0.20000005116E+02 0.  0.
        -12    1    1    2    0    0  0.31131924127E+02 -0.24046335462E+02  0.18335763618E+02  0.43400727834E+02  0.00000000000E+00 0.  1.
         11    1    3    3    0    0 -0.21154159185E+02  0.11632074005E+02 -0.10168175447E+02  0.26195331429E+02  0.51100000000E-03 0. -1.
        -11    1    3    3    0    0 -0.43362054615E+01  0.54043293615E+01 -0.10234581587E+02  0.12359454445E+02  0.51100000000E-03 0.  1.
        -12    1    3    3    0    0 -0.56415594804E+01  0.70099320958E+01  0.20669934162E+01  0.92324862925E+01  0.00000000000E+00 0.  1.
</event>
<event>
 7    1  0.2505412E-009  0.4778725E+02  0.7816164E-02  0.1312668E+00
        -11   -1    0    0    0    0  0.00000000000E+00  0.00000000000E+00  0.45593999997E+02  0.45594000000E+02  0.51100000000E-03 0. -1.
         11   -1    0    0    0    0 -0.00000000000E+00 -0.00000000000E+00 -0.45593999997E+02  0.45594000000E+02  0.51100000000E-03 0.  1.
    9900012    2    1    2    0    0 -0.25147192745E+02  0.34291505616E+02  0.86796348922E+01  0.47787254359E+02  0.19999923923E+02 0.  0.
        -12    1    1    2    0    0  0.25147192745E+02 -0.34291505616E+02 -0.86796348922E+01  0.43400745641E+02  0.00000000000E+00 0.  1.
         11    1    3    3    0    0 -0.58952176896E+01  0.14477086589E+02  0.89811758784E+01  0.18027788221E+02  0.51100000000E-03 0. -1.
        -11    1    3    3    0    0 -0.57111454086E+01 -0.45988745927E-01  0.23587539335E+00  0.57161992885E+01  0.51100000000E-03 0.  1.
         12    1    3    3    0    0 -0.13540829647E+02  0.19860407772E+02 -0.53741637960E+00  0.24043266849E+02  0.00000000000E+00 0. -1.
</event>
<event>
 7    1  0.2505412E-009  0.4778727E+02  0.7816164E-02  0.1312668E+00
        -11   -1    0    0    0    0  0.00000000000E+00  0.00000000000E+00  0.45593999997E+02  0.45594000000E+02  0.51100000000E-03 0. -1.
         11   -1    0    0    0    0 -0.00000000000E+00 -0.00000000000E+00 -0.45593999997E+02  0.45594000000E+02  0.51100000000E-03 0.  1.
    9900012    2    1    2    0    0  0.32592471470E+02 -0.14271164352E+02  0.24853327373E+02  0.47787271780E+02  0.20000003354E+02 0.  0.
        -12    1    1    2    0    0 -0.32592471470E+02  0.14271164352E+02 -0.24853327373E+02  0.43400728220E+02  0.00000000000E+00 0.  1.
         11    1    3    3    0    0  0.88252476232E+01 -0.98479863352E+01  0.87067470332E+00  0.13252392432E+02  0.51100000000E-03 0. -1.
        -11    1    3    3    0    0  0.83121178940E+01  0.10478664031E+01  0.68526692343E+01  0.10823511620E+02  0.51100000000E-03 0.  1.
         12    1    3    3    0    0  0.15455105953E+02 -0.54710444199E+01  0.17129983435E+02  0.23711367729E+02  0.00000000000E+00 0. -1.
</event>
<event>
 7    1  0.2505412E-009  0.4778729E+02  0.7816164E-02  0.1312668E+00
        -11   -1    0    0    0    0  0.00000000000E+00  0.00000000000E+00  0.45593999997E+02  0.45594000000E+02  0.51100000000E-03 0.  1.
         11   -1    0    0    0    0 -0.00000000000E+00 -0.00000000000E+00 -0.45593999997E+02  0.45594000000E+02  0.51100000000E-03 0. -1.
    9900012    2    1    2    0    0 -0.61781409393E+01  0.35746988822E+02 -0.23824457532E+02  0.47787292495E+02  0.20000097799E+02 0.  0.
        -12    1    1    2    0    0  0.61781409393E+01 -0.35746988822E+02  0.23824457532E+02  0.43400707505E+02  0.00000000000E+00 0.  1.
         11    1    3    3    0    0 -0.76797689378E+00 -0.53311608192E+00  0.61294826456E+00  0.11179029933E+01  0.51100000000E-03 0.  1.
        -11    1    3    3    0    0 -0.81436082037E+01  0.28816131936E+02 -0.24546730425E+02  0.38719888806E+02  0.51100000000E-03 0. -1.
        -12    1    3    3    0    0  0.27334441582E+01  0.74639729674E+01  0.10932462868E+00  0.79495006949E+01  0.00000000000E+00 0.  1.
</event>
<event>
 7    1  0.2505412E-009  0.4778727E+02  0.7816164E-02  0.1312668E+00
        -11   -1    0    0    0    0  0.00000000000E+00  0.00000000000E+00  0.45593999997E+02  0.45594000000E+02  0.51100000000E-03 0. -1.
         11   -1    0    0    0    0 -0.00000000000E+00 -0.00000000000E+00 -0.45593999997E+02  0.45594000000E+02  0.51100000000E-03 0.  1.
    9900012    2    1    2    0    0 -0.89757118012E+01 -0.38878403895E+02  0.17074238041E+02  0.47787270784E+02  0.19999998814E+02 0.  0.
        -12    1    1    2    0    0  0.89757118012E+01  0.38878403895E+02 -0.17074238041E+02  0.43400729216E+02  0.00000000000E+00 0.  1.
         11    1    3    3    0    0 -0.86612312364E+01 -0.34246894277E+02  0.20055807413E+02  0.40621448834E+02  0.51100000000E-03 0. -1.
        -11    1    3    3    0    0  0.17140333142E+01 -0.35154580514E+00 -0.50532124436E+00  0.18212206007E+01  0.51100000000E-03 0.  1.
         12    1    3    3    0    0 -0.20285138790E+01 -0.42799638133E+01 -0.24762481272E+01  0.53446013498E+01  0.00000000000E+00 0. -1.
</event>
<event>
 7    1  0.2505412E-009  0.4778727E+02  0.7816164E-02  0.1312668E+00
        -11   -1    0    0    0    0  0.00000000000E+00  0.00000000000E+00  0.45593999997E+02  0.45594000000E+02  0.51100000000E-03 0.  1.
         11   -1    0    0    0    0 -0.00000000000E+00 -0.00000000000E+00 -0.45593999997E+02  0.45594000000E+02  0.51100000000E-03 0. -1.
    9900012    2    1    2    0    0 -0.34968354090E+02  0.24921514395E+02 -0.63052014575E+01  0.47787271516E+02  0.20000002151E+02 0.  0.
        -12    1    1    2    0    0  0.34968354090E+02 -0.24921514395E+02  0.63052014575E+01  0.43400728484E+02  0.00000000000E+00 0.  1.
         11    1    3    3    0    0 -0.98900612997E+01  0.41141577886E+01 -0.20273903242E+01  0.10901830975E+02  0.51100000000E-03 0. -1.
        -11    1    3    3    0    0 -0.52661988363E+01  0.11093881520E+02  0.45829374938E+01  0.13107645620E+02  0.51100000000E-03 0.  1.
        -12    1    3    3    0    0 -0.19812093954E+02  0.97134750870E+01 -0.88607486270E+01  0.23777794922E+02  0.00000000000E+00 0.  1.
</event>
<event>
 7    1  0.2505412E-009  0.4778727E+02  0.7816164E-02  0.1312668E+00
        -11   -1    0    0    0    0  0.00000000000E+00  0.00000000000E+00  0.45593999997E+02  0.45594000000E+02  0.51100000000E-03 0.  1.
         11   -1    0    0    0    0 -0.00000000000E+00 -0.00000000000E+00 -0.45593999997E+02  0.45594000000E+02  0.51100000000E-03 0. -1.
    9900012    2    1    2    0    0  0.41939481066E+02 -0.91661565405E+01  0.63785010564E+01  0.47787265288E+02  0.19999973752E+02 0.  0.
        -12    1    1    2    0    0 -0.41939481066E+02  0.91661565405E+01 -0.63785010564E+01  0.43400734712E+02  0.00000000000E+00 0.  1.
         11    1    3    3    0    0  0.22143360342E+02 -0.39436871932E+01  0.39939129151E+01  0.22843651559E+02  0.51100000000E-03 0. -1.
        -11    1    3    3    0    0  0.11623022047E+01  0.19392010099E+01 -0.34687412455E+01  0.41404846408E+01  0.51100000000E-03 0.  1.
         12    1    3    3    0    0  0.18633818520E+02 -0.71616703571E+01  0.58533293867E+01  0.20803129088E+02  0.00000000000E+00 0. -1.
</event>
<event>
 7    1  0.2505412E-009  0.4778727E+02  0.7816164E-02  0.1312668E+00
        -11   -1    0    0    0    0  0.00000000000E+00  0.00000000000E+00  0.45593999997E+02  0.45594000000E+02  0.51100000000E-03 0.  1.
         11   -1    0    0    0    0 -0.00000000000E+00 -0.00000000000E+00 -0.45593999997E+02  0.45594000000E+02  0.51100000000E-03 0. -1.
    9900012    2    1    2    0    0  0.67509012174E+01 -0.20101537343E+02 -0.37867890184E+02  0.47787267544E+02  0.19999984038E+02 0.  0.
        -12    1    1    2    0    0 -0.67509012174E+01  0.20101537343E+02  0.37867890184E+02  0.43400732456E+02  0.00000000000E+00 0.  1.
         11    1    3    3    0    0 -0.37250628571E+01 -0.10320266552E+02 -0.12820061786E+02  0.16874180853E+02  0.51100000000E-03 0.  1.
        -11    1    3    3    0    0  0.86419322127E+01 -0.95575804198E+01 -0.11595690901E+02  0.17334658450E+02  0.51100000000E-03 0. -1.
        -12    1    3    3    0    0  0.18340318618E+01 -0.22369037083E+00 -0.13452137497E+02  0.13578428241E+02  0.00000000000E+00 0.  1.
</event>
<event>
 7    1  0.2505412E-009  0.4778727E+02  0.7816164E-02  0.1312668E+00
        -11   -1    0    0    0    0  0.00000000000E+00  0.00000000000E+00  0.45593999997E+02  0.45594000000E+02  0.51100000000E-03 0.  1.
         11   -1    0    0    0    0 -0.00000000000E+00 -0.00000000000E+00 -0.45593999997E+02  0.45594000000E+02  0.51100000000E-03 0. -1.
    9900012    2    1    2    0    0  0.40956936674E+02 -0.11029062615E+02 -0.91930574144E+01  0.47787272028E+02  0.20000004484E+02 0.  0.
        -12    1    1    2    0    0 -0.40956936674E+02  0.11029062615E+02  0.91930574144E+01  0.43400727972E+02  0.00000000000E+00 0.  1.
         11    1    3    3    0    0  0.15809208974E+02 -0.84093917845E+00 -0.45684090697E+01  0.16477518890E+02  0.51100000000E-03 0. -1.
        -11    1    3    3    0    0 -0.15758954237E+01  0.10811408114E+01  0.14925725334E+00  0.19169219675E+01  0.51100000000E-03 0.  1.
        -12    1    3    3    0    0  0.26723623124E+02 -0.11269264248E+02 -0.47739055980E+01  0.29392831171E+02  0.00000000000E+00 0.  1.
</event>
<event>
 7    1  0.2505412E-009  0.4778727E+02  0.7816164E-02  0.1312668E+00
        -11   -1    0    0    0    0  0.00000000000E+00  0.00000000000E+00  0.45593999997E+02  0.45594000000E+02  0.51100000000E-03 0.  1.
         11   -1    0    0    0    0 -0.00000000000E+00 -0.00000000000E+00 -0.45593999997E+02  0.45594000000E+02  0.51100000000E-03 0. -1.
    9900012    2    1    2    0    0 -0.27514390159E+02 -0.14590332320E+02 -0.30227536720E+02  0.47787269140E+02  0.19999991315E+02 0.  0.
        -12    1    1    2    0    0  0.27514390159E+02  0.14590332320E+02  0.30227536720E+02  0.43400730860E+02  0.00000000000E+00 0.  1.
         11    1    3    3    0    0  0.40131055144E-01 -0.42735854539E+01  0.45884748045E-01  0.42740202158E+01  0.51100000000E-03 0. -1.
        -11    1    3    3    0    0 -0.11197912433E+02  0.11785562994E+01 -0.11242031106E+02  0.15911175364E+02  0.51100000000E-03 0.  1.
         12    1    3    3    0    0 -0.16356608782E+02 -0.11495303166E+02 -0.19031390362E+02  0.27602073560E+02  0.00000000000E+00 0. -1.
</event>
<event>
 7    1  0.2505412E-009  0.4778727E+02  0.7816164E-02  0.1312668E+00
        -11   -1    0    0    0    0  0.00000000000E+00  0.00000000000E+00  0.45593999997E+02  0.45594000000E+02  0.51100000000E-03 0.  1.
         11   -1    0    0    0    0 -0.00000000000E+00 -0.00000000000E+00 -0.45593999997E+02  0.45594000000E+02  0.51100000000E-03 0. -1.
    9900012    2    1    2    0    0  0.39536097412E+01 -0.92837525367E+00 -0.43210306380E+02  0.47787268577E+02  0.19999988752E+02 0.  0.
        -12    1    1    2    0    0 -0.39536097412E+01  0.92837525367E+00  0.43210306380E+02  0.43400731423E+02  0.00000000000E+00 0.  1.
         11    1    3    3    0    0  0.22329292596E+01 -0.23174612984E+01 -0.11791630427E+01  0.34273934251E+01  0.51100000000E-03 0. -1.
        -11    1    3    3    0    0 -0.10671908624E+01 -0.43153977363E+01 -0.33126373021E+02  0.33423317366E+02  0.51100000000E-03 0.  1.
        -12    1    3    3    0    0  0.27878713439E+01  0.57044837810E+01 -0.89047703159E+01  0.10936557786E+02  0.00000000000E+00 0.  1.
</event>
<event>
 7    1  0.2505412E-009  0.4778727E+02  0.7816164E-02  0.1312668E+00
        -11   -1    0    0    0    0  0.00000000000E+00  0.00000000000E+00  0.45593999997E+02  0.45594000000E+02  0.51100000000E-03 0.  1.
         11   -1    0    0    0    0 -0.00000000000E+00 -0.00000000000E+00 -0.45593999997E+02  0.45594000000E+02  0.51100000000E-03 0. -1.
    9900012    2    1    2    0    0  0.14052246384E+02 -0.75717870118E+01 -0.40358715899E+02  0.47787268024E+02  0.19999986230E+02 0.  0.
        -12    1    1    2    0    0 -0.14052246384E+02  0.75717870118E+01  0.40358715899E+02  0.43400731976E+02  0.00000000000E+00 0.  1.
         11    1    3    3    0    0 -0.80441025561E+00 -0.64758123910E+00 -0.20613315992E+01  0.23055423534E+01  0.51100000000E-03 0. -1.
        -11    1    3    3    0    0  0.16608059783E+02 -0.10743477078E+02 -0.27328962206E+02  0.33736065642E+02  0.51100000000E-03 0.  1.
         12    1    3    3    0    0 -0.17514031436E+01  0.38192713053E+01 -0.10968422095E+02  0.11745660029E+02  0.00000000000E+00 0. -1.
</event>
<event>
 7    1  0.2505412E-009  0.4778727E+02  0.7816164E-02  0.1312668E+00
        -11   -1    0    0    0    0  0.00000000000E+00  0.00000000000E+00  0.45593999997E+02  0.45594000000E+02  0.51100000000E-03 0. -1.
         11   -1    0    0    0    0 -0.00000000000E+00 -0.00000000000E+00 -0.45593999997E+02  0.45594000000E+02  0.51100000000E-03 0.  1.
    9900012    2    1    2    0    0 -0.14258236591E+02 -0.32929841399E+02  0.24412121496E+02  0.47787269117E+02  0.19999991212E+02 0.  0.
        -12    1    1    2    0    0  0.14258236591E+02  0.32929841399E+02 -0.24412121496E+02  0.43400730883E+02  0.00000000000E+00 0.  1.
         11    1    3    3    0    0  0.25953743741E+00 -0.10461745028E+02  0.10371796583E+01  0.10516235572E+02  0.51100000000E-03 0.  1.
        -11    1    3    3    0    0 -0.24609414418E+01 -0.12341825602E+02  0.14489664384E+02  0.19191854163E+02  0.51100000000E-03 0. -1.
         12    1    3    3    0    0 -0.12056832587E+02 -0.10126270769E+02  0.88852774538E+01  0.18079179382E+02  0.00000000000E+00 0. -1.
</event>
<event>
 7    1  0.2505412E-009  0.4778726E+02  0.7816164E-02  0.1312668E+00
        -11   -1    0    0    0    0  0.00000000000E+00  0.00000000000E+00  0.45593999997E+02  0.45594000000E+02  0.51100000000E-03 0. -1.
         11   -1    0    0    0    0 -0.00000000000E+00 -0.00000000000E+00 -0.45593999997E+02  0.45594000000E+02  0.51100000000E-03 0.  1.
    9900012    2    1    2    0    0  0.32496087860E+02  0.11124859784E+02  0.26530465457E+02  0.47787264652E+02  0.19999970853E+02 0.  0.
        -12    1    1    2    0    0 -0.32496087860E+02 -0.11124859784E+02 -0.26530465457E+02  0.43400735348E+02  0.00000000000E+00 0.  1.
         11    1    3    3    0    0  0.22199530617E+01 -0.39773869422E+01  0.32896406197E+00  0.45668387424E+01  0.51100000000E-03 0. -1.
        -11    1    3    3    0    0  0.20923513739E+02  0.75017547770E+01  0.15446736083E+02  0.27067903646E+02  0.51100000000E-03 0.  1.
        -12    1    3    3    0    0  0.93526210590E+01  0.76004919488E+01  0.10754765313E+02  0.16152522263E+02  0.00000000000E+00 0.  1.
</event>
<event>
 7    1  0.2505412E-009  0.4778727E+02  0.7816164E-02  0.1312668E+00
        -11   -1    0    0    0    0  0.00000000000E+00  0.00000000000E+00  0.45593999997E+02  0.45594000000E+02  0.51100000000E-03 0. -1.
         11   -1    0    0    0    0 -0.00000000000E+00 -0.00000000000E+00 -0.45593999997E+02  0.45594000000E+02  0.51100000000E-03 0.  1.
    9900012    2    1    2    0    0 -0.66984244112E+01 -0.37534192127E+02  0.20734970799E+02  0.47787268644E+02  0.19999989055E+02 0.  0.
        -12    1    1    2    0    0  0.66984244112E+01  0.37534192127E+02 -0.20734970799E+02  0.43400731356E+02  0.00000000000E+00 0.  1.
         11    1    3    3    0    0 -0.82456788104E+01 -0.27322037184E+02  0.10740065336E+02  0.30493178558E+02  0.51100000000E-03 0. -1.
        -11    1    3    3    0    0  0.11188846945E+01 -0.10934906047E+02  0.11285617453E+02  0.15754022812E+02  0.51100000000E-03 0.  1.
        -12    1    3    3    0    0  0.42836970466E+00  0.72275110335E+00 -0.12907119910E+01  0.15400672729E+01  0.00000000000E+00 0.  1.
</event>
<event>
 7    1  0.2505412E-009  0.4778724E+02  0.7816164E-02  0.1312668E+00
        -11   -1    0    0    0    0  0.00000000000E+00  0.00000000000E+00  0.45593999997E+02  0.45594000000E+02  0.51100000000E-03 0. -1.
         11   -1    0    0    0    0 -0.00000000000E+00 -0.00000000000E+00 -0.45593999997E+02  0.45594000000E+02  0.51100000000E-03 0.  1.
    9900012    2    1    2    0    0  0.32540444015E+02 -0.25474281551E+01  0.28605168566E+02  0.47787244758E+02  0.19999880147E+02 0.  0.
        -12    1    1    2    0    0 -0.32540444015E+02  0.25474281551E+01 -0.28605168566E+02  0.43400755242E+02  0.00000000000E+00 0.  1.
         11    1    3    3    0    0  0.17712565289E+02 -0.16233606340E+01  0.21985450680E+02  0.28279503368E+02  0.51100000000E-03 0. -1.
        -11    1    3    3    0    0  0.15004490882E+02 -0.37376425004E+01  0.61905039218E+01  0.16656141725E+02  0.51100000000E-03 0.  1.
         12    1    3    3    0    0 -0.17661215634E+00  0.28135749792E+01  0.42921396405E+00  0.28515996641E+01  0.00000000000E+00 0. -1.
</event>
<event>
 7    1  0.2505412E-009  0.4778727E+02  0.7816164E-02  0.1312668E+00
        -11   -1    0    0    0    0  0.00000000000E+00  0.00000000000E+00  0.45593999997E+02  0.45594000000E+02  0.51100000000E-03 0. -1.
         11   -1    0    0    0    0 -0.00000000000E+00 -0.00000000000E+00 -0.45593999997E+02  0.45594000000E+02  0.51100000000E-03 0.  1.
    9900012    2    1    2    0    0 -0.30347360744E+02 -0.30809665487E+02  0.36641443855E+01  0.47787265610E+02  0.19999975221E+02 0.  0.
        -12    1    1    2    0    0  0.30347360744E+02  0.30809665487E+02 -0.36641443855E+01  0.43400734390E+02  0.00000000000E+00 0.  1.
         11    1    3    3    0    0 -0.30135618632E+02 -0.25917295643E+02  0.62905859599E+01  0.40242181797E+02  0.51100000000E-03 0. -1.
        -11    1    3    3    0    0 -0.22124116907E+01 -0.16986582801E+01 -0.25445590051E+01  0.37755776026E+01  0.51100000000E-03 0.  1.
        -12    1    3    3    0    0  0.20006695786E+01 -0.31937115639E+01 -0.81882569303E-01  0.37695062106E+01  0.00000000000E+00 0.  1.
</event>
<event>
 7    1  0.2505412E-009  0.4778726E+02  0.7816164E-02  0.1312668E+00
        -11   -1    0    0    0    0  0.00000000000E+00  0.00000000000E+00  0.45593999997E+02  0.45594000000E+02  0.51100000000E-03 0. -1.
         11   -1    0    0    0    0 -0.00000000000E+00 -0.00000000000E+00 -0.45593999997E+02  0.45594000000E+02  0.51100000000E-03 0.  1.
    9900012    2    1    2    0    0 -0.33434709242E+02 -0.14082689076E+02  0.23820623016E+02  0.47787262742E+02  0.19999962144E+02 0.  0.
        -12    1    1    2    0    0  0.33434709242E+02  0.14082689076E+02 -0.23820623016E+02  0.43400737258E+02  0.00000000000E+00 0.  1.
         11    1    3    3    0    0 -0.12396415659E+02 -0.25918280254E+01  0.77370462569E+01  0.14840841578E+02  0.51100000000E-03 0. -1.
        -11    1    3    3    0    0 -0.89619949608E+00 -0.20014048913E+01 -0.29351787508E+01  0.36638872302E+01  0.51100000000E-03 0.  1.
        -12    1    3    3    0    0 -0.20142094087E+02 -0.94894561588E+01  0.19018755510E+02  0.29282533933E+02  0.00000000000E+00 0.  1.
</event>
<event>
 7    1  0.2505412E-009  0.4778727E+02  0.7816164E-02  0.1312668E+00
        -11   -1    0    0    0    0  0.00000000000E+00  0.00000000000E+00  0.45593999997E+02  0.45594000000E+02  0.51100000000E-03 0.  1.
         11   -1    0    0    0    0 -0.00000000000E+00 -0.00000000000E+00 -0.45593999997E+02  0.45594000000E+02  0.51100000000E-03 0. -1.
    9900012    2    1    2    0    0 -0.38997609734E+02 -0.10870783642E+02 -0.15640829618E+02  0.47787273588E+02  0.20000011596E+02 0.  0.
        -12    1    1    2    0    0  0.38997609734E+02  0.10870783642E+02  0.15640829618E+02  0.43400726412E+02  0.00000000000E+00 0.  1.
         11    1    3    3    0    0 -0.32246537984E+02 -0.92147641507E+01 -0.81298885997E+01  0.34508639197E+02  0.51100000000E-03 0. -1.
        -11    1    3    3    0    0 -0.76346311381E+01 -0.33082289211E+01 -0.77733767946E+01  0.11386718503E+02  0.51100000000E-03 0.  1.
        -12    1    3    3    0    0  0.88355938748E+00  0.16522094301E+01  0.26243577671E+00  0.18919158885E+01  0.00000000000E+00 0.  1.
</event>
<event>
 7    1  0.2505412E-009  0.4778727E+02  0.7816164E-02  0.1312668E+00
        -11   -1    0    0    0    0  0.00000000000E+00  0.00000000000E+00  0.45593999997E+02  0.45594000000E+02  0.51100000000E-03 0.  1.
         11   -1    0    0    0    0 -0.00000000000E+00 -0.00000000000E+00 -0.45593999997E+02  0.45594000000E+02  0.51100000000E-03 0. -1.
    9900012    2    1    2    0    0  0.18474723787E+02  0.35839309770E+01 -0.39108353465E+02  0.47787270847E+02  0.19999999098E+02 0.  0.
        -12    1    1    2    0    0 -0.18474723787E+02 -0.35839309770E+01  0.39108353465E+02  0.43400729153E+02  0.00000000000E+00 0.  1.
         11    1    3    3    0    0  0.13334881029E+02  0.47755892656E+01 -0.27266170681E+02  0.30725711851E+02  0.51100000000E-03 0. -1.
        -11    1    3    3    0    0  0.74344835290E+01 -0.41537745554E+01 -0.77752694120E+01  0.11531704258E+02  0.51100000000E-03 0.  1.
        -12    1    3    3    0    0 -0.22946407701E+01  0.29621162668E+01 -0.40669133723E+01  0.55298547376E+01  0.00000000000E+00 0.  1.
</event>
<event>
 7    1  0.2505412E-009  0.4778727E+02  0.7816164E-02  0.1312668E+00
        -11   -1    0    0    0    0  0.00000000000E+00  0.00000000000E+00  0.45593999997E+02  0.45594000000E+02  0.51100000000E-03 0. -1.
         11   -1    0    0    0    0 -0.00000000000E+00 -0.00000000000E+00 -0.45593999997E+02  0.45594000000E+02  0.51100000000E-03 0.  1.
    9900012    2    1    2    0    0 -0.20572494353E+02  0.37064477405E+02  0.93070029502E+01  0.47787270592E+02  0.19999997936E+02 0.  0.
        -12    1    1    2    0    0  0.20572494353E+02 -0.37064477405E+02 -0.93070029502E+01  0.43400729408E+02  0.00000000000E+00 0.  1.
         11    1    3    3    0    0 -0.36585595480E+01  0.75942449534E+01  0.10134841249E+02  0.13182284392E+02  0.51100000000E-03 0. -1.
        -11    1    3    3    0    0 -0.88045542740E+01  0.97338046599E+01 -0.17858596768E+01  0.13245996534E+02  0.51100000000E-03 0.  1.
        -12    1    3    3    0    0 -0.81093805315E+01  0.19736427792E+02  0.95802137754E+00  0.21358989666E+02  0.00000000000E+00 0.  1.
</event>
<event>
 7    1  0.2505412E-009  0.4778727E+02  0.7816164E-02  0.1312668E+00
        -11   -1    0    0    0    0  0.00000000000E+00  0.00000000000E+00  0.45593999997E+02  0.45594000000E+02  0.51100000000E-03 0.  1.
         11   -1    0    0    0    0 -0.00000000000E+00 -0.00000000000E+00 -0.45593999997E+02  0.45594000000E+02  0.51100000000E-03 0. -1.
    9900012    2    1    2    0    0  0.24197785737E+01  0.31310683603E+02 -0.29956788668E+02  0.47787269322E+02  0.19999992148E+02 0.  0.
        -12    1    1    2    0    0 -0.24197785737E+01 -0.31310683603E+02  0.29956788668E+02  0.43400730678E+02  0.00000000000E+00 0.  1.
         11    1    3    3    0    0  0.74523466166E+01  0.11065488981E+02 -0.98442034571E+01  0.16579832884E+02  0.51100000000E-03 0. -1.
        -11    1    3    3    0    0 -0.25208566748E+01 -0.78250684242E+00 -0.28627720237E+01  0.38939053987E+01  0.51100000000E-03 0.  1.
        -12    1    3    3    0    0 -0.25117113680E+01  0.21027701465E+02 -0.17249813187E+02  0.27313531040E+02  0.00000000000E+00 0.  1.
</event>
<event>
 7    1  0.2505412E-009  0.4778727E+02  0.7816164E-02  0.1312668E+00
        -11   -1    0    0    0    0  0.00000000000E+00  0.00000000000E+00  0.45593999997E+02  0.45594000000E+02  0.51100000000E-03 0. -1.
         11   -1    0    0    0    0 -0.00000000000E+00 -0.00000000000E+00 -0.45593999997E+02  0.45594000000E+02  0.51100000000E-03 0.  1.
    9900012    2    1    2    0    0 -0.37247507572E+02 -0.16950031213E+02  0.14454853220E+02  0.47787272356E+02  0.20000005980E+02 0.  0.
        -12    1    1    2    0    0  0.37247507572E+02  0.16950031213E+02 -0.14454853220E+02  0.43400727644E+02  0.00000000000E+00 0.  1.
         11    1    3    3    0    0 -0.88533236757E+01 -0.11534769632E+01  0.47623954628E+01  0.10118906068E+02  0.51100000000E-03 0. -1.
        -11    1    3    3    0    0 -0.41472306842E+01 -0.10874789095E+02  0.36828385280E+01  0.12207532924E+02  0.51100000000E-03 0.  1.
        -12    1    3    3    0    0 -0.24246953212E+02 -0.49217651545E+01  0.60096192291E+01  0.25460833364E+02  0.00000000000E+00 0.  1.
</event>
<event>
 7    1  0.2505412E-009  0.4778727E+02  0.7816164E-02  0.1312668E+00
        -11   -1    0    0    0    0  0.00000000000E+00  0.00000000000E+00  0.45593999997E+02  0.45594000000E+02  0.51100000000E-03 0. -1.
         11   -1    0    0    0    0 -0.00000000000E+00 -0.00000000000E+00 -0.45593999997E+02  0.45594000000E+02  0.51100000000E-03 0.  1.
    9900012    2    1    2    0    0 -0.76379392604E+01  0.23057300924E+02  0.35967291946E+02  0.47787270375E+02  0.19999996949E+02 0.  0.
        -12    1    1    2    0    0  0.76379392604E+01 -0.23057300924E+02 -0.35967291946E+02  0.43400729625E+02  0.00000000000E+00 0.  1.
         11    1    3    3    0    0 -0.11735074710E+01  0.81753843754E+00  0.75052241891E-01  0.14321738656E+01  0.51100000000E-03 0. -1.
        -11    1    3    3    0    0 -0.45987287099E+01  0.18642312789E+02  0.13192556288E+02  0.23296516339E+02  0.51100000000E-03 0.  1.
         12    1    3    3    0    0 -0.18657030795E+01  0.35974496973E+01  0.22699683415E+02  0.23058580170E+02  0.00000000000E+00 0. -1.
</event>
<event>
 7    1  0.2505412E-009  0.4778729E+02  0.7816164E-02  0.1312668E+00
        -11   -1    0    0    0    0  0.00000000000E+00  0.00000000000E+00  0.45593999997E+02  0.45594000000E+02  0.51100000000E-03 0. -1.
         11   -1    0    0    0    0 -0.00000000000E+00 -0.00000000000E+00 -0.45593999997E+02  0.45594000000E+02  0.51100000000E-03 0.  1.
    9900012    2    1    2    0    0  0.31275310235E+02  0.29644194007E+02  0.51670430198E+01  0.47787290303E+02  0.20000087806E+02 0.  0.
        -12    1    1    2    0    0 -0.31275310235E+02 -0.29644194007E+02 -0.51670430198E+01  0.43400709697E+02  0.00000000000E+00 0.  1.
         11    1    3    3    0    0  0.29461648194E+02  0.20435650551E+02  0.39157943145E+01  0.36068517756E+02  0.51100000000E-03 0. -1.
        -11    1    3    3    0    0  0.30113730685E+01  0.98359676791E+01  0.92679935542E+00  0.10328290529E+02  0.51100000000E-03 0.  1.
        -12    1    3    3    0    0 -0.11977110271E+01 -0.62742422329E+00  0.32444934991E+00  0.13904820176E+01  0.00000000000E+00 0.  1.
</event>
<event>
 7    1  0.2505412E-009  0.4778727E+02  0.7816164E-02  0.1312668E+00
        -11   -1    0    0    0    0  0.00000000000E+00  0.00000000000E+00  0.45593999997E+02  0.45594000000E+02  0.51100000000E-03 0.  1.
         11   -1    0    0    0    0 -0.00000000000E+00 -0.00000000000E+00 -0.45593999997E+02  0.45594000000E+02  0.51100000000E-03 0. -1.
    9900012    2    1    2    0    0  0.30318377448E+02  0.21851642892E+02 -0.22066377358E+02  0.47787270538E+02  0.19999997689E+02 0.  0.
        -12    1    1    2    0    0 -0.30318377448E+02 -0.21851642892E+02  0.22066377358E+02  0.43400729462E+02  0.00000000000E+00 0.  1.
         11    1    3    3    0    0  0.16968853739E+02  0.11713659212E+02 -0.84124748188E+01  0.22269295952E+02  0.51100000000E-03 0. -1.
        -11    1    3    3    0    0  0.36579296016E+01  0.91473547130E+01 -0.12179282086E+02  0.15664911733E+02  0.51100000000E-03 0.  1.
         12    1    3    3    0    0  0.96915941078E+01  0.99062896717E+00 -0.14746204528E+01  0.98530628528E+01  0.00000000000E+00 0. -1.
</event>
<event>
 7    1  0.2505412E-009  0.4778728E+02  0.7816164E-02  0.1312668E+00
        -11   -1    0    0    0    0  0.00000000000E+00  0.00000000000E+00  0.45593999997E+02  0.45594000000E+02  0.51100000000E-03 0.  1.
         11   -1    0    0    0    0 -0.00000000000E+00 -0.00000000000E+00 -0.45593999997E+02  0.45594000000E+02  0.51100000000E-03 0. -1.
    9900012    2    1    2    0    0 -0.15660900138E+02 -0.28831174926E+02 -0.28409895544E+02  0.47787278743E+02  0.20000035102E+02 0.  0.
        -12    1    1    2    0    0  0.15660900138E+02  0.28831174926E+02  0.28409895544E+02  0.43400721257E+02  0.00000000000E+00 0.  1.
         11    1    3    3    0    0 -0.21536286084E+01 -0.18884038906E+02 -0.18386454917E+02  0.26444408980E+02  0.51100000000E-03 0. -1.
        -11    1    3    3    0    0 -0.94712557414E+01 -0.10907609729E+02 -0.62685463000E+01  0.15747231766E+02  0.51100000000E-03 0.  1.
        -12    1    3    3    0    0 -0.40360157884E+01  0.96047370928E+00 -0.37548943270E+01  0.55956379973E+01  0.00000000000E+00 0.  1.
</event>
<event>
 7    1  0.2505412E-009  0.4778727E+02  0.7816164E-02  0.1312668E+00
        -11   -1    0    0    0    0  0.00000000000E+00  0.00000000000E+00  0.45593999997E+02  0.45594000000E+02  0.51100000000E-03 0.  1.
         11   -1    0    0    0    0 -0.00000000000E+00 -0.00000000000E+00 -0.45593999997E+02  0.45594000000E+02  0.51100000000E-03 0. -1.
    9900012    2    1    2    0    0  0.13126325743E+02 -0.41325395422E+02  0.18800040047E+01  0.47787272479E+02  0.20000006539E+02 0.  0.
        -12    1    1    2    0    0 -0.13126325743E+02  0.41325395422E+02 -0.18800040047E+01  0.43400727521E+02  0.00000000000E+00 0.  1.
         11    1    3    3    0    0  0.50068319573E+01 -0.90425564741E+01  0.73429028581E+01  0.12678896501E+02  0.51100000000E-03 0. -1.
        -11    1    3    3    0    0  0.82782385545E+00 -0.42424650055E+01 -0.43226253644E+01  0.61130100573E+01  0.51100000000E-03 0.  1.
         12    1    3    3    0    0  0.72916699301E+01 -0.28040373943E+02 -0.11402734890E+01  0.28995365920E+02  0.00000000000E+00 0. -1.
</event>
<event>
 7    1  0.2505412E-009  0.4778727E+02  0.7816164E-02  0.1312668E+00
        -11   -1    0    0    0    0  0.00000000000E+00  0.00000000000E+00  0.45593999997E+02  0.45594000000E+02  0.51100000000E-03 0.  1.
         11   -1    0    0    0    0 -0.00000000000E+00 -0.00000000000E+00 -0.45593999997E+02  0.45594000000E+02  0.51100000000E-03 0. -1.
    9900012    2    1    2    0    0 -0.21241312049E+02  0.32794788361E+02 -0.18892640883E+02  0.47787270044E+02  0.19999995438E+02 0.  0.
        -12    1    1    2    0    0  0.21241312049E+02 -0.32794788361E+02  0.18892640883E+02  0.43400729956E+02  0.00000000000E+00 0.  1.
         11    1    3    3    0    0 -0.59180597487E+01  0.12591075756E+02 -0.13244562366E+02  0.19208775401E+02  0.51100000000E-03 0. -1.
        -11    1    3    3    0    0 -0.10801626245E+02  0.20638066094E+02 -0.58987191771E+01  0.24029144592E+02  0.51100000000E-03 0.  1.
        -12    1    3    3    0    0 -0.45216260553E+01 -0.43435348967E+00  0.25064066041E+00  0.45493500502E+01  0.00000000000E+00 0.  1.
</event>
<event>
 7    1  0.2505412E-009  0.4778729E+02  0.7816164E-02  0.1312668E+00
        -11   -1    0    0    0    0  0.00000000000E+00  0.00000000000E+00  0.45593999997E+02  0.45594000000E+02  0.51100000000E-03 0. -1.
         11   -1    0    0    0    0 -0.00000000000E+00 -0.00000000000E+00 -0.45593999997E+02  0.45594000000E+02  0.51100000000E-03 0.  1.
    9900012    2    1    2    0    0  0.15502448580E+01  0.26051656233E+02  0.34677513971E+02  0.47787285411E+02  0.20000065505E+02 0.  0.
        -12    1    1    2    0    0 -0.15502448580E+01 -0.26051656233E+02 -0.34677513971E+02  0.43400714589E+02  0.00000000000E+00 0.  1.
         11    1    3    3    0    0 -0.34189685548E+01  0.85361543333E+00  0.90465719720E+01  0.97086801365E+01  0.51100000000E-03 0. -1.
        -11    1    3    3    0    0  0.43448216102E+01  0.50626158484E+01  0.18726079158E+01  0.69292290134E+01  0.51100000000E-03 0.  1.
         12    1    3    3    0    0  0.62439180265E+00  0.20135424951E+02  0.23758334083E+02  0.31149376262E+02  0.00000000000E+00 0. -1.
</event>
<event>
 7    1  0.2505412E-009  0.4778727E+02  0.7816164E-02  0.1312668E+00
        -11   -1    0    0    0    0  0.00000000000E+00  0.00000000000E+00  0.45593999997E+02  0.45594000000E+02  0.51100000000E-03 0. -1.
         11   -1    0    0    0    0 -0.00000000000E+00 -0.00000000000E+00 -0.45593999997E+02  0.45594000000E+02  0.51100000000E-03 0.  1.
    9900012    2    1    2    0    0  0.28112379612E+02 -0.18004927587E+02  0.27733376246E+02  0.47787268867E+02  0.19999990073E+02 0.  0.
        -12    1    1    2    0    0 -0.28112379612E+02  0.18004927587E+02 -0.27733376246E+02  0.43400731133E+02  0.00000000000E+00 0.  1.
         11    1    3    3    0    0  0.15314776908E+02 -0.82248076735E+01  0.13434642204E+02  0.21969967329E+02  0.51100000000E-03 0. -1.
        -11    1    3    3    0    0  0.18116701022E+01  0.30110473864E+01 -0.28287697686E+00  0.35254183536E+01  0.51100000000E-03 0.  1.
        -12    1    3    3    0    0  0.10985932602E+02 -0.12791167300E+02  0.14581611019E+02  0.22291883185E+02  0.00000000000E+00 0.  1.
</event>
<event>
 7    1  0.2505412E-009  0.4778728E+02  0.7816164E-02  0.1312668E+00
        -11   -1    0    0    0    0  0.00000000000E+00  0.00000000000E+00  0.45593999997E+02  0.45594000000E+02  0.51100000000E-03 0.  1.
         11   -1    0    0    0    0 -0.00000000000E+00 -0.00000000000E+00 -0.45593999997E+02  0.45594000000E+02  0.51100000000E-03 0. -1.
    9900012    2    1    2    0    0 -0.21557366637E+02 -0.33168044716E+02 -0.17854511539E+02  0.47787276171E+02  0.20000023373E+02 0.  0.
        -12    1    1    2    0    0  0.21557366637E+02  0.33168044716E+02  0.17854511539E+02  0.43400723829E+02  0.00000000000E+00 0.  1.
         11    1    3    3    0    0 -0.94148375221E+01 -0.61851320206E+01 -0.26141638564E+01  0.11564120226E+02  0.51100000000E-03 0. -1.
        -11    1    3    3    0    0 -0.62534849551E+01 -0.25983231232E+02 -0.11013248523E+02  0.28905467003E+02  0.51100000000E-03 0.  1.
        -12    1    3    3    0    0 -0.58890441601E+01 -0.99968146334E+00 -0.42270991591E+01  0.73176889417E+01  0.00000000000E+00 0.  1.
</event>
<event>
 7    1  0.2505412E-009  0.4778727E+02  0.7816164E-02  0.1312668E+00
        -11   -1    0    0    0    0  0.00000000000E+00  0.00000000000E+00  0.45593999997E+02  0.45594000000E+02  0.51100000000E-03 0.  1.
         11   -1    0    0    0    0 -0.00000000000E+00 -0.00000000000E+00 -0.45593999997E+02  0.45594000000E+02  0.51100000000E-03 0. -1.
    9900012    2    1    2    0    0 -0.78544178817E+01  0.41510237732E+02 -0.99414074157E+01  0.47787270764E+02  0.19999998722E+02 0.  0.
        -12    1    1    2    0    0  0.78544178817E+01 -0.41510237732E+02  0.99414074157E+01  0.43400729236E+02  0.00000000000E+00 0.  1.
         11    1    3    3    0    0  0.15290025639E+01  0.12558101953E+01 -0.18165559766E+00  0.19869340966E+01  0.51100000000E-03 0. -1.
        -11    1    3    3    0    0 -0.10061801461E+02  0.93010494588E+01 -0.16966078278E+01  0.13806804412E+02  0.51100000000E-03 0.  1.
         12    1    3    3    0    0  0.67838101535E+00  0.30953378077E+02 -0.80631439903E+01  0.31993532256E+02  0.00000000000E+00 0. -1.
</event>
<event>
 7    1  0.2505412E-009  0.4778727E+02  0.7816164E-02  0.1312668E+00
        -11   -1    0    0    0    0  0.00000000000E+00  0.00000000000E+00  0.45593999997E+02  0.45594000000E+02  0.51100000000E-03 0. -1.
         11   -1    0    0    0    0 -0.00000000000E+00 -0.00000000000E+00 -0.45593999997E+02  0.45594000000E+02  0.51100000000E-03 0.  1.
    9900012    2    1    2    0    0  0.42448269838E+02  0.88680139389E+01  0.17679986183E+01  0.47787273018E+02  0.20000008996E+02 0.  0.
        -12    1    1    2    0    0 -0.42448269838E+02 -0.88680139389E+01 -0.17679986183E+01  0.43400726982E+02  0.00000000000E+00 0.  1.
         11    1    3    3    0    0  0.12610584659E+02  0.97538332407E+01 -0.55062504350E+01  0.16866620955E+02  0.51100000000E-03 0. -1.
        -11    1    3    3    0    0  0.63398603452E+01 -0.73668838050E+00  0.29352320434E+01  0.70251068587E+01  0.51100000000E-03 0.  1.
         12    1    3    3    0    0  0.23497824835E+02 -0.14913092133E+00  0.43390170099E+01  0.23895545204E+02  0.00000000000E+00 0. -1.
</event>
<event>
 7    1  0.2505412E-009  0.4778727E+02  0.7816164E-02  0.1312668E+00
        -11   -1    0    0    0    0  0.00000000000E+00  0.00000000000E+00  0.45593999997E+02  0.45594000000E+02  0.51100000000E-03 0.  1.
         11   -1    0    0    0    0 -0.00000000000E+00 -0.00000000000E+00 -0.45593999997E+02  0.45594000000E+02  0.51100000000E-03 0. -1.
    9900012    2    1    2    0    0 -0.57759281836E+01 -0.12986935423E+02 -0.41007331141E+02  0.47787273677E+02  0.20000012003E+02 0.  0.
        -12    1    1    2    0    0  0.57759281836E+01  0.12986935423E+02  0.41007331141E+02  0.43400726323E+02  0.00000000000E+00 0.  1.
         11    1    3    3    0    0 -0.59365951724E+01 -0.48807257367E+00 -0.23346419950E+02  0.24094329246E+02  0.51100000000E-03 0. -1.
        -11    1    3    3    0    0  0.41815713826E+01 -0.22774845209E+01 -0.62152359181E+01  0.78295359217E+01  0.51100000000E-03 0.  1.
        -12    1    3    3    0    0 -0.40209043938E+01 -0.10221378328E+02 -0.11445675273E+02  0.15863408509E+02  0.00000000000E+00 0.  1.
</event>
<event>
 7    1  0.2505412E-009  0.4778727E+02  0.7816164E-02  0.1312668E+00
        -11   -1    0    0    0    0  0.00000000000E+00  0.00000000000E+00  0.45593999997E+02  0.45594000000E+02  0.51100000000E-03 0.  1.
         11   -1    0    0    0    0 -0.00000000000E+00 -0.00000000000E+00 -0.45593999997E+02  0.45594000000E+02  0.51100000000E-03 0. -1.
    9900012    2    1    2    0    0 -0.42300761559E+02 -0.64237449350E+01  0.72804095808E+01  0.47787270846E+02  0.19999999094E+02 0.  0.
        -12    1    1    2    0    0  0.42300761559E+02  0.64237449350E+01 -0.72804095808E+01  0.43400729154E+02  0.00000000000E+00 0.  1.
         11    1    3    3    0    0 -0.17048665229E+02 -0.38923435309E+01  0.10637069615E+02  0.20468379871E+02  0.51100000000E-03 0. -1.
        -11    1    3    3    0    0 -0.14099655817E+02 -0.57374578492E+01  0.59295725939E-01  0.15222425331E+02  0.51100000000E-03 0.  1.
         12    1    3    3    0    0 -0.11152440513E+02  0.32060564451E+01 -0.34159557601E+01  0.12096465644E+02  0.00000000000E+00 0. -1.
</event>
<event>
 7    1  0.2505412E-009  0.4778727E+02  0.7816164E-02  0.1312668E+00
        -11   -1    0    0    0    0  0.00000000000E+00  0.00000000000E+00  0.45593999997E+02  0.45594000000E+02  0.51100000000E-03 0.  1.
         11   -1    0    0    0    0 -0.00000000000E+00 -0.00000000000E+00 -0.45593999997E+02  0.45594000000E+02  0.51100000000E-03 0. -1.
    9900012    2    1    2    0    0 -0.31888084238E+02  0.28898894967E+02 -0.56238508362E+01  0.47787265618E+02  0.19999975258E+02 0.  0.
        -12    1    1    2    0    0  0.31888084238E+02 -0.28898894967E+02  0.56238508362E+01  0.43400734382E+02  0.00000000000E+00 0.  1.
         11    1    3    3    0    0 -0.13670736803E+02  0.19545864477E+02  0.10448911814E+01  0.23875126402E+02  0.51100000000E-03 0. -1.
        -11    1    3    3    0    0 -0.12100240241E+01  0.52326208051E+01 -0.24949887400E+01  0.59219462765E+01  0.51100000000E-03 0.  1.
        -12    1    3    3    0    0 -0.17007323410E+02  0.41204096855E+01 -0.41737532777E+01  0.17990192939E+02  0.00000000000E+00 0.  1.
</event>
<event>
 7    1  0.2505412E-009  0.4778727E+02  0.7816164E-02  0.1312668E+00
        -11   -1    0    0    0    0  0.00000000000E+00  0.00000000000E+00  0.45593999997E+02  0.45594000000E+02  0.51100000000E-03 0.  1.
         11   -1    0    0    0    0 -0.00000000000E+00 -0.00000000000E+00 -0.45593999997E+02  0.45594000000E+02  0.51100000000E-03 0. -1.
    9900012    2    1    2    0    0  0.39399225519E+01 -0.53519703074E+01 -0.42888888480E+02  0.47787270387E+02  0.19999997002E+02 0.  0.
        -12    1    1    2    0    0 -0.39399225519E+01  0.53519703074E+01  0.42888888480E+02  0.43400729613E+02  0.00000000000E+00 0.  1.
         11    1    3    3    0    0  0.56697134229E+01 -0.10825392663E+02 -0.33488796639E+02  0.35648762632E+02  0.51100000000E-03 0. -1.
        -11    1    3    3    0    0 -0.96249244740E-01  0.25199772441E+01 -0.81632823818E+01  0.85439293497E+01  0.51100000000E-03 0.  1.
         12    1    3    3    0    0 -0.16335416263E+01  0.29534451116E+01 -0.12368094597E+01  0.35945784052E+01  0.00000000000E+00 0. -1.
</event>
<event>
 7    1  0.2505412E-009  0.4778728E+02  0.7816164E-02  0.1312668E+00
        -11   -1    0    0    0    0  0.00000000000E+00  0.00000000000E+00  0.45593999997E+02  0.45594000000E+02  0.51100000000E-03 0. -1.
         11   -1    0    0    0    0 -0.00000000000E+00 -0.00000000000E+00 -0.45593999997E+02  0.45594000000E+02  0.51100000000E-03 0.  1.
    9900012    2    1    2    0    0 -0.37851395135E+02 -0.15909408198E+02 -0.14063619518E+02  0.47787276771E+02  0.20000026109E+02 0.  0.
        -12    1    1    2    0    0  0.37851395135E+02  0.15909408198E+02  0.14063619518E+02  0.43400723229E+02  0.00000000000E+00 0.  1.
         11    1    3    3    0    0 -0.16293776695E+02 -0.95127790778E+01 -0.45648716394E+00  0.18872956991E+02  0.51100000000E-03 0. -1.
        -11    1    3    3    0    0 -0.26908205265E+01  0.28801755505E+01 -0.13462024304E+00  0.39438622159E+01  0.51100000000E-03 0.  1.
         12    1    3    3    0    0 -0.18866797913E+02 -0.92768046704E+01 -0.13472512111E+02  0.24970457564E+02  0.00000000000E+00 0. -1.
</event>
<event>
 7    1  0.4539776E-009  0.4778726E+02  0.7816164E-02  0.1312668E+00
        -11   -1    0    0    0    0  0.00000000000E+00  0.00000000000E+00  0.45593999997E+02  0.45594000000E+02  0.51100000000E-03 0.  1.
         11   -1    0    0    0    0 -0.00000000000E+00 -0.00000000000E+00 -0.45593999997E+02  0.45594000000E+02  0.51100000000E-03 0. -1.
    9900012    2    1    2    0    0  0.34429004589E+02 -0.25117298666E+02  0.82090779020E+01  0.47787262572E+02  0.19999961370E+02 0.  0.
        -12    1    1    2    0    0 -0.34429004589E+02  0.25117298666E+02 -0.82090779020E+01  0.43400737428E+02  0.00000000000E+00 0.  1.
         11    1    3    3    0    0  0.21845474922E+02 -0.15090932377E+02  0.56420758747E+01  0.27143950247E+02  0.51100000000E-03 0. -1.
        -11    1    3    3    0    0  0.73972503944E+01 -0.79253605795E+01 -0.44063618415E+01  0.11702421914E+02  0.51100000000E-03 0.  1.
        -12    1    3    3    0    0  0.51862792730E+01 -0.21010057094E+01  0.69733638689E+01  0.89408904107E+01  0.00000000000E+00 0.  1.
</event>
<event>
 7    1  0.2505412E-009  0.4778726E+02  0.7816164E-02  0.1312668E+00
        -11   -1    0    0    0    0  0.00000000000E+00  0.00000000000E+00  0.45593999997E+02  0.45594000000E+02  0.51100000000E-03 0.  1.
         11   -1    0    0    0    0 -0.00000000000E+00 -0.00000000000E+00 -0.45593999997E+02  0.45594000000E+02  0.51100000000E-03 0. -1.
    9900012    2    1    2    0    0  0.10984774394E+02 -0.72832390403E+01 -0.41351095209E+02  0.47787263665E+02  0.19999966355E+02 0.  0.
        -12    1    1    2    0    0 -0.10984774394E+02  0.72832390403E+01  0.41351095209E+02  0.43400736335E+02  0.00000000000E+00 0.  1.
         11    1    3    3    0    0  0.55177800197E+01 -0.32387030199E+01 -0.26330319983E+02  0.27096509817E+02  0.51100000000E-03 0. -1.
        -11    1    3    3    0    0  0.49289754620E+01 -0.84470079088E+01 -0.10761639788E+02  0.14541651657E+02  0.51100000000E-03 0.  1.
        -12    1    3    3    0    0  0.53801891185E+00  0.44024718884E+01 -0.42591354389E+01  0.61491021918E+01  0.00000000000E+00 0.  1.
</event>
<event>
 7    1  0.2505412E-009  0.4778727E+02  0.7816164E-02  0.1312668E+00
        -11   -1    0    0    0    0  0.00000000000E+00  0.00000000000E+00  0.45593999997E+02  0.45594000000E+02  0.51100000000E-03 0.  1.
         11   -1    0    0    0    0 -0.00000000000E+00 -0.00000000000E+00 -0.45593999997E+02  0.45594000000E+02  0.51100000000E-03 0. -1.
    9900012    2    1    2    0    0 -0.65349634633E+01  0.39527154706E+02  0.16688970865E+02  0.47787268956E+02  0.19999990477E+02 0.  0.
        -12    1    1    2    0    0  0.65349634633E+01 -0.39527154706E+02 -0.16688970865E+02  0.43400731044E+02  0.00000000000E+00 0.  1.
         11    1    3    3    0    0 -0.20075970220E+01  0.46418902361E+01  0.10960397942E+01  0.51748327759E+01  0.51100000000E-03 0. -1.
        -11    1    3    3    0    0 -0.22849252187E+01 -0.13562087166E+01 -0.79688611275E+00  0.27740247071E+01  0.51100000000E-03 0.  1.
         12    1    3    3    0    0 -0.22424412227E+01  0.36241473187E+02  0.16389817184E+02  0.39838411473E+02  0.00000000000E+00 0. -1.
</event>
<event>
 7    1  0.2505412E-009  0.4778727E+02  0.7816164E-02  0.1312668E+00
        -11   -1    0    0    0    0  0.00000000000E+00  0.00000000000E+00  0.45593999997E+02  0.45594000000E+02  0.51100000000E-03 0.  1.
         11   -1    0    0    0    0 -0.00000000000E+00 -0.00000000000E+00 -0.45593999997E+02  0.45594000000E+02  0.51100000000E-03 0. -1.
    9900012    2    1    2    0    0 -0.55103218060E+01 -0.42808617082E+02 -0.45477492978E+01  0.47787269977E+02  0.19999995131E+02 0.  0.
        -12    1    1    2    0    0  0.55103218060E+01  0.42808617082E+02  0.45477492978E+01  0.43400730023E+02  0.00000000000E+00 0.  1.
         11    1    3    3    0    0 -0.84328254935E+01 -0.24746918066E+02 -0.78522274504E+00  0.26156052351E+02  0.51100000000E-03 0. -1.
        -11    1    3    3    0    0  0.24623637593E+01 -0.16644785812E+02 -0.68783496141E+01  0.18177563744E+02  0.51100000000E-03 0.  1.
        -12    1    3    3    0    0  0.46013992824E+00 -0.14169132046E+01  0.31158230613E+01  0.34536538814E+01  0.00000000000E+00 0.  1.
</event>
<event>
 7    1  0.2505412E-009  0.4778727E+02  0.7816164E-02  0.1312668E+00
        -11   -1    0    0    0    0  0.00000000000E+00  0.00000000000E+00  0.45593999997E+02  0.45594000000E+02  0.51100000000E-03 0.  1.
         11   -1    0    0    0    0 -0.00000000000E+00 -0.00000000000E+00 -0.45593999997E+02  0.45594000000E+02  0.51100000000E-03 0. -1.
    9900012    2    1    2    0    0  0.46521409309E+01  0.37552809229E+02 -0.21254825539E+02  0.47787268382E+02  0.19999987863E+02 0.  0.
        -12    1    1    2    0    0 -0.46521409309E+01 -0.37552809229E+02  0.21254825539E+02  0.43400731618E+02  0.00000000000E+00 0.  1.
         11    1    3    3    0    0  0.34657887717E+01  0.20454100367E+02 -0.13767481841E+02  0.24898302555E+02  0.51100000000E-03 0. -1.
        -11    1    3    3    0    0  0.35775699003E+01  0.10757074638E+01 -0.53831491550E+01  0.65524383267E+01  0.51100000000E-03 0.  1.
         12    1    3    3    0    0 -0.23912177411E+01  0.16023001398E+02 -0.21041945436E+01  0.16336527500E+02  0.00000000000E+00 0. -1.
</event>
<event>
 7    1  0.2505412E-009  0.4778727E+02  0.7816164E-02  0.1312668E+00
        -11   -1    0    0    0    0  0.00000000000E+00  0.00000000000E+00  0.45593999997E+02  0.45594000000E+02  0.51100000000E-03 0. -1.
         11   -1    0    0    0    0 -0.00000000000E+00 -0.00000000000E+00 -0.45593999997E+02  0.45594000000E+02  0.51100000000E-03 0.  1.
    9900012    2    1    2    0    0 -0.24029092087E+02 -0.31014738232E+02  0.18555640367E+02  0.47787273698E+02  0.20000012098E+02 0.  0.
        -12    1    1    2    0    0  0.24029092087E+02  0.31014738232E+02 -0.18555640367E+02  0.43400726302E+02  0.00000000000E+00 0.  1.
         11    1    3    3    0    0 -0.16835112701E+01 -0.10136113509E+02  0.36278871269E+01  0.10896631247E+02  0.51100000000E-03 0. -1.
        -11    1    3    3    0    0 -0.21653004012E+01 -0.17902268339E+01 -0.27769356883E+01  0.39502923971E+01  0.51100000000E-03 0.  1.
         12    1    3    3    0    0 -0.20180280415E+02 -0.19088397889E+02  0.17704688929E+02  0.32940350054E+02  0.00000000000E+00 0. -1.
</event>
<event>
 7    1  0.2505412E-009  0.4778727E+02  0.7816164E-02  0.1312668E+00
        -11   -1    0    0    0    0  0.00000000000E+00  0.00000000000E+00  0.45593999997E+02  0.45594000000E+02  0.51100000000E-03 0. -1.
         11   -1    0    0    0    0 -0.00000000000E+00 -0.00000000000E+00 -0.45593999997E+02  0.45594000000E+02  0.51100000000E-03 0.  1.
    9900012    2    1    2    0    0 -0.38416770772E+02 -0.18028980148E+02  0.90956647884E+01  0.47787268213E+02  0.19999987089E+02 0.  0.
        -12    1    1    2    0    0  0.38416770772E+02  0.18028980148E+02 -0.90956647884E+01  0.43400731787E+02  0.00000000000E+00 0.  1.
         11    1    3    3    0    0 -0.10011645785E+02 -0.50572721896E+01 -0.20297078787E+01  0.11398630078E+02  0.51100000000E-03 0. -1.
        -11    1    3    3    0    0 -0.32360196651E+01 -0.69260543688E+01  0.66236773022E+01  0.10115095336E+02  0.51100000000E-03 0.  1.
         12    1    3    3    0    0 -0.25169105322E+02 -0.60456535892E+01  0.45016953650E+01  0.26273542798E+02  0.00000000000E+00 0. -1.
</event>
<event>
 7    1  0.2505412E-009  0.4778727E+02  0.7816164E-02  0.1312668E+00
        -11   -1    0    0    0    0  0.00000000000E+00  0.00000000000E+00  0.45593999997E+02  0.45594000000E+02  0.51100000000E-03 0.  1.
         11   -1    0    0    0    0 -0.00000000000E+00 -0.00000000000E+00 -0.45593999997E+02  0.45594000000E+02  0.51100000000E-03 0. -1.
    9900012    2    1    2    0    0 -0.16375169011E+02  0.37600986175E+02 -0.14200107854E+02  0.47787269769E+02  0.19999994187E+02 0.  0.
        -12    1    1    2    0    0  0.16375169011E+02 -0.37600986175E+02  0.14200107854E+02  0.43400730231E+02  0.00000000000E+00 0.  1.
         11    1    3    3    0    0 -0.85646997748E+01  0.18081627629E+02 -0.11987476632E+02  0.23323784775E+02  0.51100000000E-03 0. -1.
        -11    1    3    3    0    0 -0.82107939579E+00 -0.17183337584E+01 -0.78448331184E+00  0.20596739080E+01  0.51100000000E-03 0.  1.
         12    1    3    3    0    0 -0.69893898401E+01  0.21237692305E+02 -0.14281479098E+01  0.22403811087E+02  0.00000000000E+00 0. -1.
</event>
<event>
 7    1  0.2505412E-009  0.4778727E+02  0.7816164E-02  0.1312668E+00
        -11   -1    0    0    0    0  0.00000000000E+00  0.00000000000E+00  0.45593999997E+02  0.45594000000E+02  0.51100000000E-03 0.  1.
         11   -1    0    0    0    0 -0.00000000000E+00 -0.00000000000E+00 -0.45593999997E+02  0.45594000000E+02  0.51100000000E-03 0. -1.
    9900012    2    1    2    0    0  0.13707788923E+02  0.78722536730E+01 -0.40419642511E+02  0.47787270101E+02  0.19999995697E+02 0.  0.
        -12    1    1    2    0    0 -0.13707788923E+02 -0.78722536730E+01  0.40419642511E+02  0.43400729899E+02  0.00000000000E+00 0.  1.
         11    1    3    3    0    0  0.40858982680E+00  0.62709123989E+01 -0.13955290620E+02  0.15304947713E+02  0.51100000000E-03 0. -1.
        -11    1    3    3    0    0  0.23231804957E+01  0.63072969942E+01 -0.11693483040E+02  0.13487650235E+02  0.51100000000E-03 0.  1.
        -12    1    3    3    0    0  0.10976018600E+02 -0.47059557201E+01 -0.14770868852E+02  0.18994672153E+02  0.00000000000E+00 0.  1.
</event>
<event>
 7    1  0.2505412E-009  0.4778727E+02  0.7816164E-02  0.1312668E+00
        -11   -1    0    0    0    0  0.00000000000E+00  0.00000000000E+00  0.45593999997E+02  0.45594000000E+02  0.51100000000E-03 0.  1.
         11   -1    0    0    0    0 -0.00000000000E+00 -0.00000000000E+00 -0.45593999997E+02  0.45594000000E+02  0.51100000000E-03 0. -1.
    9900012    2    1    2    0    0 -0.18396154971E+02  0.16736847229E+02 -0.35567999194E+02  0.47787272592E+02  0.20000007054E+02 0.  0.
        -12    1    1    2    0    0  0.18396154971E+02 -0.16736847229E+02  0.35567999194E+02  0.43400727408E+02  0.00000000000E+00 0.  1.
         11    1    3    3    0    0 -0.13089050786E+02  0.13628635034E+02 -0.25305585295E+02  0.31582203703E+02  0.51100000000E-03 0. -1.
        -11    1    3    3    0    0  0.99154780818E+00  0.21347450887E+01 -0.94987600175E+01  0.97860485274E+01  0.51100000000E-03 0.  1.
         12    1    3    3    0    0 -0.62986519933E+01  0.97346710651E+00 -0.76365388169E+00  0.64190203607E+01  0.00000000000E+00 0. -1.
</event>
<event>
 7    1  0.2505412E-009  0.4778727E+02  0.7816164E-02  0.1312668E+00
        -11   -1    0    0    0    0  0.00000000000E+00  0.00000000000E+00  0.45593999997E+02  0.45594000000E+02  0.51100000000E-03 0.  1.
         11   -1    0    0    0    0 -0.00000000000E+00 -0.00000000000E+00 -0.45593999997E+02  0.45594000000E+02  0.51100000000E-03 0. -1.
    9900012    2    1    2    0    0 -0.27968383474E+02 -0.18520482172E+02 -0.27538786650E+02  0.47787268392E+02  0.19999987905E+02 0.  0.
        -12    1    1    2    0    0  0.27968383474E+02  0.18520482172E+02  0.27538786650E+02  0.43400731608E+02  0.00000000000E+00 0.  1.
         11    1    3    3    0    0 -0.12334261715E+02 -0.91106412625E+01 -0.63503185574E+01  0.16597118494E+02  0.51100000000E-03 0. -1.
        -11    1    3    3    0    0 -0.37520561450E+01  0.25476250616E+01 -0.99367696166E+01  0.10922806848E+02  0.51100000000E-03 0.  1.
         12    1    3    3    0    0 -0.11882065614E+02 -0.11957465971E+02 -0.11251698476E+02  0.20267343050E+02  0.00000000000E+00 0. -1.
</event>
<event>
 7    1  0.2505412E-009  0.4778728E+02  0.7816164E-02  0.1312668E+00
        -11   -1    0    0    0    0  0.00000000000E+00  0.00000000000E+00  0.45593999997E+02  0.45594000000E+02  0.51100000000E-03 0.  1.
         11   -1    0    0    0    0 -0.00000000000E+00 -0.00000000000E+00 -0.45593999997E+02  0.45594000000E+02  0.51100000000E-03 0. -1.
    9900012    2    1    2    0    0  0.20187470542E+02  0.36447043816E+02 -0.12153236043E+02  0.47787284382E+02  0.20000060813E+02 0.  0.
        -12    1    1    2    0    0 -0.20187470542E+02 -0.36447043816E+02  0.12153236043E+02  0.43400715618E+02  0.00000000000E+00 0.  1.
         11    1    3    3    0    0  0.32348503505E+00  0.96546833796E+01 -0.87463636123E+00  0.96996155982E+01  0.51100000000E-03 0. -1.
        -11    1    3    3    0    0  0.14313644400E+02  0.93477039132E+01 -0.10742037971E+01  0.17129328607E+02  0.51100000000E-03 0.  1.
        -12    1    3    3    0    0  0.55503411070E+01  0.17444656523E+02 -0.10204395884E+02  0.20958340177E+02  0.00000000000E+00 0.  1.
</event>
<event>
 7    1  0.2505412E-009  0.4778726E+02  0.7816164E-02  0.1312668E+00
        -11   -1    0    0    0    0  0.00000000000E+00  0.00000000000E+00  0.45593999997E+02  0.45594000000E+02  0.51100000000E-03 0. -1.
         11   -1    0    0    0    0 -0.00000000000E+00 -0.00000000000E+00 -0.45593999997E+02  0.45594000000E+02  0.51100000000E-03 0.  1.
    9900012    2    1    2    0    0 -0.10799644594E+02 -0.12965709308E+01  0.42015599187E+02  0.47787262742E+02  0.19999962144E+02 0.  0.
        -12    1    1    2    0    0  0.10799644594E+02  0.12965709308E+01 -0.42015599187E+02  0.43400737258E+02  0.00000000000E+00 0.  1.
         11    1    3    3    0    0 -0.10411067306E+01 -0.27484998970E+01  0.15847347028E+02  0.16117585520E+02  0.51100000000E-03 0. -1.
        -11    1    3    3    0    0 -0.80991332488E+01 -0.54723480610E+01  0.99043265115E+01  0.13915395668E+02  0.51100000000E-03 0.  1.
        -12    1    3    3    0    0 -0.16594046142E+01  0.69242770272E+01  0.16263925648E+02  0.17754281554E+02  0.00000000000E+00 0.  1.
</event>
<event>
 7    1  0.2505412E-009  0.4778727E+02  0.7816164E-02  0.1312668E+00
        -11   -1    0    0    0    0  0.00000000000E+00  0.00000000000E+00  0.45593999997E+02  0.45594000000E+02  0.51100000000E-03 0.  1.
         11   -1    0    0    0    0 -0.00000000000E+00 -0.00000000000E+00 -0.45593999997E+02  0.45594000000E+02  0.51100000000E-03 0. -1.
    9900012    2    1    2    0    0 -0.17809001489E+02 -0.14800352490E+02 -0.36707114779E+02  0.47787271397E+02  0.20000001608E+02 0.  0.
        -12    1    1    2    0    0  0.17809001489E+02  0.14800352490E+02  0.36707114779E+02  0.43400728603E+02  0.00000000000E+00 0.  1.
         11    1    3    3    0    0  0.17503575981E+01 -0.43961260245E+01 -0.47513951388E+01  0.67056268738E+01  0.51100000000E-03 0. -1.
        -11    1    3    3    0    0 -0.35581392450E+01 -0.73725884857E+01 -0.50129424544E+01  0.95992191442E+01  0.51100000000E-03 0.  1.
        -12    1    3    3    0    0 -0.16001219842E+02 -0.30316379796E+01 -0.26942777186E+02  0.31482425379E+02  0.00000000000E+00 0.  1.
</event>
<event>
 7    1  0.2505412E-009  0.4778727E+02  0.7816164E-02  0.1312668E+00
        -11   -1    0    0    0    0  0.00000000000E+00  0.00000000000E+00  0.45593999997E+02  0.45594000000E+02  0.51100000000E-03 0. -1.
         11   -1    0    0    0    0 -0.00000000000E+00 -0.00000000000E+00 -0.45593999997E+02  0.45594000000E+02  0.51100000000E-03 0.  1.
    9900012    2    1    2    0    0  0.30649403834E+02  0.79163824071E+01  0.29691219299E+02  0.47787267641E+02  0.19999984483E+02 0.  0.
        -12    1    1    2    0    0 -0.30649403834E+02 -0.79163824071E+01 -0.29691219299E+02  0.43400732359E+02  0.00000000000E+00 0.  1.
         11    1    3    3    0    0  0.68518407923E+01  0.20338307033E+00  0.15265991303E+01  0.70227909040E+01  0.51100000000E-03 0. -1.
        -11    1    3    3    0    0  0.23939154396E+02  0.10065618070E+02  0.28292700774E+02  0.38404123446E+02  0.51100000000E-03 0.  1.
        -12    1    3    3    0    0 -0.14159135446E+00 -0.23526187332E+01 -0.12808060506E+00  0.23603532907E+01  0.00000000000E+00 0.  1.
</event>
<event>
 7    1  0.2505412E-009  0.4778727E+02  0.7816164E-02  0.1312668E+00
        -11   -1    0    0    0    0  0.00000000000E+00  0.00000000000E+00  0.45593999997E+02  0.45594000000E+02  0.51100000000E-03 0.  1.
         11   -1    0    0    0    0 -0.00000000000E+00 -0.00000000000E+00 -0.45593999997E+02  0.45594000000E+02  0.51100000000E-03 0. -1.
    9900012    2    1    2    0    0  0.14468506384E+02 -0.29174334816E+02 -0.28690486505E+02  0.47787268384E+02  0.19999987868E+02 0.  0.
        -12    1    1    2    0    0 -0.14468506384E+02  0.29174334816E+02  0.28690486505E+02  0.43400731616E+02  0.00000000000E+00 0.  1.
         11    1    3    3    0    0  0.71207395685E+01 -0.35515081467E+01 -0.10829133248E+02  0.13438313483E+02  0.51100000000E-03 0.  1.
        -11    1    3    3    0    0  0.10313313122E+02 -0.20148095832E+02 -0.11280781551E+02  0.25289646614E+02  0.51100000000E-03 0. -1.
        -12    1    3    3    0    0 -0.29655463064E+01 -0.54747308367E+01 -0.65805717071E+01  0.90593082861E+01  0.00000000000E+00 0.  1.
</event>
<event>
 7    1  0.2505412E-009  0.4778727E+02  0.7816164E-02  0.1312668E+00
        -11   -1    0    0    0    0  0.00000000000E+00  0.00000000000E+00  0.45593999997E+02  0.45594000000E+02  0.51100000000E-03 0.  1.
         11   -1    0    0    0    0 -0.00000000000E+00 -0.00000000000E+00 -0.45593999997E+02  0.45594000000E+02  0.51100000000E-03 0. -1.
    9900012    2    1    2    0    0 -0.38832578999E+02  0.15166197222E+02 -0.12068163037E+02  0.47787270871E+02  0.19999999208E+02 0.  0.
        -12    1    1    2    0    0  0.38832578999E+02 -0.15166197222E+02  0.12068163037E+02  0.43400729129E+02  0.00000000000E+00 0.  1.
         11    1    3    3    0    0 -0.14608631257E+02  0.57620120046E+00 -0.24107755130E+01  0.14817420621E+02  0.51100000000E-03 0.  1.
        -11    1    3    3    0    0 -0.19792856839E+02  0.16926384050E+02 -0.10117070289E+02  0.27939484074E+02  0.51100000000E-03 0. -1.
        -12    1    3    3    0    0 -0.44310909030E+01 -0.23363880286E+01  0.45968276521E+00  0.50303661751E+01  0.00000000000E+00 0.  1.
</event>
<event>
 7    1  0.2505412E-009  0.4778727E+02  0.7816164E-02  0.1312668E+00
        -11   -1    0    0    0    0  0.00000000000E+00  0.00000000000E+00  0.45593999997E+02  0.45594000000E+02  0.51100000000E-03 0.  1.
         11   -1    0    0    0    0 -0.00000000000E+00 -0.00000000000E+00 -0.45593999997E+02  0.45594000000E+02  0.51100000000E-03 0. -1.
    9900012    2    1    2    0    0 -0.30635945091E+01  0.30183121355E+02 -0.31035729513E+02  0.47787274978E+02  0.20000017935E+02 0.  0.
        -12    1    1    2    0    0  0.30635945091E+01 -0.30183121355E+02  0.31035729513E+02  0.43400725022E+02  0.00000000000E+00 0.  1.
         11    1    3    3    0    0 -0.25072300597E+01  0.54074916823E+01  0.13914400377E+01  0.61207249984E+01  0.51100000000E-03 0. -1.
        -11    1    3    3    0    0 -0.42069798534E+01  0.10642067078E+02 -0.12260292548E+02  0.16771018001E+02  0.51100000000E-03 0.  1.
         12    1    3    3    0    0  0.36506154040E+01  0.14133562595E+02 -0.20166877002E+02  0.24895531978E+02  0.00000000000E+00 0. -1.
</event>
<event>
 7    1  0.2505412E-009  0.4778727E+02  0.7816164E-02  0.1312668E+00
        -11   -1    0    0    0    0  0.00000000000E+00  0.00000000000E+00  0.45593999997E+02  0.45594000000E+02  0.51100000000E-03 0. -1.
         11   -1    0    0    0    0 -0.00000000000E+00 -0.00000000000E+00 -0.45593999997E+02  0.45594000000E+02  0.51100000000E-03 0.  1.
    9900012    2    1    2    0    0  0.32544742901E+02  0.14110411157E+02  0.25007184296E+02  0.47787271205E+02  0.20000000732E+02 0.  0.
        -12    1    1    2    0    0 -0.32544742901E+02 -0.14110411157E+02 -0.25007184296E+02  0.43400728795E+02  0.00000000000E+00 0.  1.
         11    1    3    3    0    0  0.12643619656E+02  0.90788749321E+01  0.65549324624E+01  0.16889470918E+02  0.51100000000E-03 0. -1.
        -11    1    3    3    0    0  0.16222436712E+02  0.66277535886E+01  0.20007330578E+02  0.26596763856E+02  0.51100000000E-03 0.  1.
        -12    1    3    3    0    0  0.36786865332E+01 -0.15962173634E+01 -0.15550787443E+01  0.43010364311E+01  0.00000000000E+00 0.  1.
</event>
<event>
 7    1  0.2505412E-009  0.4778727E+02  0.7816164E-02  0.1312668E+00
        -11   -1    0    0    0    0  0.00000000000E+00  0.00000000000E+00  0.45593999997E+02  0.45594000000E+02  0.51100000000E-03 0.  1.
         11   -1    0    0    0    0 -0.00000000000E+00 -0.00000000000E+00 -0.45593999997E+02  0.45594000000E+02  0.51100000000E-03 0. -1.
    9900012    2    1    2    0    0  0.93914344778E+00 -0.30305791328E+02 -0.31053182993E+02  0.47787272444E+02  0.20000006379E+02 0.  0.
        -12    1    1    2    0    0 -0.93914344778E+00  0.30305791328E+02  0.31053182993E+02  0.43400727556E+02  0.00000000000E+00 0.  1.
         11    1    3    3    0    0  0.18780575619E+01 -0.83177783419E+00 -0.15585127644E+00  0.20599137003E+01  0.51100000000E-03 0. -1.
        -11    1    3    3    0    0  0.98051128188E+00  0.13546382554E+01  0.43672670236E+00  0.17283453505E+01  0.51100000000E-03 0.  1.
         12    1    3    3    0    0 -0.19194253960E+01 -0.30828651750E+02 -0.31334058419E+02  0.43999013393E+02  0.00000000000E+00 0. -1.
</event>
<event>
 7    1  0.2505412E-009  0.4778727E+02  0.7816164E-02  0.1312668E+00
        -11   -1    0    0    0    0  0.00000000000E+00  0.00000000000E+00  0.45593999997E+02  0.45594000000E+02  0.51100000000E-03 0. -1.
         11   -1    0    0    0    0 -0.00000000000E+00 -0.00000000000E+00 -0.45593999997E+02  0.45594000000E+02  0.51100000000E-03 0.  1.
    9900012    2    1    2    0    0  0.15883584532E+02 -0.39384588911E+02  0.89548452467E+01  0.47787270113E+02  0.19999995755E+02 0.  0.
        -12    1    1    2    0    0 -0.15883584532E+02  0.39384588911E+02 -0.89548452467E+01  0.43400729887E+02  0.00000000000E+00 0.  1.
         11    1    3    3    0    0  0.17286102405E+02 -0.20218722188E+02  0.13762739345E+01  0.26636444836E+02  0.51100000000E-03 0. -1.
        -11    1    3    3    0    0  0.10163078857E+01 -0.63259090403E+01  0.41808706128E+01  0.76504696750E+01  0.51100000000E-03 0.  1.
         12    1    3    3    0    0 -0.24188257589E+01 -0.12839957683E+02  0.33977006994E+01  0.13500355603E+02  0.00000000000E+00 0. -1.
</event>
<event>
 7    1  0.2505412E-009  0.4778728E+02  0.7816164E-02  0.1312668E+00
        -11   -1    0    0    0    0  0.00000000000E+00  0.00000000000E+00  0.45593999997E+02  0.45594000000E+02  0.51100000000E-03 0. -1.
         11   -1    0    0    0    0 -0.00000000000E+00 -0.00000000000E+00 -0.45593999997E+02  0.45594000000E+02  0.51100000000E-03 0.  1.
    9900012    2    1    2    0    0  0.31219139014E+02  0.14062977680E+02  0.26668718651E+02  0.47787279539E+02  0.20000038730E+02 0.  0.
        -12    1    1    2    0    0 -0.31219139014E+02 -0.14062977680E+02 -0.26668718651E+02  0.43400720461E+02  0.00000000000E+00 0.  1.
         11    1    3    3    0    0  0.52579706764E+01  0.59617710903E+01  0.11443479156E+02  0.13933491508E+02  0.51100000000E-03 0. -1.
        -11    1    3    3    0    0  0.26353011679E+01 -0.13777389489E+01 -0.17847288544E+01  0.34681744769E+01  0.51100000000E-03 0.  1.
         12    1    3    3    0    0  0.23325867170E+02  0.94789455387E+01  0.17009968350E+02  0.30385613554E+02  0.00000000000E+00 0. -1.
</event>
<event>
 7    1  0.2505412E-009  0.4778728E+02  0.7816164E-02  0.1312668E+00
        -11   -1    0    0    0    0  0.00000000000E+00  0.00000000000E+00  0.45593999997E+02  0.45594000000E+02  0.51100000000E-03 0.  1.
         11   -1    0    0    0    0 -0.00000000000E+00 -0.00000000000E+00 -0.45593999997E+02  0.45594000000E+02  0.51100000000E-03 0. -1.
    9900012    2    1    2    0    0  0.44297580161E-01  0.31726901890E+02 -0.29614601182E+02  0.47787275709E+02  0.20000021268E+02 0.  0.
        -12    1    1    2    0    0 -0.44297580161E-01 -0.31726901890E+02  0.29614601182E+02  0.43400724291E+02  0.00000000000E+00 0.  1.
         11    1    3    3    0    0  0.22504656869E+01  0.33226855080E+01 -0.10882443669E+02  0.11598810942E+02  0.51100000000E-03 0.  1.
        -11    1    3    3    0    0  0.11100572482E+01  0.23222941708E+02 -0.19007922622E+02  0.30030623891E+02  0.51100000000E-03 0. -1.
         12    1    3    3    0    0 -0.33162253550E+01  0.51812746739E+01  0.27576510885E+00  0.61578408754E+01  0.00000000000E+00 0. -1.
</event>
<event>
 7    1  0.2505412E-009  0.4778728E+02  0.7816164E-02  0.1312668E+00
        -11   -1    0    0    0    0  0.00000000000E+00  0.00000000000E+00  0.45593999997E+02  0.45594000000E+02  0.51100000000E-03 0. -1.
         11   -1    0    0    0    0 -0.00000000000E+00 -0.00000000000E+00 -0.45593999997E+02  0.45594000000E+02  0.51100000000E-03 0.  1.
    9900012    2    1    2    0    0  0.13566161531E+02 -0.37974017636E+02  0.16048549315E+02  0.47787277780E+02  0.20000030708E+02 0.  0.
        -12    1    1    2    0    0 -0.13566161531E+02  0.37974017636E+02 -0.16048549315E+02  0.43400722220E+02  0.00000000000E+00 0.  1.
         11    1    3    3    0    0  0.94735611355E+01 -0.83347217739E+01  0.23698588976E+01  0.12838698497E+02  0.51100000000E-03 0. -1.
        -11    1    3    3    0    0 -0.31114373414E+01 -0.28444987474E+01  0.54494838492E+00  0.42507863339E+01  0.51100000000E-03 0.  1.
        -12    1    3    3    0    0  0.72040377369E+01 -0.26794797115E+02  0.13133742033E+02  0.30697792949E+02  0.00000000000E+00 0.  1.
</event>
<event>
 7    1  0.2505412E-009  0.4778726E+02  0.7816164E-02  0.1312668E+00
        -11   -1    0    0    0    0  0.00000000000E+00  0.00000000000E+00  0.45593999997E+02  0.45594000000E+02  0.51100000000E-03 0. -1.
         11   -1    0    0    0    0 -0.00000000000E+00 -0.00000000000E+00 -0.45593999997E+02  0.45594000000E+02  0.51100000000E-03 0.  1.
    9900012    2    1    2    0    0 -0.14392852040E+02 -0.35565411192E+02  0.20287218938E+02  0.47787263654E+02  0.19999966304E+02 0.  0.
        -12    1    1    2    0    0  0.14392852040E+02  0.35565411192E+02 -0.20287218938E+02  0.43400736346E+02  0.00000000000E+00 0.  1.
         11    1    3    3    0    0 -0.12477517510E+01 -0.94722260270E+01  0.33893438061E+01  0.10137435674E+02  0.51100000000E-03 0. -1.
        -11    1    3    3    0    0 -0.65031571600E+01 -0.39302681917E+01  0.11676486712E+02  0.13931202507E+02  0.51100000000E-03 0.  1.
         12    1    3    3    0    0 -0.66419431286E+01 -0.22162916974E+02  0.52213884203E+01  0.23718625473E+02  0.00000000000E+00 0. -1.
</event>
<event>
 7    1  0.3148417E-009  0.4778727E+02  0.7816164E-02  0.1312668E+00
        -11   -1    0    0    0    0  0.00000000000E+00  0.00000000000E+00  0.45593999997E+02  0.45594000000E+02  0.51100000000E-03 0.  1.
         11   -1    0    0    0    0 -0.00000000000E+00 -0.00000000000E+00 -0.45593999997E+02  0.45594000000E+02  0.51100000000E-03 0. -1.
    9900012    2    1    2    0    0  0.22846884346E+02 -0.36230439603E+02 -0.69998960180E+01  0.47787269333E+02  0.19999992199E+02 0.  0.
        -12    1    1    2    0    0 -0.22846884346E+02  0.36230439603E+02  0.69998960180E+01  0.43400730667E+02  0.00000000000E+00 0.  1.
         11    1    3    3    0    0  0.50558072618E+01 -0.18120455013E+02  0.10731202123E+01  0.18843133078E+02  0.51100000000E-03 0. -1.
        -11    1    3    3    0    0  0.12150145174E+02 -0.18204044770E+02 -0.79978872669E+01  0.23301919980E+02  0.51100000000E-03 0.  1.
        -12    1    3    3    0    0  0.56409319105E+01  0.94060180795E-01 -0.75128963316E-01  0.56422162754E+01  0.00000000000E+00 0.  1.
</event>
<event>
 7    1  0.2505412E-009  0.4778728E+02  0.7816164E-02  0.1312668E+00
        -11   -1    0    0    0    0  0.00000000000E+00  0.00000000000E+00  0.45593999997E+02  0.45594000000E+02  0.51100000000E-03 0.  1.
         11   -1    0    0    0    0 -0.00000000000E+00 -0.00000000000E+00 -0.45593999997E+02  0.45594000000E+02  0.51100000000E-03 0. -1.
    9900012    2    1    2    0    0  0.10866293604E+02 -0.41840707012E+02 -0.38602769264E+01  0.47787276067E+02  0.20000022898E+02 0.  0.
        -12    1    1    2    0    0 -0.10866293604E+02  0.41840707012E+02  0.38602769264E+01  0.43400723933E+02  0.00000000000E+00 0.  1.
         11    1    3    3    0    0  0.30822717233E+01 -0.80387496947E+01  0.44876673317E+01  0.97088132113E+01  0.51100000000E-03 0.  1.
        -11    1    3    3    0    0  0.11520510416E+02 -0.24938173104E+02 -0.52090515581E+01  0.27960129764E+02  0.51100000000E-03 0. -1.
        -12    1    3    3    0    0 -0.37364885358E+01 -0.88637842134E+01 -0.31388927001E+01  0.10118333091E+02  0.00000000000E+00 0.  1.
</event>
<event>
 7    1  0.2505412E-009  0.4778727E+02  0.7816164E-02  0.1312668E+00
        -11   -1    0    0    0    0  0.00000000000E+00  0.00000000000E+00  0.45593999997E+02  0.45594000000E+02  0.51100000000E-03 0.  1.
         11   -1    0    0    0    0 -0.00000000000E+00 -0.00000000000E+00 -0.45593999997E+02  0.45594000000E+02  0.51100000000E-03 0. -1.
    9900012    2    1    2    0    0 -0.11337951966E+02 -0.17141559850E+02 -0.38226181239E+02  0.47787272345E+02  0.20000005929E+02 0.  0.
        -12    1    1    2    0    0  0.11337951966E+02  0.17141559850E+02  0.38226181239E+02  0.43400727655E+02  0.00000000000E+00 0.  1.
         11    1    3    3    0    0  0.25474071024E+01 -0.79249164898E+01 -0.19119427590E+02  0.20852963721E+02  0.51100000000E-03 0. -1.
        -11    1    3    3    0    0 -0.10153772534E+02 -0.81478273253E+01 -0.19023628760E+02  0.23051781672E+02  0.51100000000E-03 0.  1.
        -12    1    3    3    0    0 -0.37315865340E+01 -0.10688160353E+01 -0.83124888298E-01  0.38825269510E+01  0.00000000000E+00 0.  1.
</event>
<event>
 7    1  0.2505412E-009  0.4778728E+02  0.7816164E-02  0.1312668E+00
        -11   -1    0    0    0    0  0.00000000000E+00  0.00000000000E+00  0.45593999997E+02  0.45594000000E+02  0.51100000000E-03 0. -1.
         11   -1    0    0    0    0 -0.00000000000E+00 -0.00000000000E+00 -0.45593999997E+02  0.45594000000E+02  0.51100000000E-03 0.  1.
    9900012    2    1    2    0    0 -0.31016775619E+02  0.22939368028E+02  0.19883858264E+02  0.47787276564E+02  0.20000025165E+02 0.  0.
        -12    1    1    2    0    0  0.31016775619E+02 -0.22939368028E+02 -0.19883858264E+02  0.43400723436E+02  0.00000000000E+00 0.  1.
         11    1    3    3    0    0 -0.22496163625E+02  0.16255055133E+02  0.12656306687E+02  0.30503873434E+02  0.51100000000E-03 0. -1.
        -11    1    3    3    0    0 -0.52526273033E+01  0.29609242974E+01  0.99470851710E+01  0.11631924602E+02  0.51100000000E-03 0.  1.
         12    1    3    3    0    0 -0.32679846902E+01  0.37233885980E+01 -0.27195335942E+01  0.56514785284E+01  0.00000000000E+00 0. -1.
</event>
<event>
 7    1  0.2505412E-009  0.4778724E+02  0.7816164E-02  0.1312668E+00
        -11   -1    0    0    0    0  0.00000000000E+00  0.00000000000E+00  0.45593999997E+02  0.45594000000E+02  0.51100000000E-03 0. -1.
         11   -1    0    0    0    0 -0.00000000000E+00 -0.00000000000E+00 -0.45593999997E+02  0.45594000000E+02  0.51100000000E-03 0.  1.
    9900012    2    1    2    0    0  0.56322491309E+01 -0.13501336669E+02  0.40860951796E+02  0.47787243051E+02  0.19999872364E+02 0.  0.
        -12    1    1    2    0    0 -0.56322491309E+01  0.13501336669E+02 -0.40860951796E+02  0.43400756949E+02  0.00000000000E+00 0.  1.
         11    1    3    3    0    0  0.45303196990E+01 -0.27031243597E+01  0.32508297289E+00  0.52854855103E+01  0.51100000000E-03 0.  1.
        -11    1    3    3    0    0 -0.18597268818E+01 -0.14169139072E+01  0.14144996182E+02  0.14336915510E+02  0.51100000000E-03 0. -1.
        -12    1    3    3    0    0  0.29616563137E+01 -0.93812984017E+01  0.26390872641E+02  0.28164842030E+02  0.00000000000E+00 0.  1.
</event>
<event>
 7    1  0.2505412E-009  0.4778727E+02  0.7816164E-02  0.1312668E+00
        -11   -1    0    0    0    0  0.00000000000E+00  0.00000000000E+00  0.45593999997E+02  0.45594000000E+02  0.51100000000E-03 0. -1.
         11   -1    0    0    0    0 -0.00000000000E+00 -0.00000000000E+00 -0.45593999997E+02  0.45594000000E+02  0.51100000000E-03 0.  1.
    9900012    2    1    2    0    0  0.12388901484E+02 -0.17661063498E+02  0.37659329701E+02  0.47787272386E+02  0.20000006118E+02 0.  0.
        -12    1    1    2    0    0 -0.12388901484E+02  0.17661063498E+02 -0.37659329701E+02  0.43400727614E+02  0.00000000000E+00 0.  1.
         11    1    3    3    0    0  0.41195073316E+01 -0.22375135864E+01  0.33752510730E+01  0.57766017494E+01  0.51100000000E-03 0. -1.
        -11    1    3    3    0    0  0.19248643098E+01  0.31909673050E+01  0.20558519792E+01  0.42560430654E+01  0.51100000000E-03 0.  1.
         12    1    3    3    0    0  0.63445298429E+01 -0.18614517216E+02  0.32228226649E+02  0.37754627571E+02  0.00000000000E+00 0. -1.
</event>
<event>
 7    1  0.2505412E-009  0.4778727E+02  0.7816164E-02  0.1312668E+00
        -11   -1    0    0    0    0  0.00000000000E+00  0.00000000000E+00  0.45593999997E+02  0.45594000000E+02  0.51100000000E-03 0. -1.
         11   -1    0    0    0    0 -0.00000000000E+00 -0.00000000000E+00 -0.45593999997E+02  0.45594000000E+02  0.51100000000E-03 0.  1.
    9900012    2    1    2    0    0 -0.18232156787E+02 -0.35290944073E+02  0.17486021878E+02  0.47787271483E+02  0.20000002001E+02 0.  0.
        -12    1    1    2    0    0  0.18232156787E+02  0.35290944073E+02 -0.17486021878E+02  0.43400728517E+02  0.00000000000E+00 0.  1.
         11    1    3    3    0    0 -0.11878660950E+02 -0.13365897802E+02  0.36503517980E+01  0.18250339134E+02  0.51100000000E-03 0. -1.
        -11    1    3    3    0    0 -0.66763381419E+01 -0.20313702563E+02  0.69891717522E+01  0.22495966857E+02  0.51100000000E-03 0.  1.
        -12    1    3    3    0    0  0.32284230503E+00 -0.16113437082E+01  0.68464983282E+01  0.70409654919E+01  0.00000000000E+00 0.  1.
</event>
<event>
 7    1  0.2505412E-009  0.4778727E+02  0.7816164E-02  0.1312668E+00
        -11   -1    0    0    0    0  0.00000000000E+00  0.00000000000E+00  0.45593999997E+02  0.45594000000E+02  0.51100000000E-03 0.  1.
         11   -1    0    0    0    0 -0.00000000000E+00 -0.00000000000E+00 -0.45593999997E+02  0.45594000000E+02  0.51100000000E-03 0. -1.
    9900012    2    1    2    0    0  0.37997907810E+02  0.15643578143E+02  0.13966411755E+02  0.47787271983E+02  0.20000004280E+02 0.  0.
        -12    1    1    2    0    0 -0.37997907810E+02 -0.15643578143E+02 -0.13966411755E+02  0.43400728017E+02  0.00000000000E+00 0.  1.
         11    1    3    3    0    0  0.12408385972E+02  0.23282345490E+01 -0.36182967772E+01  0.13133194219E+02  0.51100000000E-03 0. -1.
        -11    1    3    3    0    0  0.12768364602E+02  0.35588606539E+01  0.11092097853E+02  0.17283843866E+02  0.51100000000E-03 0.  1.
        -12    1    3    3    0    0  0.12821157236E+02  0.97564829404E+01  0.64926106791E+01  0.17370233898E+02  0.00000000000E+00 0.  1.
</event>
<event>
 7    1  0.2505412E-009  0.4778727E+02  0.7816164E-02  0.1312668E+00
        -11   -1    0    0    0    0  0.00000000000E+00  0.00000000000E+00  0.45593999997E+02  0.45594000000E+02  0.51100000000E-03 0. -1.
         11   -1    0    0    0    0 -0.00000000000E+00 -0.00000000000E+00 -0.45593999997E+02  0.45594000000E+02  0.51100000000E-03 0.  1.
    9900012    2    1    2    0    0  0.25270949372E+02  0.12626132988E+02  0.32948188898E+02  0.47787271112E+02  0.20000000307E+02 0.  0.
        -12    1    1    2    0    0 -0.25270949372E+02 -0.12626132988E+02 -0.32948188898E+02  0.43400728888E+02  0.00000000000E+00 0.  1.
         11    1    3    3    0    0  0.17702676373E+02  0.69667723892E+01  0.15277204362E+02  0.24399050016E+02  0.51100000000E-03 0. -1.
        -11    1    3    3    0    0  0.40981133858E+01  0.92766472181E+01  0.13384433346E+02  0.16792670222E+02  0.51100000000E-03 0.  1.
         12    1    3    3    0    0  0.34701596125E+01 -0.36172866196E+01  0.42865511901E+01  0.65955508739E+01  0.00000000000E+00 0. -1.
</event>
<event>
 7    1  0.2620540E-009  0.4778727E+02  0.7816164E-02  0.1312668E+00
        -11   -1    0    0    0    0  0.00000000000E+00  0.00000000000E+00  0.45593999997E+02  0.45594000000E+02  0.51100000000E-03 0. -1.
         11   -1    0    0    0    0 -0.00000000000E+00 -0.00000000000E+00 -0.45593999997E+02  0.45594000000E+02  0.51100000000E-03 0.  1.
    9900012    2    1    2    0    0  0.15011812863E+02 -0.38689774550E+02  0.12703165738E+02  0.47787267288E+02  0.19999982874E+02 0.  0.
        -12    1    1    2    0    0 -0.15011812863E+02  0.38689774550E+02 -0.12703165738E+02  0.43400732712E+02  0.00000000000E+00 0.  1.
         11    1    3    3    0    0  0.86153831528E+01 -0.27258325446E+02  0.70016986434E+01  0.29432378720E+02  0.51100000000E-03 0.  1.
        -11    1    3    3    0    0 -0.29849992649E+01 -0.57501497892E+01  0.20468090125E+01  0.67943999444E+01  0.51100000000E-03 0. -1.
        -12    1    3    3    0    0  0.93814289752E+01 -0.56812993151E+01  0.36546580819E+01  0.11560488624E+02  0.00000000000E+00 0.  1.
</event>
<event>
 7    1  0.2505412E-009  0.4778727E+02  0.7816164E-02  0.1312668E+00
        -11   -1    0    0    0    0  0.00000000000E+00  0.00000000000E+00  0.45593999997E+02  0.45594000000E+02  0.51100000000E-03 0.  1.
         11   -1    0    0    0    0 -0.00000000000E+00 -0.00000000000E+00 -0.45593999997E+02  0.45594000000E+02  0.51100000000E-03 0. -1.
    9900012    2    1    2    0    0 -0.35410203475E+02  0.75750198937E+01 -0.23924043011E+02  0.47787271083E+02  0.20000000176E+02 0.  0.
        -12    1    1    2    0    0  0.35410203475E+02 -0.75750198937E+01  0.23924043011E+02  0.43400728917E+02  0.00000000000E+00 0.  1.
         11    1    3    3    0    0 -0.23356142359E+02  0.93706528615E+01 -0.15257081397E+02  0.29429526907E+02  0.51100000000E-03 0. -1.
        -11    1    3    3    0    0 -0.24713872638E+01  0.73320854128E+00 -0.80220265223E+01  0.84260464964E+01  0.51100000000E-03 0.  1.
         12    1    3    3    0    0 -0.95826738521E+01 -0.25288415091E+01 -0.64493509182E+00  0.99316976799E+01  0.00000000000E+00 0. -1.
</event>
<event>
 7    1  0.2505412E-009  0.4778727E+02  0.7816164E-02  0.1312668E+00
        -11   -1    0    0    0    0  0.00000000000E+00  0.00000000000E+00  0.45593999997E+02  0.45594000000E+02  0.51100000000E-03 0.  1.
         11   -1    0    0    0    0 -0.00000000000E+00 -0.00000000000E+00 -0.45593999997E+02  0.45594000000E+02  0.51100000000E-03 0. -1.
    9900012    2    1    2    0    0  0.14460665620E+02  0.23367837430E+02 -0.33592511257E+02  0.47787268567E+02  0.19999988704E+02 0.  0.
        -12    1    1    2    0    0 -0.14460665620E+02 -0.23367837430E+02  0.33592511257E+02  0.43400731433E+02  0.00000000000E+00 0.  1.
         11    1    3    3    0    0  0.78679299862E+01  0.15662578505E+01 -0.94428360747E+01  0.12390506015E+02  0.51100000000E-03 0. -1.
        -11    1    3    3    0    0  0.71954701057E+01  0.15335549774E+02 -0.96172824713E+01  0.19479373689E+02  0.51100000000E-03 0.  1.
        -12    1    3    3    0    0 -0.60273447151E+00  0.64660298059E+01 -0.14532392711E+02  0.15917388863E+02  0.00000000000E+00 0.  1.
</event>
<event>
 7    1  0.2505412E-009  0.4778727E+02  0.7816164E-02  0.1312668E+00
        -11   -1    0    0    0    0  0.00000000000E+00  0.00000000000E+00  0.45593999997E+02  0.45594000000E+02  0.51100000000E-03 0.  1.
         11   -1    0    0    0    0 -0.00000000000E+00 -0.00000000000E+00 -0.45593999997E+02  0.45594000000E+02  0.51100000000E-03 0. -1.
    9900012    2    1    2    0    0  0.22376046802E+02 -0.24624307327E+02 -0.27867169637E+02  0.47787272755E+02  0.20000007801E+02 0.  0.
        -12    1    1    2    0    0 -0.22376046802E+02  0.24624307327E+02  0.27867169637E+02  0.43400727245E+02  0.00000000000E+00 0.  1.
         11    1    3    3    0    0  0.19895759623E+01 -0.27280965331E+01 -0.85619312287E+01  0.92036726273E+01  0.51100000000E-03 0. -1.
        -11    1    3    3    0    0  0.16771071292E+02 -0.73793271982E+01 -0.89713753959E+01  0.20401197978E+02  0.51100000000E-03 0.  1.
        -12    1    3    3    0    0  0.36153995482E+01 -0.14516883595E+02 -0.10333863012E+02  0.18182402150E+02  0.00000000000E+00 0.  1.
</event>
<event>
 7    1  0.2505412E-009  0.4778727E+02  0.7816164E-02  0.1312668E+00
        -11   -1    0    0    0    0  0.00000000000E+00  0.00000000000E+00  0.45593999997E+02  0.45594000000E+02  0.51100000000E-03 0. -1.
         11   -1    0    0    0    0 -0.00000000000E+00 -0.00000000000E+00 -0.45593999997E+02  0.45594000000E+02  0.51100000000E-03 0.  1.
    9900012    2    1    2    0    0  0.39466603500E+02 -0.14445884095E+02  0.10831766201E+02  0.47787268231E+02  0.19999987171E+02 0.  0.
        -12    1    1    2    0    0 -0.39466603500E+02  0.14445884095E+02 -0.10831766201E+02  0.43400731769E+02  0.00000000000E+00 0.  1.
         11    1    3    3    0    0  0.15727966350E+02 -0.39129097244E+01  0.11887241108E+02  0.20099410176E+02  0.51100000000E-03 0. -1.
        -11    1    3    3    0    0  0.13549392004E+02 -0.80148190855E+00 -0.77703796969E+00  0.13595300114E+02  0.51100000000E-03 0.  1.
        -12    1    3    3    0    0  0.10189245146E+02 -0.97314924618E+01 -0.27843693702E+00  0.14092557940E+02  0.00000000000E+00 0.  1.
</event>
<event>
 7    1  0.2505412E-009  0.4778727E+02  0.7816164E-02  0.1312668E+00
        -11   -1    0    0    0    0  0.00000000000E+00  0.00000000000E+00  0.45593999997E+02  0.45594000000E+02  0.51100000000E-03 0.  1.
         11   -1    0    0    0    0 -0.00000000000E+00 -0.00000000000E+00 -0.45593999997E+02  0.45594000000E+02  0.51100000000E-03 0. -1.
    9900012    2    1    2    0    0  0.13359364487E+02  0.66637393099E+01 -0.40752241934E+02  0.47787271162E+02  0.20000000535E+02 0.  0.
        -12    1    1    2    0    0 -0.13359364487E+02 -0.66637393099E+01  0.40752241934E+02  0.43400728838E+02  0.00000000000E+00 0.  1.
         11    1    3    3    0    0 -0.16953373323E+01  0.15507634949E+01 -0.17603559754E+02  0.17752868849E+02  0.51100000000E-03 0. -1.
        -11    1    3    3    0    0  0.40736023058E+01  0.64218067059E+01 -0.62739444891E+01  0.98588141694E+01  0.51100000000E-03 0.  1.
        -12    1    3    3    0    0  0.10981099513E+02 -0.13088308908E+01 -0.16874737691E+02  0.20175588144E+02  0.00000000000E+00 0.  1.
</event>
<event>
 7    1  0.2505412E-009  0.4778727E+02  0.7816164E-02  0.1312668E+00
        -11   -1    0    0    0    0  0.00000000000E+00  0.00000000000E+00  0.45593999997E+02  0.45594000000E+02  0.51100000000E-03 0. -1.
         11   -1    0    0    0    0 -0.00000000000E+00 -0.00000000000E+00 -0.45593999997E+02  0.45594000000E+02  0.51100000000E-03 0.  1.
    9900012    2    1    2    0    0  0.37882480638E+02 -0.14086895650E+02  0.15814557950E+02  0.47787271763E+02  0.20000003275E+02 0.  0.
        -12    1    1    2    0    0 -0.37882480638E+02  0.14086895650E+02 -0.15814557950E+02  0.43400728237E+02  0.00000000000E+00 0.  1.
         11    1    3    3    0    0  0.48131661908E+01  0.13569875192E+01  0.15084402212E+01  0.52233491238E+01  0.51100000000E-03 0. -1.
        -11    1    3    3    0    0  0.77100827467E+01 -0.24386475662E+01 -0.36576531072E+01  0.88752917939E+01  0.51100000000E-03 0.  1.
         12    1    3    3    0    0  0.25359231701E+02 -0.13005235603E+02  0.17963770836E+02  0.33688630845E+02  0.00000000000E+00 0. -1.
</event>
<event>
 7    1  0.2505412E-009  0.4778727E+02  0.7816164E-02  0.1312668E+00
        -11   -1    0    0    0    0  0.00000000000E+00  0.00000000000E+00  0.45593999997E+02  0.45594000000E+02  0.51100000000E-03 0.  1.
         11   -1    0    0    0    0 -0.00000000000E+00 -0.00000000000E+00 -0.45593999997E+02  0.45594000000E+02  0.51100000000E-03 0. -1.
    9900012    2    1    2    0    0 -0.37765023640E+02 -0.21090119210E+02 -0.35543126200E+01  0.47787271009E+02  0.19999999837E+02 0.  0.
        -12    1    1    2    0    0  0.37765023640E+02  0.21090119210E+02  0.35543126200E+01  0.43400728991E+02  0.00000000000E+00 0.  1.
         11    1    3    3    0    0 -0.30001637300E+02 -0.79398131848E+01 -0.13922278230E+01  0.31065691247E+02  0.51100000000E-03 0. -1.
        -11    1    3    3    0    0  0.99189501069E+00 -0.31983460759E+00 -0.27605978363E-01  0.10425508331E+01  0.51100000000E-03 0.  1.
         12    1    3    3    0    0 -0.87552813508E+01 -0.12830471417E+02 -0.21344788186E+01  0.15679028929E+02  0.00000000000E+00 0. -1.
</event>
<event>
 7    1  0.2505412E-009  0.4778727E+02  0.7816164E-02  0.1312668E+00
        -11   -1    0    0    0    0  0.00000000000E+00  0.00000000000E+00  0.45593999997E+02  0.45594000000E+02  0.51100000000E-03 0.  1.
         11   -1    0    0    0    0 -0.00000000000E+00 -0.00000000000E+00 -0.45593999997E+02  0.45594000000E+02  0.51100000000E-03 0. -1.
    9900012    2    1    2    0    0  0.15660763994E+02 -0.33664870233E+02 -0.22473109003E+02  0.47787266770E+02  0.19999980511E+02 0.  0.
        -12    1    1    2    0    0 -0.15660763994E+02  0.33664870233E+02  0.22473109003E+02  0.43400733230E+02  0.00000000000E+00 0.  1.
         11    1    3    3    0    0  0.81162480725E+01 -0.84687541081E+01 -0.33646589844E+01  0.12203040984E+02  0.51100000000E-03 0. -1.
        -11    1    3    3    0    0  0.54173651217E+01 -0.10059680570E+02 -0.40960732472E+00  0.11432969713E+02  0.51100000000E-03 0.  1.
         12    1    3    3    0    0  0.21271507995E+01 -0.15136435555E+02 -0.18698842693E+02  0.24151256073E+02  0.00000000000E+00 0. -1.
</event>
<event>
 7    1  0.2505412E-009  0.4778726E+02  0.7816164E-02  0.1312668E+00
        -11   -1    0    0    0    0  0.00000000000E+00  0.00000000000E+00  0.45593999997E+02  0.45594000000E+02  0.51100000000E-03 0.  1.
         11   -1    0    0    0    0 -0.00000000000E+00 -0.00000000000E+00 -0.45593999997E+02  0.45594000000E+02  0.51100000000E-03 0. -1.
    9900012    2    1    2    0    0 -0.30953210094E+02  0.15054465037E+02 -0.26436448570E+02  0.47787263305E+02  0.19999964713E+02 0.  0.
        -12    1    1    2    0    0  0.30953210094E+02 -0.15054465037E+02  0.26436448570E+02  0.43400736695E+02  0.00000000000E+00 0.  1.
         11    1    3    3    0    0 -0.50224219969E+01 -0.21481941986E-01 -0.66948517740E+01  0.83693622652E+01  0.51100000000E-03 0. -1.
        -11    1    3    3    0    0 -0.99239868459E+01  0.14721501846E+02 -0.75450341369E+01  0.19290818332E+02  0.51100000000E-03 0.  1.
         12    1    3    3    0    0 -0.16006801251E+02  0.35444513257E+00 -0.12196562659E+02  0.20127082708E+02  0.00000000000E+00 0. -1.
</event>
<event>
 7    1  0.2505412E-009  0.4778727E+02  0.7816164E-02  0.1312668E+00
        -11   -1    0    0    0    0  0.00000000000E+00  0.00000000000E+00  0.45593999997E+02  0.45594000000E+02  0.51100000000E-03 0.  1.
         11   -1    0    0    0    0 -0.00000000000E+00 -0.00000000000E+00 -0.45593999997E+02  0.45594000000E+02  0.51100000000E-03 0. -1.
    9900012    2    1    2    0    0  0.21393089501E+02 -0.10427635179E+02 -0.36293575615E+02  0.47787268616E+02  0.19999988926E+02 0.  0.
        -12    1    1    2    0    0 -0.21393089501E+02  0.10427635179E+02  0.36293575615E+02  0.43400731384E+02  0.00000000000E+00 0.  1.
         11    1    3    3    0    0 -0.17491422911E+00  0.17081769918E+01  0.18704009667E-01  0.17172110307E+01  0.51100000000E-03 0.  1.
        -11    1    3    3    0    0  0.22077862203E+02 -0.10007842512E+02 -0.36562030409E+02  0.43867652993E+02  0.51100000000E-03 0. -1.
         12    1    3    3    0    0 -0.50985847378E+00 -0.21279696584E+01  0.24975078508E+00  0.22024045915E+01  0.00000000000E+00 0. -1.
</event>
<event>
 7    1  0.2505412E-009  0.4778727E+02  0.7816164E-02  0.1312668E+00
        -11   -1    0    0    0    0  0.00000000000E+00  0.00000000000E+00  0.45593999997E+02  0.45594000000E+02  0.51100000000E-03 0.  1.
         11   -1    0    0    0    0 -0.00000000000E+00 -0.00000000000E+00 -0.45593999997E+02  0.45594000000E+02  0.51100000000E-03 0. -1.
    9900012    2    1    2    0    0  0.22127948293E+02  0.31612270814E+02 -0.19865594815E+02  0.47787267068E+02  0.19999981870E+02 0.  0.
        -12    1    1    2    0    0 -0.22127948293E+02 -0.31612270814E+02  0.19865594815E+02  0.43400732932E+02  0.00000000000E+00 0.  1.
         11    1    3    3    0    0  0.11535005297E+02  0.69729454067E+01 -0.88955792974E+01  0.16149602043E+02  0.51100000000E-03 0.  1.
        -11    1    3    3    0    0  0.25281929329E+00  0.11140854430E+02 -0.93687384162E+01  0.14558702374E+02  0.51100000000E-03 0. -1.
         12    1    3    3    0    0  0.10340123703E+02  0.13498470977E+02 -0.16012771016E+01  0.17078962652E+02  0.00000000000E+00 0. -1.
</event>
<event>
 7    1  0.2505412E-009  0.4778727E+02  0.7816164E-02  0.1312668E+00
        -11   -1    0    0    0    0  0.00000000000E+00  0.00000000000E+00  0.45593999997E+02  0.45594000000E+02  0.51100000000E-03 0.  1.
         11   -1    0    0    0    0 -0.00000000000E+00 -0.00000000000E+00 -0.45593999997E+02  0.45594000000E+02  0.51100000000E-03 0. -1.
    9900012    2    1    2    0    0 -0.75340736303E+01  0.30492533939E+02 -0.29951066404E+02  0.47787271087E+02  0.20000000194E+02 0.  0.
        -12    1    1    2    0    0  0.75340736303E+01 -0.30492533939E+02  0.29951066404E+02  0.43400728913E+02  0.00000000000E+00 0.  1.
         11    1    3    3    0    0  0.39431790407E+01  0.23229637014E+01 -0.66734823742E+01  0.80919829810E+01  0.51100000000E-03 0. -1.
        -11    1    3    3    0    0 -0.47791870369E+01  0.83126410091E+01 -0.19302912478E+01  0.97809331785E+01  0.51100000000E-03 0.  1.
         12    1    3    3    0    0 -0.66980656341E+01  0.19856929228E+02 -0.21347292782E+02  0.29914354927E+02  0.00000000000E+00 0. -1.
</event>
<event>
 7    1  0.2505412E-009  0.4778728E+02  0.7816164E-02  0.1312668E+00
        -11   -1    0    0    0    0  0.00000000000E+00  0.00000000000E+00  0.45593999997E+02  0.45594000000E+02  0.51100000000E-03 0.  1.
         11   -1    0    0    0    0 -0.00000000000E+00 -0.00000000000E+00 -0.45593999997E+02  0.45594000000E+02  0.51100000000E-03 0. -1.
    9900012    2    1    2    0    0  0.68856350113E+00  0.49664725701E+01 -0.43110118958E+02  0.47787281964E+02  0.20000049785E+02 0.  0.
        -12    1    1    2    0    0 -0.68856350113E+00 -0.49664725701E+01  0.43110118958E+02  0.43400718036E+02  0.00000000000E+00 0.  1.
         11    1    3    3    0    0 -0.61866503341E+01 -0.12926429986E+01 -0.32589725844E+02  0.33196924544E+02  0.51100000000E-03 0.  1.
        -11    1    3    3    0    0  0.21291199668E+01  0.45254322488E+01 -0.59954971264E+01  0.78076036609E+01  0.51100000000E-03 0. -1.
        -12    1    3    3    0    0  0.47460938684E+01  0.17336833199E+01 -0.45248959874E+01  0.67827537592E+01  0.00000000000E+00 0.  1.
</event>
<event>
 7    1  0.2505412E-009  0.4778727E+02  0.7816164E-02  0.1312668E+00
        -11   -1    0    0    0    0  0.00000000000E+00  0.00000000000E+00  0.45593999997E+02  0.45594000000E+02  0.51100000000E-03 0.  1.
         11   -1    0    0    0    0 -0.00000000000E+00 -0.00000000000E+00 -0.45593999997E+02  0.45594000000E+02  0.51100000000E-03 0. -1.
    9900012    2    1    2    0    0  0.11631410143E+02  0.36107396008E+02 -0.21085292929E+02  0.47787270441E+02  0.19999997249E+02 0.  0.
        -12    1    1    2    0    0 -0.11631410143E+02 -0.36107396008E+02  0.21085292929E+02  0.43400729559E+02  0.00000000000E+00 0.  1.
         11    1    3    3    0    0  0.74704490664E+00  0.21517048477E+02 -0.12920505532E+02  0.25109379019E+02  0.51100000000E-03 0. -1.
        -11    1    3    3    0    0 -0.84280134558E+00  0.57857291867E+00  0.16469293153E+01  0.19384109887E+01  0.51100000000E-03 0.  1.
         12    1    3    3    0    0  0.11727166582E+02  0.14011774612E+02 -0.98117167123E+01  0.20739480434E+02  0.00000000000E+00 0. -1.
</event>
<event>
 7    1  0.2505412E-009  0.4778727E+02  0.7816164E-02  0.1312668E+00
        -11   -1    0    0    0    0  0.00000000000E+00  0.00000000000E+00  0.45593999997E+02  0.45594000000E+02  0.51100000000E-03 0.  1.
         11   -1    0    0    0    0 -0.00000000000E+00 -0.00000000000E+00 -0.45593999997E+02  0.45594000000E+02  0.51100000000E-03 0. -1.
    9900012    2    1    2    0    0  0.12638545492E+02 -0.36010306333E+02 -0.20667568512E+02  0.47787269792E+02  0.19999994290E+02 0.  0.
        -12    1    1    2    0    0 -0.12638545492E+02  0.36010306333E+02  0.20667568512E+02  0.43400730208E+02  0.00000000000E+00 0.  1.
         11    1    3    3    0    0  0.91968157907E+01 -0.22985536019E+02 -0.12561196007E+02  0.27761482888E+02  0.51100000000E-03 0. -1.
        -11    1    3    3    0    0 -0.27068093275E+01 -0.82007685878E+01 -0.86096878314E+01  0.12194512987E+02  0.51100000000E-03 0.  1.
         12    1    3    3    0    0  0.61485390289E+01 -0.48240017270E+01  0.50331532633E+00  0.78312739174E+01  0.00000000000E+00 0. -1.
</event>
<event>
 7    1  0.2505412E-009  0.4778727E+02  0.7816164E-02  0.1312668E+00
        -11   -1    0    0    0    0  0.00000000000E+00  0.00000000000E+00  0.45593999997E+02  0.45594000000E+02  0.51100000000E-03 0.  1.
         11   -1    0    0    0    0 -0.00000000000E+00 -0.00000000000E+00 -0.45593999997E+02  0.45594000000E+02  0.51100000000E-03 0. -1.
    9900012    2    1    2    0    0  0.27588576603E+02  0.11669185154E+02 -0.31405791486E+02  0.47787272126E+02  0.20000004933E+02 0.  0.
        -12    1    1    2    0    0 -0.27588576603E+02 -0.11669185154E+02  0.31405791486E+02  0.43400727874E+02  0.00000000000E+00 0.  1.
         11    1    3    3    0    0  0.84760155825E+01  0.19081263869E+01 -0.12031348960E+02  0.14840388961E+02  0.51100000000E-03 0. -1.
        -11    1    3    3    0    0  0.17672072732E+02  0.92028335172E+01 -0.22136054116E+02  0.29782531650E+02  0.51100000000E-03 0.  1.
        -12    1    3    3    0    0  0.14404882879E+01  0.55822525005E+00  0.27616115900E+01  0.31643515152E+01  0.00000000000E+00 0.  1.
</event>
<event>
 7    1  0.2505412E-009  0.4778727E+02  0.7816164E-02  0.1312668E+00
        -11   -1    0    0    0    0  0.00000000000E+00  0.00000000000E+00  0.45593999997E+02  0.45594000000E+02  0.51100000000E-03 0.  1.
         11   -1    0    0    0    0 -0.00000000000E+00 -0.00000000000E+00 -0.45593999997E+02  0.45594000000E+02  0.51100000000E-03 0. -1.
    9900012    2    1    2    0    0 -0.16322677023E+02 -0.69866320180E+01 -0.39602785945E+02  0.47787268822E+02  0.19999989868E+02 0.  0.
        -12    1    1    2    0    0  0.16322677023E+02  0.69866320180E+01  0.39602785945E+02  0.43400731178E+02  0.00000000000E+00 0.  1.
         11    1    3    3    0    0 -0.68408122966E+00  0.16373240135E+01 -0.98001083907E+00  0.20271207561E+01  0.51100000000E-03 0. -1.
        -11    1    3    3    0    0 -0.12838657695E+02 -0.95092229978E+01 -0.39570763356E+02  0.42674368962E+02  0.51100000000E-03 0.  1.
        -12    1    3    3    0    0 -0.27999380987E+01  0.88526696628E+00  0.94798825045E+00  0.30857791044E+01  0.00000000000E+00 0.  1.
</event>
<event>
 7    1  0.2505412E-009  0.4778728E+02  0.7816164E-02  0.1312668E+00
        -11   -1    0    0    0    0  0.00000000000E+00  0.00000000000E+00  0.45593999997E+02  0.45594000000E+02  0.51100000000E-03 0.  1.
         11   -1    0    0    0    0 -0.00000000000E+00 -0.00000000000E+00 -0.45593999997E+02  0.45594000000E+02  0.51100000000E-03 0. -1.
    9900012    2    1    2    0    0  0.21592344732E+02  0.65334245360E+01 -0.37077053470E+02  0.47787275568E+02  0.20000020623E+02 0.  0.
        -12    1    1    2    0    0 -0.21592344732E+02 -0.65334245360E+01  0.37077053470E+02  0.43400724432E+02  0.00000000000E+00 0.  1.
         11    1    3    3    0    0  0.19961450559E+01  0.46913505017E+01 -0.96539856783E+01  0.10917545711E+02  0.51100000000E-03 0. -1.
        -11    1    3    3    0    0  0.21430176459E+02  0.34758615132E+01 -0.21960509359E+02  0.30880382897E+02  0.51100000000E-03 0.  1.
        -12    1    3    3    0    0 -0.18339767825E+01 -0.16337874789E+01 -0.54625584335E+01  0.59893469597E+01  0.00000000000E+00 0.  1.
</event>
<event>
 7    1  0.2505412E-009  0.4778725E+02  0.7816164E-02  0.1312668E+00
        -11   -1    0    0    0    0  0.00000000000E+00  0.00000000000E+00  0.45593999997E+02  0.45594000000E+02  0.51100000000E-03 0. -1.
         11   -1    0    0    0    0 -0.00000000000E+00 -0.00000000000E+00 -0.45593999997E+02  0.45594000000E+02  0.51100000000E-03 0.  1.
    9900012    2    1    2    0    0  0.10510233244E+02  0.37235668622E+02  0.19663793227E+02  0.47787253640E+02  0.19999920645E+02 0.  0.
        -12    1    1    2    0    0 -0.10510233244E+02 -0.37235668622E+02 -0.19663793227E+02  0.43400746360E+02  0.00000000000E+00 0.  1.
         11    1    3    3    0    0 -0.24869643883E+01  0.10486565546E+02  0.92630757262E+01  0.14211179437E+02  0.51100000000E-03 0. -1.
        -11    1    3    3    0    0  0.18844715891E+01  0.10024381139E+02 -0.13837480931E+01  0.10293406115E+02  0.51100000000E-03 0.  1.
         12    1    3    3    0    0  0.11112726043E+02  0.16724721937E+02  0.11784465594E+02  0.23282668088E+02  0.00000000000E+00 0. -1.
</event>
<event>
 7    1  0.2505412E-009  0.4778727E+02  0.7816164E-02  0.1312668E+00
        -11   -1    0    0    0    0  0.00000000000E+00  0.00000000000E+00  0.45593999997E+02  0.45594000000E+02  0.51100000000E-03 0.  1.
         11   -1    0    0    0    0 -0.00000000000E+00 -0.00000000000E+00 -0.45593999997E+02  0.45594000000E+02  0.51100000000E-03 0. -1.
    9900012    2    1    2    0    0  0.37899046097E+02 -0.45622955800E+01 -0.20651169192E+02  0.47787273912E+02  0.20000013072E+02 0.  0.
        -12    1    1    2    0    0 -0.37899046097E+02  0.45622955800E+01  0.20651169192E+02  0.43400726088E+02  0.00000000000E+00 0.  1.
         11    1    3    3    0    0  0.27575158015E+02 -0.82735564039E+01 -0.78563310460E+01  0.29842302406E+02  0.51100000000E-03 0. -1.
        -11    1    3    3    0    0 -0.83019760998E+00  0.16000061491E+00 -0.12072604145E+01  0.14738745665E+01  0.51100000000E-03 0.  1.
         12    1    3    3    0    0  0.11154085692E+02  0.35512602089E+01 -0.11587577731E+02  0.16471096939E+02  0.00000000000E+00 0. -1.
</event>
<event>
 7    1  0.2505412E-009  0.4778727E+02  0.7816164E-02  0.1312668E+00
        -11   -1    0    0    0    0  0.00000000000E+00  0.00000000000E+00  0.45593999997E+02  0.45594000000E+02  0.51100000000E-03 0.  1.
         11   -1    0    0    0    0 -0.00000000000E+00 -0.00000000000E+00 -0.45593999997E+02  0.45594000000E+02  0.51100000000E-03 0. -1.
    9900012    2    1    2    0    0  0.27999292717E+02 -0.16384908469E+02 -0.28830498885E+02  0.47787270927E+02  0.19999999463E+02 0.  0.
        -12    1    1    2    0    0 -0.27999292717E+02  0.16384908469E+02  0.28830498885E+02  0.43400729073E+02  0.00000000000E+00 0.  1.
         11    1    3    3    0    0  0.27574132433E+02 -0.77678305685E+01 -0.19646189928E+02  0.34736792456E+02  0.51100000000E-03 0. -1.
        -11    1    3    3    0    0  0.85758944098E+00 -0.34781711663E+01 -0.17096039762E+01  0.39693677491E+01  0.51100000000E-03 0.  1.
         12    1    3    3    0    0 -0.43242915695E+00 -0.51389067341E+01 -0.74747049805E+01  0.90811107219E+01  0.00000000000E+00 0. -1.
</event>
<event>
 7    1  0.2505412E-009  0.4778727E+02  0.7816164E-02  0.1312668E+00
        -11   -1    0    0    0    0  0.00000000000E+00  0.00000000000E+00  0.45593999997E+02  0.45594000000E+02  0.51100000000E-03 0.  1.
         11   -1    0    0    0    0 -0.00000000000E+00 -0.00000000000E+00 -0.45593999997E+02  0.45594000000E+02  0.51100000000E-03 0. -1.
    9900012    2    1    2    0    0 -0.15329755107E+02  0.11293665932E+02 -0.39000961515E+02  0.47787270963E+02  0.19999999629E+02 0.  0.
        -12    1    1    2    0    0  0.15329755107E+02 -0.11293665932E+02  0.39000961515E+02  0.43400729037E+02  0.00000000000E+00 0.  1.
         11    1    3    3    0    0 -0.56549038396E+01  0.21542365086E+01 -0.15579272603E+02  0.16713240484E+02  0.51100000000E-03 0. -1.
        -11    1    3    3    0    0 -0.70432436179E+01  0.62548128507E+01 -0.24378697941E+01  0.97300140726E+01  0.51100000000E-03 0.  1.
        -12    1    3    3    0    0 -0.26316076495E+01  0.28846165726E+01 -0.20983819118E+02  0.21344016406E+02  0.00000000000E+00 0.  1.
</event>
<event>
 7    1  0.2505412E-009  0.4778727E+02  0.7816164E-02  0.1312668E+00
        -11   -1    0    0    0    0  0.00000000000E+00  0.00000000000E+00  0.45593999997E+02  0.45594000000E+02  0.51100000000E-03 0.  1.
         11   -1    0    0    0    0 -0.00000000000E+00 -0.00000000000E+00 -0.45593999997E+02  0.45594000000E+02  0.51100000000E-03 0. -1.
    9900012    2    1    2    0    0  0.21109803325E+02  0.18914626169E+02 -0.32866946117E+02  0.47787273893E+02  0.20000012990E+02 0.  0.
        -12    1    1    2    0    0 -0.21109803325E+02 -0.18914626169E+02  0.32866946117E+02  0.43400726107E+02  0.00000000000E+00 0.  1.
         11    1    3    3    0    0  0.54743605116E+01  0.43700146076E+01 -0.16251717625E+02  0.17697004738E+02  0.51100000000E-03 0. -1.
        -11    1    3    3    0    0  0.88118090756E+01  0.69334404732E+01 -0.16399137462E+02  0.19865857287E+02  0.51100000000E-03 0.  1.
        -12    1    3    3    0    0  0.68236337378E+01  0.76111710877E+01 -0.21609102971E+00  0.10224411868E+02  0.00000000000E+00 0.  1.
</event>
<event>
 7    1  0.2505412E-009  0.4778727E+02  0.7816164E-02  0.1312668E+00
        -11   -1    0    0    0    0  0.00000000000E+00  0.00000000000E+00  0.45593999997E+02  0.45594000000E+02  0.51100000000E-03 0. -1.
         11   -1    0    0    0    0 -0.00000000000E+00 -0.00000000000E+00 -0.45593999997E+02  0.45594000000E+02  0.51100000000E-03 0.  1.
    9900012    2    1    2    0    0 -0.53679230130E+01  0.41416807314E+02  0.11809186040E+02  0.47787269586E+02  0.19999993349E+02 0.  0.
        -12    1    1    2    0    0  0.53679230130E+01 -0.41416807314E+02 -0.11809186040E+02  0.43400730414E+02  0.00000000000E+00 0.  1.
         11    1    3    3    0    0 -0.42705547969E+01  0.25171701346E+02  0.69134879765E+01  0.26450869611E+02  0.51100000000E-03 0. -1.
        -11    1    3    3    0    0  0.39781939613E+01  0.97165578738E+01 -0.18542630016E+01  0.10661886121E+02  0.51100000000E-03 0.  1.
        -12    1    3    3    0    0 -0.50755621774E+01  0.65285480941E+01  0.67499610648E+01  0.10674513854E+02  0.00000000000E+00 0.  1.
</event>
<event>
 7    1  0.2505412E-009  0.4778727E+02  0.7816164E-02  0.1312668E+00
        -11   -1    0    0    0    0  0.00000000000E+00  0.00000000000E+00  0.45593999997E+02  0.45594000000E+02  0.51100000000E-03 0.  1.
         11   -1    0    0    0    0 -0.00000000000E+00 -0.00000000000E+00 -0.45593999997E+02  0.45594000000E+02  0.51100000000E-03 0. -1.
    9900012    2    1    2    0    0 -0.30455607307E+02  0.15868981767E+02 -0.26537799687E+02  0.47787269465E+02  0.19999992797E+02 0.  0.
        -12    1    1    2    0    0  0.30455607307E+02 -0.15868981767E+02  0.26537799687E+02  0.43400730535E+02  0.00000000000E+00 0.  1.
         11    1    3    3    0    0 -0.56377818843E+00 -0.23675691212E+01 -0.17652368324E+01  0.30065413227E+01  0.51100000000E-03 0. -1.
        -11    1    3    3    0    0 -0.21860140854E+02  0.10259257241E+02 -0.99199548270E+01  0.26106007380E+02  0.51100000000E-03 0.  1.
         12    1    3    3    0    0 -0.80316882648E+01  0.79772936472E+01 -0.14852608027E+02  0.18674720762E+02  0.00000000000E+00 0. -1.
</event>
<event>
 7    1  0.2505412E-009  0.4778728E+02  0.7816164E-02  0.1312668E+00
        -11   -1    0    0    0    0  0.00000000000E+00  0.00000000000E+00  0.45593999997E+02  0.45594000000E+02  0.51100000000E-03 0. -1.
         11   -1    0    0    0    0 -0.00000000000E+00 -0.00000000000E+00 -0.45593999997E+02  0.45594000000E+02  0.51100000000E-03 0.  1.
    9900012    2    1    2    0    0 -0.61144762182E+01 -0.27487812491E+02  0.33025085175E+02  0.47787275285E+02  0.20000019335E+02 0.  0.
        -12    1    1    2    0    0  0.61144762182E+01  0.27487812491E+02 -0.33025085175E+02  0.43400724715E+02  0.00000000000E+00 0.  1.
         11    1    3    3    0    0 -0.30519265088E+00  0.27919570845E+01  0.59835977125E+01  0.66099628412E+01  0.51100000000E-03 0.  1.
        -11    1    3    3    0    0 -0.15850910203E+01 -0.94171758284E+01  0.61916947487E+01  0.11381247658E+02  0.51100000000E-03 0. -1.
        -12    1    3    3    0    0 -0.42241925471E+01 -0.20862593748E+02  0.20849792713E+02  0.29796064786E+02  0.00000000000E+00 0.  1.
</event>
<event>
 7    1  0.2505412E-009  0.4778731E+02  0.7816164E-02  0.1312668E+00
        -11   -1    0    0    0    0  0.00000000000E+00  0.00000000000E+00  0.45593999997E+02  0.45594000000E+02  0.51100000000E-03 0.  1.
         11   -1    0    0    0    0 -0.00000000000E+00 -0.00000000000E+00 -0.45593999997E+02  0.45594000000E+02  0.51100000000E-03 0. -1.
    9900012    2    1    2    0    0  0.38389771968E+02  0.15514290277E+02  0.13005843495E+02  0.47787311531E+02  0.20000184595E+02 0.  0.
        -12    1    1    2    0    0 -0.38389771968E+02 -0.15514290277E+02 -0.13005843495E+02  0.43400688469E+02  0.00000000000E+00 0.  1.
         11    1    3    3    0    0  0.32457602849E+02  0.99450975063E+01  0.34822964971E+01  0.34125171593E+02  0.51100000000E-03 0. -1.
        -11    1    3    3    0    0  0.51778754634E+00 -0.10206559132E+01  0.19242351346E+01  0.22388665773E+01  0.51100000000E-03 0.  1.
         12    1    3    3    0    0  0.54143815731E+01  0.65898486835E+01  0.75993118633E+01  0.11423273361E+02  0.00000000000E+00 0. -1.
</event>
<event>
 7    1  0.2505412E-009  0.4778723E+02  0.7816164E-02  0.1312668E+00
        -11   -1    0    0    0    0  0.00000000000E+00  0.00000000000E+00  0.45593999997E+02  0.45594000000E+02  0.51100000000E-03 0.  1.
         11   -1    0    0    0    0 -0.00000000000E+00 -0.00000000000E+00 -0.45593999997E+02  0.45594000000E+02  0.51100000000E-03 0. -1.
    9900012    2    1    2    0    0 -0.34349702312E+02 -0.26452831946E+02 -0.19930648336E+01  0.47787231869E+02  0.19999821385E+02 0.  0.
        -12    1    1    2    0    0  0.34349702312E+02  0.26452831946E+02  0.19930648336E+01  0.43400768131E+02  0.00000000000E+00 0.  1.
         11    1    3    3    0    0 -0.35190103108E+01 -0.78766314495E+01  0.43670914209E+00  0.86380247565E+01  0.51100000000E-03 0. -1.
        -11    1    3    3    0    0 -0.29573340655E+02 -0.18660132671E+02 -0.58952138195E+01  0.35461762153E+02  0.51100000000E-03 0.  1.
        -12    1    3    3    0    0 -0.12573513466E+01  0.83932174760E-01  0.34654398438E+01  0.36874449596E+01  0.00000000000E+00 0.  1.
</event>
<event>
 7    1  0.2505412E-009  0.4778728E+02  0.7816164E-02  0.1312668E+00
        -11   -1    0    0    0    0  0.00000000000E+00  0.00000000000E+00  0.45593999997E+02  0.45594000000E+02  0.51100000000E-03 0.  1.
         11   -1    0    0    0    0 -0.00000000000E+00 -0.00000000000E+00 -0.45593999997E+02  0.45594000000E+02  0.51100000000E-03 0. -1.
    9900012    2    1    2    0    0  0.35035180797E+02  0.87380562794E+01 -0.24079136755E+02  0.47787281712E+02  0.20000048638E+02 0.  0.
        -12    1    1    2    0    0 -0.35035180797E+02 -0.87380562794E+01  0.24079136755E+02  0.43400718288E+02  0.00000000000E+00 0.  1.
         11    1    3    3    0    0  0.16754337505E+02  0.27846273826E+01 -0.66308101910E+01  0.18232652548E+02  0.51100000000E-03 0. -1.
        -11    1    3    3    0    0 -0.13811659027E+01 -0.14155392463E+01  0.37448669766E+00  0.20128614350E+01  0.51100000000E-03 0.  1.
         12    1    3    3    0    0  0.19662009195E+02  0.73689681431E+01 -0.17822813262E+02  0.27541767729E+02  0.00000000000E+00 0. -1.
</event>
<event>
 7    1  0.2505412E-009  0.4778727E+02  0.7816164E-02  0.1312668E+00
        -11   -1    0    0    0    0  0.00000000000E+00  0.00000000000E+00  0.45593999997E+02  0.45594000000E+02  0.51100000000E-03 0.  1.
         11   -1    0    0    0    0 -0.00000000000E+00 -0.00000000000E+00 -0.45593999997E+02  0.45594000000E+02  0.51100000000E-03 0. -1.
    9900012    2    1    2    0    0 -0.15783089744E+02  0.33120875689E+01 -0.40293268183E+02  0.47787270665E+02  0.19999998269E+02 0.  0.
        -12    1    1    2    0    0  0.15783089744E+02 -0.33120875689E+01  0.40293268183E+02  0.43400729335E+02  0.00000000000E+00 0.  1.
         11    1    3    3    0    0 -0.43612551453E+01  0.73392935864E+01 -0.92515856998E+01  0.12588789259E+02  0.51100000000E-03 0.  1.
        -11    1    3    3    0    0 -0.88414025425E+01  0.10845420927E+01 -0.26288379576E+02  0.27756540337E+02  0.51100000000E-03 0. -1.
         12    1    3    3    0    0 -0.25804320565E+01 -0.51117481102E+01 -0.47533029077E+01  0.74419410689E+01  0.00000000000E+00 0. -1.
</event>
<event>
 7    1  0.2505412E-009  0.4778728E+02  0.7816164E-02  0.1312668E+00
        -11   -1    0    0    0    0  0.00000000000E+00  0.00000000000E+00  0.45593999997E+02  0.45594000000E+02  0.51100000000E-03 0.  1.
         11   -1    0    0    0    0 -0.00000000000E+00 -0.00000000000E+00 -0.45593999997E+02  0.45594000000E+02  0.51100000000E-03 0. -1.
    9900012    2    1    2    0    0 -0.14103589047E+02 -0.10182013127E+02 -0.39762270924E+02  0.47787276454E+02  0.20000024664E+02 0.  0.
        -12    1    1    2    0    0  0.14103589047E+02  0.10182013127E+02  0.39762270924E+02  0.43400723546E+02  0.00000000000E+00 0.  1.
         11    1    3    3    0    0 -0.51231584162E+01  0.56037561532E+00 -0.46195499838E+01  0.69210559383E+01  0.51100000000E-03 0. -1.
        -11    1    3    3    0    0 -0.64136817939E+00 -0.39394994754E+01 -0.27198364358E+02  0.27489671392E+02  0.51100000000E-03 0.  1.
        -12    1    3    3    0    0 -0.83390624512E+01 -0.68028892672E+01 -0.79443565822E+01  0.13376549123E+02  0.00000000000E+00 0.  1.
</event>
<event>
 7    1  0.2505412E-009  0.4778727E+02  0.7816164E-02  0.1312668E+00
        -11   -1    0    0    0    0  0.00000000000E+00  0.00000000000E+00  0.45593999997E+02  0.45594000000E+02  0.51100000000E-03 0.  1.
         11   -1    0    0    0    0 -0.00000000000E+00 -0.00000000000E+00 -0.45593999997E+02  0.45594000000E+02  0.51100000000E-03 0. -1.
    9900012    2    1    2    0    0 -0.20252411983E+02 -0.22326737110E+02 -0.31224668354E+02  0.47787270802E+02  0.19999998894E+02 0.  0.
        -12    1    1    2    0    0  0.20252411983E+02  0.22326737110E+02  0.31224668354E+02  0.43400729198E+02  0.00000000000E+00 0.  1.
         11    1    3    3    0    0 -0.40186801323E+01 -0.15758144791E+02 -0.23013097023E+02  0.28179275223E+02  0.51100000000E-03 0. -1.
        -11    1    3    3    0    0 -0.36882945622E+01 -0.14778023505E+01 -0.44147394773E+00  0.39977888979E+01  0.51100000000E-03 0.  1.
        -12    1    3    3    0    0 -0.12545437288E+02 -0.50907899686E+01 -0.77700973838E+01  0.15610206681E+02  0.00000000000E+00 0.  1.
</event>
<event>
 7    1  0.2505412E-009  0.4778727E+02  0.7816164E-02  0.1312668E+00
        -11   -1    0    0    0    0  0.00000000000E+00  0.00000000000E+00  0.45593999997E+02  0.45594000000E+02  0.51100000000E-03 0.  1.
         11   -1    0    0    0    0 -0.00000000000E+00 -0.00000000000E+00 -0.45593999997E+02  0.45594000000E+02  0.51100000000E-03 0. -1.
    9900012    2    1    2    0    0  0.38551964539E+02 -0.39612526720E+01 -0.19536573742E+02  0.47787271825E+02  0.20000003560E+02 0.  0.
        -12    1    1    2    0    0 -0.38551964539E+02  0.39612526720E+01  0.19536573742E+02  0.43400728175E+02  0.00000000000E+00 0.  1.
         11    1    3    3    0    0  0.14987591643E+01  0.54906150372E+00 -0.46884944213E+01  0.49527495159E+01  0.51100000000E-03 0. -1.
        -11    1    3    3    0    0  0.19777811396E+02  0.49346399294E+00 -0.43881894278E+00  0.19788832523E+02  0.51100000000E-03 0.  1.
         12    1    3    3    0    0  0.17275393979E+02 -0.50037781686E+01 -0.14409260378E+02  0.23045689786E+02  0.00000000000E+00 0. -1.
</event>
<event>
 7    1  0.2505412E-009  0.4778729E+02  0.7816164E-02  0.1312668E+00
        -11   -1    0    0    0    0  0.00000000000E+00  0.00000000000E+00  0.45593999997E+02  0.45594000000E+02  0.51100000000E-03 0.  1.
         11   -1    0    0    0    0 -0.00000000000E+00 -0.00000000000E+00 -0.45593999997E+02  0.45594000000E+02  0.51100000000E-03 0. -1.
    9900012    2    1    2    0    0  0.35532883084E+01 -0.84119758628E+01 -0.42429174202E+02  0.47787285499E+02  0.20000065906E+02 0.  0.
        -12    1    1    2    0    0 -0.35532883084E+01  0.84119758628E+01  0.42429174202E+02  0.43400714501E+02  0.00000000000E+00 0.  1.
         11    1    3    3    0    0 -0.34679632055E+01 -0.50965983111E+01 -0.39156383378E+01  0.73030340950E+01  0.51100000000E-03 0.  1.
        -11    1    3    3    0    0 -0.12800052755E+01 -0.40615814955E+00 -0.19370259527E+02  0.19416753909E+02  0.51100000000E-03 0. -1.
        -12    1    3    3    0    0  0.83012567895E+01 -0.29092194022E+01 -0.19143276337E+02  0.21067497495E+02  0.00000000000E+00 0.  1.
</event>
<event>
 7    1  0.2505412E-009  0.4778727E+02  0.7816164E-02  0.1312668E+00
        -11   -1    0    0    0    0  0.00000000000E+00  0.00000000000E+00  0.45593999997E+02  0.45594000000E+02  0.51100000000E-03 0.  1.
         11   -1    0    0    0    0 -0.00000000000E+00 -0.00000000000E+00 -0.45593999997E+02  0.45594000000E+02  0.51100000000E-03 0. -1.
    9900012    2    1    2    0    0 -0.60180264315E+01 -0.29787650289E+02 -0.30985518317E+02  0.47787273079E+02  0.20000009278E+02 0.  0.
        -12    1    1    2    0    0  0.60180264315E+01  0.29787650289E+02  0.30985518317E+02  0.43400726921E+02  0.00000000000E+00 0.  1.
         11    1    3    3    0    0 -0.46427368358E+01 -0.40352266132E+01 -0.34215991486E+01  0.70388493479E+01  0.51100000000E-03 0. -1.
        -11    1    3    3    0    0 -0.24682341194E+01  0.13683428319E+01 -0.32920587193E+01  0.43361495184E+01  0.51100000000E-03 0.  1.
         12    1    3    3    0    0  0.10929445237E+01 -0.27120766508E+02 -0.24271860449E+02  0.36412274213E+02  0.00000000000E+00 0. -1.
</event>
<event>
 7    1  0.2505412E-009  0.4778727E+02  0.7816164E-02  0.1312668E+00
        -11   -1    0    0    0    0  0.00000000000E+00  0.00000000000E+00  0.45593999997E+02  0.45594000000E+02  0.51100000000E-03 0. -1.
         11   -1    0    0    0    0 -0.00000000000E+00 -0.00000000000E+00 -0.45593999997E+02  0.45594000000E+02  0.51100000000E-03 0.  1.
    9900012    2    1    2    0    0  0.28964714580E+02  0.30608572763E+02  0.10381907533E+02  0.47787269346E+02  0.19999992254E+02 0.  0.
        -12    1    1    2    0    0 -0.28964714580E+02 -0.30608572763E+02 -0.10381907533E+02  0.43400730654E+02  0.00000000000E+00 0.  1.
         11    1    3    3    0    0  0.34811058262E+01  0.85035448237E+00 -0.36644260387E+01  0.51253506195E+01  0.51100000000E-03 0.  1.
        -11    1    3    3    0    0  0.64225307863E+01  0.10017714221E+02  0.86089751553E+01  0.14687339902E+02  0.51100000000E-03 0. -1.
        -12    1    3    3    0    0  0.19061077968E+02  0.19740504060E+02  0.54373584162E+01  0.27974578824E+02  0.00000000000E+00 0.  1.
</event>
<event>
 7    1  0.2505412E-009  0.4778727E+02  0.7816164E-02  0.1312668E+00
        -11   -1    0    0    0    0  0.00000000000E+00  0.00000000000E+00  0.45593999997E+02  0.45594000000E+02  0.51100000000E-03 0.  1.
         11   -1    0    0    0    0 -0.00000000000E+00 -0.00000000000E+00 -0.45593999997E+02  0.45594000000E+02  0.51100000000E-03 0. -1.
    9900012    2    1    2    0    0  0.29169948326E+02 -0.19671864079E+02 -0.25411707980E+02  0.47787273921E+02  0.20000013116E+02 0.  0.
        -12    1    1    2    0    0 -0.29169948326E+02  0.19671864079E+02  0.25411707980E+02  0.43400726079E+02  0.00000000000E+00 0.  1.
         11    1    3    3    0    0  0.37568652755E+01 -0.73217759672E+01 -0.90361086498E+01  0.12221853370E+02  0.51100000000E-03 0. -1.
        -11    1    3    3    0    0  0.81106058772E+01  0.26862570865E+01 -0.31856896307E+01  0.91184715558E+01  0.51100000000E-03 0.  1.
         12    1    3    3    0    0  0.17302477174E+02 -0.15036345198E+02 -0.13189909700E+02  0.26446948995E+02  0.00000000000E+00 0. -1.
</event>
<event>
 7    1  0.2505412E-009  0.4778727E+02  0.7816164E-02  0.1312668E+00
        -11   -1    0    0    0    0  0.00000000000E+00  0.00000000000E+00  0.45593999997E+02  0.45594000000E+02  0.51100000000E-03 0.  1.
         11   -1    0    0    0    0 -0.00000000000E+00 -0.00000000000E+00 -0.45593999997E+02  0.45594000000E+02  0.51100000000E-03 0. -1.
    9900012    2    1    2    0    0  0.14707590980E+02 -0.54442723566E+01 -0.40468139277E+02  0.47787266936E+02  0.19999981268E+02 0.  0.
        -12    1    1    2    0    0 -0.14707590980E+02  0.54442723566E+01  0.40468139277E+02  0.43400733064E+02  0.00000000000E+00 0.  1.
         11    1    3    3    0    0  0.95531320173E+01  0.18266094648E+00 -0.21773216386E+02  0.23777481961E+02  0.51100000000E-03 0.  1.
        -11    1    3    3    0    0  0.18484687677E+01  0.95140055076E+00  0.14678386018E+01  0.25449067203E+01  0.51100000000E-03 0. -1.
         12    1    3    3    0    0  0.33059901946E+01 -0.65783338538E+01 -0.20162761493E+02  0.21464878255E+02  0.00000000000E+00 0. -1.
</event>
<event>
 7    1  0.2505412E-009  0.4778728E+02  0.7816164E-02  0.1312668E+00
        -11   -1    0    0    0    0  0.00000000000E+00  0.00000000000E+00  0.45593999997E+02  0.45594000000E+02  0.51100000000E-03 0. -1.
         11   -1    0    0    0    0 -0.00000000000E+00 -0.00000000000E+00 -0.45593999997E+02  0.45594000000E+02  0.51100000000E-03 0.  1.
    9900012    2    1    2    0    0  0.28782885425E+01 -0.41946561987E+02 -0.10762158094E+02  0.47787278182E+02  0.20000032545E+02 0.  0.
        -12    1    1    2    0    0 -0.28782885425E+01  0.41946561987E+02  0.10762158094E+02  0.43400721818E+02  0.00000000000E+00 0.  1.
         11    1    3    3    0    0  0.41162201785E+01 -0.31632703056E+02 -0.46953463619E+01  0.32243099245E+02  0.51100000000E-03 0. -1.
        -11    1    3    3    0    0  0.36851551652E+01 -0.10990088520E+01 -0.12869812114E+01  0.40551830968E+01  0.51100000000E-03 0.  1.
        -12    1    3    3    0    0 -0.49230868012E+01 -0.92148500784E+01 -0.47798305204E+01  0.11488995840E+02  0.00000000000E+00 0.  1.
</event>
<event>
 7    1  0.2505412E-009  0.4778727E+02  0.7816164E-02  0.1312668E+00
        -11   -1    0    0    0    0  0.00000000000E+00  0.00000000000E+00  0.45593999997E+02  0.45594000000E+02  0.51100000000E-03 0.  1.
         11   -1    0    0    0    0 -0.00000000000E+00 -0.00000000000E+00 -0.45593999997E+02  0.45594000000E+02  0.51100000000E-03 0. -1.
    9900012    2    1    2    0    0  0.15512638741E+02 -0.11427333812E+02 -0.38889550648E+02  0.47787273412E+02  0.20000010796E+02 0.  0.
        -12    1    1    2    0    0 -0.15512638741E+02  0.11427333812E+02  0.38889550648E+02  0.43400726588E+02  0.00000000000E+00 0.  1.
         11    1    3    3    0    0  0.84565450326E+01 -0.69059609783E+01 -0.28839099898E+02  0.30836652446E+02  0.51100000000E-03 0. -1.
        -11    1    3    3    0    0  0.45636970606E+01 -0.73859084976E+00 -0.11335352906E+02  0.12241857419E+02  0.51100000000E-03 0.  1.
        -12    1    3    3    0    0  0.24923966476E+01 -0.37827819842E+01  0.12849021562E+01  0.47087635468E+01  0.00000000000E+00 0.  1.
</event>
<event>
 7    1  0.2505412E-009  0.4778727E+02  0.7816164E-02  0.1312668E+00
        -11   -1    0    0    0    0  0.00000000000E+00  0.00000000000E+00  0.45593999997E+02  0.45594000000E+02  0.51100000000E-03 0. -1.
         11   -1    0    0    0    0 -0.00000000000E+00 -0.00000000000E+00 -0.45593999997E+02  0.45594000000E+02  0.51100000000E-03 0.  1.
    9900012    2    1    2    0    0 -0.32637936204E+02 -0.93592372722E+01  0.27033185094E+02  0.47787270763E+02  0.19999998718E+02 0.  0.
        -12    1    1    2    0    0  0.32637936204E+02  0.93592372722E+01 -0.27033185094E+02  0.43400729237E+02  0.00000000000E+00 0.  1.
         11    1    3    3    0    0 -0.12526975448E+02 -0.29126411722E+01  0.17830375501E+02  0.21984787541E+02  0.51100000000E-03 0. -1.
        -11    1    3    3    0    0 -0.12909491593E+02 -0.50152603342E+01  0.11613712493E+02  0.18074460643E+02  0.51100000000E-03 0.  1.
         12    1    3    3    0    0 -0.72014691633E+01 -0.14313357658E+01 -0.24109029003E+01  0.77280225788E+01  0.00000000000E+00 0. -1.
</event>
<event>
 7    1  0.2505412E-009  0.4778734E+02  0.7816164E-02  0.1312667E+00
        -11   -1    0    0    0    0  0.00000000000E+00  0.00000000000E+00  0.45593999997E+02  0.45594000000E+02  0.51100000000E-03 0. -1.
         11   -1    0    0    0    0 -0.00000000000E+00 -0.00000000000E+00 -0.45593999997E+02  0.45594000000E+02  0.51100000000E-03 0.  1.
    9900012    2    1    2    0    0  0.27651811755E+02  0.19743741362E+02  0.27003327506E+02  0.47787335113E+02  0.20000292112E+02 0.  0.
        -12    1    1    2    0    0 -0.27651811755E+02 -0.19743741362E+02 -0.27003327506E+02  0.43400664887E+02  0.00000000000E+00 0.  1.
         11    1    3    3    0    0  0.11249133886E+02 -0.12901080355E+01  0.11893398984E+02  0.16421337692E+02  0.51100000000E-03 0.  1.
        -11    1    3    3    0    0  0.66925681593E+01  0.11521729362E+02  0.10657967733E+02  0.17062619744E+02  0.51100000000E-03 0. -1.
        -12    1    3    3    0    0  0.97101097090E+01  0.95121200346E+01  0.44519607883E+01  0.14303377677E+02  0.00000000000E+00 0.  1.
</event>
<event>
 7    1  0.2505412E-009  0.4778728E+02  0.7816164E-02  0.1312668E+00
        -11   -1    0    0    0    0  0.00000000000E+00  0.00000000000E+00  0.45593999997E+02  0.45594000000E+02  0.51100000000E-03 0.  1.
         11   -1    0    0    0    0 -0.00000000000E+00 -0.00000000000E+00 -0.45593999997E+02  0.45594000000E+02  0.51100000000E-03 0. -1.
    9900012    2    1    2    0    0 -0.30705049566E+02  0.10457955116E+01  0.30655001281E+02  0.47787275806E+02  0.20000021708E+02 0.  0.
        -12    1    1    2    0    0  0.30705049566E+02 -0.10457955116E+01 -0.30655001281E+02  0.43400724194E+02  0.00000000000E+00 0.  1.
         11    1    3    3    0    0 -0.83504869169E+01  0.60459148740E+01  0.71340185145E+01  0.12537062608E+02  0.51100000000E-03 0. -1.
        -11    1    3    3    0    0 -0.27470006385E+01 -0.40806159089E+01  0.42160082342E+00  0.49371232736E+01  0.51100000000E-03 0.  1.
        -12    1    3    3    0    0 -0.19607562010E+02 -0.91950345357E+00  0.23099381943E+02  0.30313089924E+02  0.00000000000E+00 0.  1.
</event>
