<event>
 7    1  0.3041451E-011  0.5052884E+02  0.7816164E-02  0.1300439E+00
        -11   -1    0    0    0    0  0.00000000000E+00  0.00000000000E+00  0.45593999997E+02  0.45594000000E+02  0.51100000000E-03 0.  1.
         11   -1    0    0    0    0 -0.00000000000E+00 -0.00000000000E+00 -0.45593999997E+02  0.45594000000E+02  0.51100000000E-03 0. -1.
    9900012    2    1    2    0    0 -0.20868050476E+02  0.28758686399E+02  0.19764350537E+02  0.50528842038E+02  0.29999945859E+02 0.  0.
         12    1    1    2    0    0  0.20868050476E+02 -0.28758686399E+02 -0.19764350537E+02  0.40659157962E+02  0.00000000000E+00 0. -1.
         11    1    3    3    0    0  0.28179727332E+01 -0.36580579352E+00  0.70578886847E+00  0.29279553261E+01  0.51100000000E-03 0. -1.
        -11    1    3    3    0    0 -0.23165821052E+02  0.19532554264E+02  0.52087842815E+01  0.30745851347E+02  0.51100000000E-03 0.  1.
        -12    1    3    3    0    0 -0.52020215678E+00  0.95919379279E+01  0.13849777387E+02  0.16855035365E+02  0.00000000000E+00 0.  1.
</event>
<event>
 7    1  0.3041451E-011  0.5052883E+02  0.7816164E-02  0.1300439E+00
        -11   -1    0    0    0    0  0.00000000000E+00  0.00000000000E+00  0.45593999997E+02  0.45594000000E+02  0.51100000000E-03 0.  1.
         11   -1    0    0    0    0 -0.00000000000E+00 -0.00000000000E+00 -0.45593999997E+02  0.45594000000E+02  0.51100000000E-03 0. -1.
    9900012    2    1    2    0    0  0.26696001126E+02 -0.27718417268E+02  0.13121769689E+02  0.50528831640E+02  0.29999914252E+02 0.  0.
         12    1    1    2    0    0 -0.26696001126E+02  0.27718417268E+02 -0.13121769689E+02  0.40659168360E+02  0.00000000000E+00 0. -1.
         11    1    3    3    0    0  0.52400887126E+00 -0.14443497735E+02 -0.12012213672E+01  0.14502832315E+02  0.51100000000E-03 0. -1.
        -11    1    3    3    0    0  0.15686557388E+02  0.55982850156E+00  0.69060596440E+01  0.17148619499E+02  0.51100000000E-03 0.  1.
        -12    1    3    3    0    0  0.10485434867E+02 -0.13834748035E+02  0.74169314125E+01  0.18877379826E+02  0.00000000000E+00 0.  1.
</event>
<event>
 7    1  0.3041451E-011  0.5052888E+02  0.7816164E-02  0.1300439E+00
        -11   -1    0    0    0    0  0.00000000000E+00  0.00000000000E+00  0.45593999997E+02  0.45594000000E+02  0.51100000000E-03 0.  1.
         11   -1    0    0    0    0 -0.00000000000E+00 -0.00000000000E+00 -0.45593999997E+02  0.45594000000E+02  0.51100000000E-03 0. -1.
    9900012    2    1    2    0    0  0.26536820420E+02  0.11907742526E+02 -0.28410687833E+02  0.50528876138E+02  0.30000049510E+02 0.  0.
         12    1    1    2    0    0 -0.26536820420E+02 -0.11907742526E+02  0.28410687833E+02  0.40659123862E+02  0.00000000000E+00 0. -1.
         11    1    3    3    0    0  0.26241853168E+02  0.35559161710E+01 -0.26163417307E+02  0.37226385844E+02  0.51100000000E-03 0. -1.
        -11    1    3    3    0    0  0.15418369488E+01  0.33068871462E+01  0.38411219212E+01  0.52978280124E+01  0.51100000000E-03 0.  1.
         12    1    3    3    0    0 -0.12468696978E+01  0.50449392093E+01 -0.60883924467E+01  0.80046622823E+01  0.00000000000E+00 0. -1.
</event>
<event>
 7    1  0.3041451E-011  0.5052883E+02  0.7816164E-02  0.1300439E+00
        -11   -1    0    0    0    0  0.00000000000E+00  0.00000000000E+00  0.45593999997E+02  0.45594000000E+02  0.51100000000E-03 0.  1.
         11   -1    0    0    0    0 -0.00000000000E+00 -0.00000000000E+00 -0.45593999997E+02  0.45594000000E+02  0.51100000000E-03 0. -1.
    9900012    2    1    2    0    0  0.16603287308E+01  0.93259098864E+01  0.39540343447E+02  0.50528830719E+02  0.29999911454E+02 0.  0.
         12    1    1    2    0    0 -0.16603287308E+01 -0.93259098864E+01 -0.39540343447E+02  0.40659169281E+02  0.00000000000E+00 0. -1.
         11    1    3    3    0    0  0.15097213084E+01 -0.89005130598E+01  0.12009458629E+02  0.15024163470E+02  0.51100000000E-03 0. -1.
        -11    1    3    3    0    0  0.16620277765E+00  0.61702650648E+01  0.20800646685E+02  0.21697158733E+02  0.51100000000E-03 0.  1.
         12    1    3    3    0    0 -0.15595355236E-01  0.12056157881E+02  0.67302381334E+01  0.13807508516E+02  0.00000000000E+00 0. -1.
</event>
<event>
 7    1  0.3041451E-011  0.5052885E+02  0.7816164E-02  0.1300439E+00
        -11   -1    0    0    0    0  0.00000000000E+00  0.00000000000E+00  0.45593999997E+02  0.45594000000E+02  0.51100000000E-03 0.  1.
         11   -1    0    0    0    0 -0.00000000000E+00 -0.00000000000E+00 -0.45593999997E+02  0.45594000000E+02  0.51100000000E-03 0. -1.
    9900012    2    1    2    0    0  0.20053069610E+02  0.37208382131E+01  0.35173801356E+02  0.50528849251E+02  0.29999967784E+02 0.  0.
         12    1    1    2    0    0 -0.20053069610E+02 -0.37208382131E+01 -0.35173801356E+02  0.40659150749E+02  0.00000000000E+00 0. -1.
         11    1    3    3    0    0 -0.48186335187E+01  0.20952461152E+01  0.22028330818E+00  0.52590693348E+01  0.51100000000E-03 0. -1.
        -11    1    3    3    0    0  0.16707243008E+02 -0.57599846404E+01  0.19805916528E+02  0.26543995964E+02  0.51100000000E-03 0.  1.
         12    1    3    3    0    0  0.81644601206E+01  0.73855767382E+01  0.15147601520E+02  0.18725783952E+02  0.00000000000E+00 0. -1.
</event>
<event>
 7    1  0.3041451E-011  0.5052886E+02  0.7816164E-02  0.1300439E+00
        -11   -1    0    0    0    0  0.00000000000E+00  0.00000000000E+00  0.45593999997E+02  0.45594000000E+02  0.51100000000E-03 0.  1.
         11   -1    0    0    0    0 -0.00000000000E+00 -0.00000000000E+00 -0.45593999997E+02  0.45594000000E+02  0.51100000000E-03 0. -1.
    9900012    2    1    2    0    0 -0.23913368468E+02 -0.71053161640E+01  0.32106552049E+02  0.50528863342E+02  0.30000010614E+02 0.  0.
         12    1    1    2    0    0  0.23913368468E+02  0.71053161640E+01 -0.32106552049E+02  0.40659136658E+02  0.00000000000E+00 0. -1.
         11    1    3    3    0    0  0.10897962415E+01 -0.96880315324E+01  0.91642776527E+01  0.13380194168E+02  0.51100000000E-03 0. -1.
        -11    1    3    3    0    0 -0.19651426847E+02  0.70308388375E+01  0.21647415818E+02  0.30070282402E+02  0.51100000000E-03 0.  1.
        -12    1    3    3    0    0 -0.53517378625E+01 -0.44481234691E+01  0.12948585785E+01  0.70783867713E+01  0.00000000000E+00 0.  1.
</event>
<event>
 7    1  0.3041451E-011  0.5052887E+02  0.7816164E-02  0.1300439E+00
        -11   -1    0    0    0    0  0.00000000000E+00  0.00000000000E+00  0.45593999997E+02  0.45594000000E+02  0.51100000000E-03 0.  1.
         11   -1    0    0    0    0 -0.00000000000E+00 -0.00000000000E+00 -0.45593999997E+02  0.45594000000E+02  0.51100000000E-03 0. -1.
    9900012    2    1    2    0    0 -0.38956046816E+02 -0.11079182921E+02  0.35837617217E+01  0.50528865408E+02  0.30000016893E+02 0.  0.
         12    1    1    2    0    0  0.38956046816E+02  0.11079182921E+02 -0.35837617217E+01  0.40659134592E+02  0.00000000000E+00 0. -1.
         11    1    3    3    0    0 -0.10387076932E+01 -0.21608758779E+01  0.23132940825E+01  0.33316104221E+01  0.51100000000E-03 0. -1.
        -11    1    3    3    0    0 -0.27920994010E+02  0.52751378169E+01 -0.47771547351E+01  0.28813715365E+02  0.51100000000E-03 0.  1.
        -12    1    3    3    0    0 -0.99963451126E+01 -0.14193444860E+02  0.60476223743E+01  0.18383539621E+02  0.00000000000E+00 0.  1.
</event>
<event>
 7    1  0.3041451E-011  0.5052887E+02  0.7816164E-02  0.1300439E+00
        -11   -1    0    0    0    0  0.00000000000E+00  0.00000000000E+00  0.45593999997E+02  0.45594000000E+02  0.51100000000E-03 0.  1.
         11   -1    0    0    0    0 -0.00000000000E+00 -0.00000000000E+00 -0.45593999997E+02  0.45594000000E+02  0.51100000000E-03 0. -1.
    9900012    2    1    2    0    0 -0.20564759674E+02  0.35044905398E+02 -0.14527389044E+01  0.50528865908E+02  0.30000018413E+02 0.  0.
         12    1    1    2    0    0  0.20564759674E+02 -0.35044905398E+02  0.14527389044E+01  0.40659134092E+02  0.00000000000E+00 0. -1.
         11    1    3    3    0    0 -0.73029729513E+01  0.10504340866E+01  0.71154570200E+00  0.74123628652E+01  0.51100000000E-03 0. -1.
        -11    1    3    3    0    0 -0.55159248568E+01  0.34810590123E+02 -0.11673358489E+01  0.35264221032E+02  0.51100000000E-03 0.  1.
        -12    1    3    3    0    0 -0.77458618655E+01 -0.81611881125E+00 -0.99694875755E+00  0.78522820109E+01  0.00000000000E+00 0.  1.
</event>
<event>
 7    1  0.3041451E-011  0.5052886E+02  0.7816164E-02  0.1300439E+00
        -11   -1    0    0    0    0  0.00000000000E+00  0.00000000000E+00  0.45593999997E+02  0.45594000000E+02  0.51100000000E-03 0.  1.
         11   -1    0    0    0    0 -0.00000000000E+00 -0.00000000000E+00 -0.45593999997E+02  0.45594000000E+02  0.51100000000E-03 0. -1.
    9900012    2    1    2    0    0  0.60462213684E+01  0.40177051007E+02 -0.15536506808E+01  0.50528855262E+02  0.29999986053E+02 0.  0.
         12    1    1    2    0    0 -0.60462213684E+01 -0.40177051007E+02  0.15536506808E+01  0.40659144738E+02  0.00000000000E+00 0. -1.
         11    1    3    3    0    0  0.44265062007E+00  0.60103671679E+01 -0.94273073100E+00  0.60999339797E+01  0.51100000000E-03 0. -1.
        -11    1    3    3    0    0  0.14463470002E+02  0.29789647144E+02 -0.52212556911E+01  0.33524268116E+02  0.51100000000E-03 0.  1.
        -12    1    3    3    0    0 -0.88598992540E+01  0.43770366947E+01  0.46103357413E+01  0.10904653166E+02  0.00000000000E+00 0.  1.
</event>
<event>
 7    1  0.3041451E-011  0.5052884E+02  0.7816164E-02  0.1300439E+00
        -11   -1    0    0    0    0  0.00000000000E+00  0.00000000000E+00  0.45593999997E+02  0.45594000000E+02  0.51100000000E-03 0.  1.
         11   -1    0    0    0    0 -0.00000000000E+00 -0.00000000000E+00 -0.45593999997E+02  0.45594000000E+02  0.51100000000E-03 0. -1.
    9900012    2    1    2    0    0 -0.38126136238E+01  0.29386250595E+02  0.27840253401E+02  0.50528837981E+02  0.29999933527E+02 0.  0.
         12    1    1    2    0    0  0.38126136238E+01 -0.29386250595E+02 -0.27840253401E+02  0.40659162019E+02  0.00000000000E+00 0. -1.
         11    1    3    3    0    0  0.82595341948E+01  0.11133810791E+02  0.40071655244E+01  0.14430489377E+02  0.51100000000E-03 0. -1.
        -11    1    3    3    0    0 -0.68937309428E+01  0.19949636021E+02  0.15689527467E+02  0.26299672547E+02  0.51100000000E-03 0.  1.
         12    1    3    3    0    0 -0.51784168759E+01 -0.16971962169E+01  0.81435604094E+01  0.97986760576E+01  0.00000000000E+00 0. -1.
</event>
<event>
 7    1  0.3041451E-011  0.5052886E+02  0.7816164E-02  0.1300439E+00
        -11   -1    0    0    0    0  0.00000000000E+00  0.00000000000E+00  0.45593999997E+02  0.45594000000E+02  0.51100000000E-03 0. -1.
         11   -1    0    0    0    0 -0.00000000000E+00 -0.00000000000E+00 -0.45593999997E+02  0.45594000000E+02  0.51100000000E-03 0.  1.
    9900012    2    1    2    0    0 -0.35321448097E+02  0.19409642823E+02 -0.53690834251E+01  0.50528856047E+02  0.29999988441E+02 0.  0.
         12    1    1    2    0    0  0.35321448097E+02 -0.19409642823E+02  0.53690834251E+01  0.40659143953E+02  0.00000000000E+00 0. -1.
         11    1    3    3    0    0 -0.22258687816E+02  0.99829016890E+01 -0.83299185826E+01  0.25777801560E+02  0.51100000000E-03 0.  1.
        -11    1    3    3    0    0 -0.41580157157E+01 -0.30405940137E+01  0.72014861893E+01  0.88541352059E+01  0.51100000000E-03 0. -1.
         12    1    3    3    0    0 -0.89047445651E+01  0.12467335148E+02 -0.42406510318E+01  0.15896919281E+02  0.00000000000E+00 0. -1.
</event>
<event>
 7    1  0.3041451E-011  0.5052885E+02  0.7816164E-02  0.1300439E+00
        -11   -1    0    0    0    0  0.00000000000E+00  0.00000000000E+00  0.45593999997E+02  0.45594000000E+02  0.51100000000E-03 0. -1.
         11   -1    0    0    0    0 -0.00000000000E+00 -0.00000000000E+00 -0.45593999997E+02  0.45594000000E+02  0.51100000000E-03 0.  1.
    9900012    2    1    2    0    0  0.18842967722E+02 -0.16258300076E+02 -0.32152396875E+02  0.50528851230E+02  0.29999973799E+02 0.  0.
         12    1    1    2    0    0 -0.18842967722E+02  0.16258300076E+02  0.32152396875E+02  0.40659148770E+02  0.00000000000E+00 0. -1.
         11    1    3    3    0    0  0.88983363648E+00 -0.15934014957E+01  0.39223156711E+01  0.43261175102E+01  0.51100000000E-03 0. -1.
        -11    1    3    3    0    0  0.12340077473E+02 -0.49027009446E+00 -0.23054742590E+02  0.26154139882E+02  0.51100000000E-03 0.  1.
         12    1    3    3    0    0  0.56130566124E+01 -0.14174628486E+02 -0.13019969956E+02  0.20048593838E+02  0.00000000000E+00 0. -1.
</event>
<event>
 7    1  0.3041451E-011  0.5052887E+02  0.7816164E-02  0.1300439E+00
        -11   -1    0    0    0    0  0.00000000000E+00  0.00000000000E+00  0.45593999997E+02  0.45594000000E+02  0.51100000000E-03 0. -1.
         11   -1    0    0    0    0 -0.00000000000E+00 -0.00000000000E+00 -0.45593999997E+02  0.45594000000E+02  0.51100000000E-03 0.  1.
    9900012    2    1    2    0    0 -0.26273004908E+01 -0.38102584860E+02 -0.13944717281E+02  0.50528870386E+02  0.30000032026E+02 0.  0.
         12    1    1    2    0    0  0.26273004908E+01  0.38102584860E+02  0.13944717281E+02  0.40659129614E+02  0.00000000000E+00 0. -1.
         11    1    3    3    0    0  0.56954714929E+01 -0.14937694802E+02 -0.71664823466E+01  0.17519463206E+02  0.51100000000E-03 0.  1.
        -11    1    3    3    0    0 -0.62852139567E+01  0.99287532934E+00 -0.60115175243E+01  0.87537454331E+01  0.51100000000E-03 0. -1.
        -12    1    3    3    0    0 -0.20375580270E+01 -0.24157765387E+02 -0.76671741037E+00  0.24255661748E+02  0.00000000000E+00 0.  1.
</event>
<event>
 7    1  0.3041451E-011  0.5052886E+02  0.7816164E-02  0.1300439E+00
        -11   -1    0    0    0    0  0.00000000000E+00  0.00000000000E+00  0.45593999997E+02  0.45594000000E+02  0.51100000000E-03 0.  1.
         11   -1    0    0    0    0 -0.00000000000E+00 -0.00000000000E+00 -0.45593999997E+02  0.45594000000E+02  0.51100000000E-03 0. -1.
    9900012    2    1    2    0    0 -0.36461620187E+02 -0.17951610213E+02 -0.12065937520E+01  0.50528856817E+02  0.29999990782E+02 0.  0.
         12    1    1    2    0    0  0.36461620187E+02  0.17951610213E+02  0.12065937520E+01  0.40659143183E+02  0.00000000000E+00 0. -1.
         11    1    3    3    0    0  0.24772997861E+01 -0.87786493774E+01 -0.28448901763E+01  0.95548469113E+01  0.51100000000E-03 0. -1.
        -11    1    3    3    0    0 -0.18103606102E+02 -0.69364782434E+01  0.42780661435E+01  0.19853391008E+02  0.51100000000E-03 0.  1.
         12    1    3    3    0    0 -0.20835313870E+02 -0.22364825919E+01 -0.26397697192E+01  0.21120618898E+02  0.00000000000E+00 0. -1.
</event>
<event>
 7    1  0.3041451E-011  0.5052886E+02  0.7816164E-02  0.1300439E+00
        -11   -1    0    0    0    0  0.00000000000E+00  0.00000000000E+00  0.45593999997E+02  0.45594000000E+02  0.51100000000E-03 0. -1.
         11   -1    0    0    0    0 -0.00000000000E+00 -0.00000000000E+00 -0.45593999997E+02  0.45594000000E+02  0.51100000000E-03 0.  1.
    9900012    2    1    2    0    0 -0.20335743830E+01  0.35399076395E+02 -0.19898132056E+02  0.50528859653E+02  0.29999999401E+02 0.  0.
         12    1    1    2    0    0  0.20335743830E+01 -0.35399076395E+02  0.19898132056E+02  0.40659140347E+02  0.00000000000E+00 0. -1.
         11    1    3    3    0    0  0.23314582241E+01  0.44807706825E+01 -0.14103135056E+02  0.14980367887E+02  0.51100000000E-03 0. -1.
        -11    1    3    3    0    0  0.41396816137E+01  0.19566396063E+02 -0.72873944873E+01  0.21285838894E+02  0.51100000000E-03 0.  1.
         12    1    3    3    0    0 -0.85047142208E+01  0.11351909650E+02  0.14923974870E+01  0.14262652872E+02  0.00000000000E+00 0. -1.
</event>
<event>
 7    1  0.3041451E-011  0.5052885E+02  0.7816164E-02  0.1300439E+00
        -11   -1    0    0    0    0  0.00000000000E+00  0.00000000000E+00  0.45593999997E+02  0.45594000000E+02  0.51100000000E-03 0. -1.
         11   -1    0    0    0    0 -0.00000000000E+00 -0.00000000000E+00 -0.45593999997E+02  0.45594000000E+02  0.51100000000E-03 0.  1.
    9900012    2    1    2    0    0  0.91843921647E+01 -0.90786812538E+01 -0.38553740150E+02  0.50528851063E+02  0.29999973290E+02 0.  0.
         12    1    1    2    0    0 -0.91843921647E+01  0.90786812538E+01  0.38553740150E+02  0.40659148937E+02  0.00000000000E+00 0. -1.
         11    1    3    3    0    0 -0.46239644863E+01 -0.35501232621E+01  0.26708452374E+00  0.58357310725E+01  0.51100000000E-03 0. -1.
        -11    1    3    3    0    0  0.13485770651E+02 -0.21329266037E+01 -0.38956168386E+02  0.41279516004E+02  0.51100000000E-03 0.  1.
        -12    1    3    3    0    0  0.32258600041E+00 -0.33956313880E+01  0.13534371237E+00  0.34136039857E+01  0.00000000000E+00 0.  1.
</event>
<event>
 7    1  0.3041451E-011  0.5052886E+02  0.7816164E-02  0.1300439E+00
        -11   -1    0    0    0    0  0.00000000000E+00  0.00000000000E+00  0.45593999997E+02  0.45594000000E+02  0.51100000000E-03 0. -1.
         11   -1    0    0    0    0 -0.00000000000E+00 -0.00000000000E+00 -0.45593999997E+02  0.45594000000E+02  0.51100000000E-03 0.  1.
    9900012    2    1    2    0    0  0.27880229741E+02  0.10816203382E+02  0.27547559493E+02  0.50528862035E+02  0.30000006642E+02 0.  0.
         12    1    1    2    0    0 -0.27880229741E+02 -0.10816203382E+02 -0.27547559493E+02  0.40659137965E+02  0.00000000000E+00 0. -1.
         11    1    3    3    0    0  0.81379308450E+01 -0.14397927645E+00  0.24401751262E+02  0.25723376788E+02  0.51100000000E-03 0. -1.
        -11    1    3    3    0    0  0.81248969049E+00  0.44104508729E+01  0.14026008845E+01  0.46988834739E+01  0.51100000000E-03 0.  1.
         12    1    3    3    0    0  0.18929809205E+02  0.65497317861E+01  0.17432073473E+01  0.20106601773E+02  0.00000000000E+00 0. -1.
</event>
<event>
 7    1  0.3041451E-011  0.5052886E+02  0.7816164E-02  0.1300439E+00
        -11   -1    0    0    0    0  0.00000000000E+00  0.00000000000E+00  0.45593999997E+02  0.45594000000E+02  0.51100000000E-03 0. -1.
         11   -1    0    0    0    0 -0.00000000000E+00 -0.00000000000E+00 -0.45593999997E+02  0.45594000000E+02  0.51100000000E-03 0.  1.
    9900012    2    1    2    0    0 -0.30078652603E+02 -0.18746657368E+01 -0.27293325726E+02  0.50528863964E+02  0.30000012505E+02 0.  0.
         12    1    1    2    0    0  0.30078652603E+02  0.18746657368E+01  0.27293325726E+02  0.40659136036E+02  0.00000000000E+00 0. -1.
         11    1    3    3    0    0 -0.20563705752E+02  0.41729641037E+01 -0.18894959931E+01  0.21067743568E+02  0.51100000000E-03 0. -1.
        -11    1    3    3    0    0 -0.31509640593E+01 -0.67900745422E+01 -0.81997041323E+01  0.11102649905E+02  0.51100000000E-03 0.  1.
         12    1    3    3    0    0 -0.63639827908E+01  0.74244470180E+00 -0.17204125600E+02  0.18358470491E+02  0.00000000000E+00 0. -1.
</event>
<event>
 7    1  0.3041451E-011  0.5052885E+02  0.7816164E-02  0.1300439E+00
        -11   -1    0    0    0    0  0.00000000000E+00  0.00000000000E+00  0.45593999997E+02  0.45594000000E+02  0.51100000000E-03 0.  1.
         11   -1    0    0    0    0 -0.00000000000E+00 -0.00000000000E+00 -0.45593999997E+02  0.45594000000E+02  0.51100000000E-03 0. -1.
    9900012    2    1    2    0    0  0.12591276424E+02 -0.31535328394E+02  0.22364026712E+02  0.50528845192E+02  0.29999955446E+02 0.  0.
         12    1    1    2    0    0 -0.12591276424E+02  0.31535328394E+02 -0.22364026712E+02  0.40659154808E+02  0.00000000000E+00 0. -1.
         11    1    3    3    0    0  0.19147735190E+02 -0.20117845608E+02  0.63801867955E+01  0.28496846468E+02  0.51100000000E-03 0. -1.
        -11    1    3    3    0    0  0.17310130295E+00 -0.22489065487E+01  0.75312127094E+01  0.78617243568E+01  0.51100000000E-03 0.  1.
         12    1    3    3    0    0 -0.67295600689E+01 -0.91685762377E+01  0.84526272068E+01  0.14170274367E+02  0.00000000000E+00 0. -1.
</event>
<event>
 7    1  0.3041451E-011  0.5052885E+02  0.7816164E-02  0.1300439E+00
        -11   -1    0    0    0    0  0.00000000000E+00  0.00000000000E+00  0.45593999997E+02  0.45594000000E+02  0.51100000000E-03 0.  1.
         11   -1    0    0    0    0 -0.00000000000E+00 -0.00000000000E+00 -0.45593999997E+02  0.45594000000E+02  0.51100000000E-03 0. -1.
    9900012    2    1    2    0    0 -0.36014263913E+01 -0.22267088990E+02  0.33828584410E+02  0.50528847927E+02  0.29999963759E+02 0.  0.
         12    1    1    2    0    0  0.36014263913E+01  0.22267088990E+02 -0.33828584410E+02  0.40659152073E+02  0.00000000000E+00 0. -1.
         11    1    3    3    0    0  0.10404530893E+02 -0.31817175999E+01  0.32105586089E+01  0.11343953316E+02  0.51100000000E-03 0. -1.
        -11    1    3    3    0    0 -0.76751484967E+01 -0.11858167488E+02  0.22693975895E+02  0.26730891920E+02  0.51100000000E-03 0.  1.
         12    1    3    3    0    0 -0.63308087874E+01 -0.72272039015E+01  0.79240499058E+01  0.12454002692E+02  0.00000000000E+00 0. -1.
</event>
<event>
 7    1  0.3041451E-011  0.5052885E+02  0.7816164E-02  0.1300439E+00
        -11   -1    0    0    0    0  0.00000000000E+00  0.00000000000E+00  0.45593999997E+02  0.45594000000E+02  0.51100000000E-03 0. -1.
         11   -1    0    0    0    0 -0.00000000000E+00 -0.00000000000E+00 -0.45593999997E+02  0.45594000000E+02  0.51100000000E-03 0.  1.
    9900012    2    1    2    0    0 -0.29214555286E+02  0.27238221793E+02 -0.75997261081E+01  0.50528846001E+02  0.29999957904E+02 0.  0.
         12    1    1    2    0    0  0.29214555286E+02 -0.27238221793E+02  0.75997261081E+01  0.40659153999E+02  0.00000000000E+00 0. -1.
         11    1    3    3    0    0 -0.17150312705E+02  0.24407809116E+01  0.69653173402E+01  0.18671001131E+02  0.51100000000E-03 0. -1.
        -11    1    3    3    0    0 -0.94277039224E+01  0.13378131852E+02 -0.10538247189E+02  0.19465627839E+02  0.51100000000E-03 0.  1.
         12    1    3    3    0    0 -0.26365386584E+01  0.11419309029E+02 -0.40267962597E+01  0.12392217030E+02  0.00000000000E+00 0. -1.
</event>
<event>
 7    1  0.3041451E-011  0.5052886E+02  0.7816164E-02  0.1300439E+00
        -11   -1    0    0    0    0  0.00000000000E+00  0.00000000000E+00  0.45593999997E+02  0.45594000000E+02  0.51100000000E-03 0. -1.
         11   -1    0    0    0    0 -0.00000000000E+00 -0.00000000000E+00 -0.45593999997E+02  0.45594000000E+02  0.51100000000E-03 0.  1.
    9900012    2    1    2    0    0 -0.16369232419E+01 -0.21217993018E+02 -0.34645098684E+02  0.50528860705E+02  0.30000002600E+02 0.  0.
         12    1    1    2    0    0  0.16369232419E+01  0.21217993018E+02  0.34645098684E+02  0.40659139295E+02  0.00000000000E+00 0. -1.
         11    1    3    3    0    0  0.66415676174E+01  0.31595863339E+01 -0.10242208998E+02  0.12609371579E+02  0.51100000000E-03 0. -1.
        -11    1    3    3    0    0 -0.69597443253E+01 -0.22252898840E+02 -0.26022651161E+02  0.34940061842E+02  0.51100000000E-03 0.  1.
        -12    1    3    3    0    0 -0.13187465340E+01 -0.21246805121E+01  0.16197614754E+01  0.29794272833E+01  0.00000000000E+00 0.  1.
</event>
<event>
 7    1  0.3041451E-011  0.5052886E+02  0.7816164E-02  0.1300439E+00
        -11   -1    0    0    0    0  0.00000000000E+00  0.00000000000E+00  0.45593999997E+02  0.45594000000E+02  0.51100000000E-03 0.  1.
         11   -1    0    0    0    0 -0.00000000000E+00 -0.00000000000E+00 -0.45593999997E+02  0.45594000000E+02  0.51100000000E-03 0. -1.
    9900012    2    1    2    0    0 -0.12202128304E+02  0.25096593911E+02  0.29570847467E+02  0.50528856121E+02  0.29999988664E+02 0.  0.
         12    1    1    2    0    0  0.12202128304E+02 -0.25096593911E+02 -0.29570847467E+02  0.40659143879E+02  0.00000000000E+00 0. -1.
         11    1    3    3    0    0 -0.90334899613E+01  0.27142419297E+02  0.11107741694E+02  0.30687078583E+02  0.51100000000E-03 0. -1.
        -11    1    3    3    0    0  0.57851785583E+00  0.17789953443E+01  0.57646991863E+01  0.60606323362E+01  0.51100000000E-03 0.  1.
         12    1    3    3    0    0 -0.37471561989E+01 -0.38248207308E+01  0.12698406587E+02  0.13781145201E+02  0.00000000000E+00 0. -1.
</event>
<event>
 7    1  0.3041451E-011  0.5052886E+02  0.7816164E-02  0.1300439E+00
        -11   -1    0    0    0    0  0.00000000000E+00  0.00000000000E+00  0.45593999997E+02  0.45594000000E+02  0.51100000000E-03 0. -1.
         11   -1    0    0    0    0 -0.00000000000E+00 -0.00000000000E+00 -0.45593999997E+02  0.45594000000E+02  0.51100000000E-03 0.  1.
    9900012    2    1    2    0    0  0.34125596542E+02 -0.20917445270E+02 -0.71463290484E+01  0.50528857427E+02  0.29999992634E+02 0.  0.
         12    1    1    2    0    0 -0.34125596542E+02  0.20917445270E+02  0.71463290484E+01  0.40659142573E+02  0.00000000000E+00 0. -1.
         11    1    3    3    0    0  0.28734329462E+02 -0.32809073863E+01  0.28787532783E+01  0.29063951273E+02  0.51100000000E-03 0. -1.
        -11    1    3    3    0    0  0.56130567441E+01 -0.13175332571E+02 -0.88904618238E+01  0.16856337267E+02  0.51100000000E-03 0.  1.
         12    1    3    3    0    0 -0.22178966423E+00 -0.44612053125E+01 -0.11346205028E+01  0.46085688864E+01  0.00000000000E+00 0. -1.
</event>
<event>
 7    1  0.3041451E-011  0.5052886E+02  0.7816164E-02  0.1300439E+00
        -11   -1    0    0    0    0  0.00000000000E+00  0.00000000000E+00  0.45593999997E+02  0.45594000000E+02  0.51100000000E-03 0. -1.
         11   -1    0    0    0    0 -0.00000000000E+00 -0.00000000000E+00 -0.45593999997E+02  0.45594000000E+02  0.51100000000E-03 0.  1.
    9900012    2    1    2    0    0  0.35965641198E+02  0.14469280253E+02 -0.12258808827E+02  0.50528858202E+02  0.29999994992E+02 0.  0.
         12    1    1    2    0    0 -0.35965641198E+02 -0.14469280253E+02  0.12258808827E+02  0.40659141798E+02  0.00000000000E+00 0. -1.
         11    1    3    3    0    0  0.25370419809E+02  0.10524967175E+02 -0.11159182041E+02  0.29647267655E+02  0.51100000000E-03 0. -1.
        -11    1    3    3    0    0  0.11247293247E+02 -0.23373842070E+01  0.46001230119E+01  0.12374413210E+02  0.51100000000E-03 0.  1.
         12    1    3    3    0    0 -0.65207185725E+00  0.62816972847E+01 -0.56997497980E+01  0.85071773370E+01  0.00000000000E+00 0. -1.
</event>
<event>
 7    1  0.3041451E-011  0.5052886E+02  0.7816164E-02  0.1300439E+00
        -11   -1    0    0    0    0  0.00000000000E+00  0.00000000000E+00  0.45593999997E+02  0.45594000000E+02  0.51100000000E-03 0.  1.
         11   -1    0    0    0    0 -0.00000000000E+00 -0.00000000000E+00 -0.45593999997E+02  0.45594000000E+02  0.51100000000E-03 0. -1.
    9900012    2    1    2    0    0  0.36255683320E+02  0.18385699353E+02  0.81058324374E+00  0.50528861311E+02  0.30000004441E+02 0.  0.
         12    1    1    2    0    0 -0.36255683320E+02 -0.18385699353E+02 -0.81058324374E+00  0.40659138689E+02  0.00000000000E+00 0. -1.
         11    1    3    3    0    0 -0.25886849196E+00 -0.48412186955E+01 -0.41337511501E+01  0.63712094759E+01  0.51100000000E-03 0. -1.
        -11    1    3    3    0    0  0.17427631355E+02  0.15373545666E+02  0.24574427520E+01  0.23368938062E+02  0.51100000000E-03 0.  1.
         12    1    3    3    0    0  0.19086920457E+02  0.78533723827E+01  0.24868916418E+01  0.20788713774E+02  0.00000000000E+00 0. -1.
</event>
<event>
 7    1  0.3041451E-011  0.5052886E+02  0.7816164E-02  0.1300439E+00
        -11   -1    0    0    0    0  0.00000000000E+00  0.00000000000E+00  0.45593999997E+02  0.45594000000E+02  0.51100000000E-03 0.  1.
         11   -1    0    0    0    0 -0.00000000000E+00 -0.00000000000E+00 -0.45593999997E+02  0.45594000000E+02  0.51100000000E-03 0. -1.
    9900012    2    1    2    0    0  0.39292226198E+02  0.49206252443E+01  0.92235545999E+01  0.50528861398E+02  0.30000004704E+02 0.  0.
         12    1    1    2    0    0 -0.39292226198E+02 -0.49206252443E+01 -0.92235545999E+01  0.40659138602E+02  0.00000000000E+00 0. -1.
         11    1    3    3    0    0  0.77822749747E+01  0.70066374013E+01  0.42611591662E+01  0.11305496414E+02  0.51100000000E-03 0. -1.
        -11    1    3    3    0    0  0.12665801003E+02  0.80866394224E+00 -0.90285763122E+01  0.15575353701E+02  0.51100000000E-03 0.  1.
        -12    1    3    3    0    0  0.18844150221E+02 -0.28946760993E+01  0.13990971746E+02  0.23648011284E+02  0.00000000000E+00 0.  1.
</event>
<event>
 7    1  0.3041451E-011  0.5052886E+02  0.7816164E-02  0.1300439E+00
        -11   -1    0    0    0    0  0.00000000000E+00  0.00000000000E+00  0.45593999997E+02  0.45594000000E+02  0.51100000000E-03 0. -1.
         11   -1    0    0    0    0 -0.00000000000E+00 -0.00000000000E+00 -0.45593999997E+02  0.45594000000E+02  0.51100000000E-03 0.  1.
    9900012    2    1    2    0    0  0.40140246420E+02 -0.64671359645E+01 -0.32016872230E+00  0.50528859105E+02  0.29999997737E+02 0.  0.
         12    1    1    2    0    0 -0.40140246420E+02  0.64671359645E+01  0.32016872230E+00  0.40659140895E+02  0.00000000000E+00 0. -1.
         11    1    3    3    0    0 -0.80781827780E+00 -0.39448529289E+01 -0.78381575279E+01  0.88119889182E+01  0.51100000000E-03 0. -1.
        -11    1    3    3    0    0  0.11481874014E+02 -0.54100407639E+00  0.17729871306E+01  0.11630545985E+02  0.51100000000E-03 0.  1.
         12    1    3    3    0    0  0.29466190684E+02 -0.19812789592E+01  0.57450016751E+01  0.30086324202E+02  0.00000000000E+00 0. -1.
</event>
<event>
 7    1  0.3041451E-011  0.5052886E+02  0.7816164E-02  0.1300439E+00
        -11   -1    0    0    0    0  0.00000000000E+00  0.00000000000E+00  0.45593999997E+02  0.45594000000E+02  0.51100000000E-03 0.  1.
         11   -1    0    0    0    0 -0.00000000000E+00 -0.00000000000E+00 -0.45593999997E+02  0.45594000000E+02  0.51100000000E-03 0. -1.
    9900012    2    1    2    0    0  0.17240643594E+02  0.26890797571E+02  0.25155733489E+02  0.50528859418E+02  0.29999998686E+02 0.  0.
         12    1    1    2    0    0 -0.17240643594E+02 -0.26890797571E+02 -0.25155733489E+02  0.40659140582E+02  0.00000000000E+00 0. -1.
         11    1    3    3    0    0 -0.17040739132E+01  0.96229176643E+01  0.35090158411E+01  0.10383525640E+02  0.51100000000E-03 0. -1.
        -11    1    3    3    0    0  0.13551439546E+02 -0.20724493604E+01  0.94974442433E+01  0.16677470058E+02  0.51100000000E-03 0.  1.
        -12    1    3    3    0    0  0.53932779617E+01  0.19340329267E+02  0.12149273404E+02  0.23467863720E+02  0.00000000000E+00 0.  1.
</event>
<event>
 7    1  0.3041451E-011  0.5052885E+02  0.7816164E-02  0.1300439E+00
        -11   -1    0    0    0    0  0.00000000000E+00  0.00000000000E+00  0.45593999997E+02  0.45594000000E+02  0.51100000000E-03 0. -1.
         11   -1    0    0    0    0 -0.00000000000E+00 -0.00000000000E+00 -0.45593999997E+02  0.45594000000E+02  0.51100000000E-03 0.  1.
    9900012    2    1    2    0    0 -0.16547801174E+02  0.32267494551E+02 -0.18388738586E+02  0.50528848077E+02  0.29999964214E+02 0.  0.
         12    1    1    2    0    0  0.16547801174E+02 -0.32267494551E+02  0.18388738586E+02  0.40659151923E+02  0.00000000000E+00 0. -1.
         11    1    3    3    0    0 -0.12044172145E+01  0.69857836206E+01  0.25978621663E+01  0.75498795829E+01  0.51100000000E-03 0. -1.
        -11    1    3    3    0    0 -0.17672465291E+02  0.24130944674E+02 -0.24462324653E+02  0.38639666769E+02  0.51100000000E-03 0.  1.
        -12    1    3    3    0    0  0.23290813315E+01  0.11507662563E+01  0.34757239003E+01  0.43393017245E+01  0.00000000000E+00 0.  1.
</event>
<event>
 7    1  0.3041451E-011  0.5052885E+02  0.7816164E-02  0.1300439E+00
        -11   -1    0    0    0    0  0.00000000000E+00  0.00000000000E+00  0.45593999997E+02  0.45594000000E+02  0.51100000000E-03 0.  1.
         11   -1    0    0    0    0 -0.00000000000E+00 -0.00000000000E+00 -0.45593999997E+02  0.45594000000E+02  0.51100000000E-03 0. -1.
    9900012    2    1    2    0    0  0.15059619808E+02 -0.28784776027E+02  0.24450167800E+02  0.50528853610E+02  0.29999981034E+02 0.  0.
         12    1    1    2    0    0 -0.15059619808E+02  0.28784776027E+02 -0.24450167800E+02  0.40659146390E+02  0.00000000000E+00 0. -1.
         11    1    3    3    0    0  0.14556525501E+01  0.10741975606E+01 -0.18718949385E+01  0.26032317738E+01  0.51100000000E-03 0. -1.
        -11    1    3    3    0    0  0.17221726874E+02 -0.31515658771E+02  0.22335115667E+02  0.42292812822E+02  0.51100000000E-03 0.  1.
        -12    1    3    3    0    0 -0.36177596163E+01  0.16566851836E+01  0.39869470715E+01  0.56328090142E+01  0.00000000000E+00 0.  1.
</event>
<event>
 7    1  0.3041451E-011  0.5052886E+02  0.7816164E-02  0.1300439E+00
        -11   -1    0    0    0    0  0.00000000000E+00  0.00000000000E+00  0.45593999997E+02  0.45594000000E+02  0.51100000000E-03 0.  1.
         11   -1    0    0    0    0 -0.00000000000E+00 -0.00000000000E+00 -0.45593999997E+02  0.45594000000E+02  0.51100000000E-03 0. -1.
    9900012    2    1    2    0    0 -0.16095875488E+02 -0.37028997041E+02  0.47897365691E+01  0.50528863192E+02  0.30000010158E+02 0.  0.
         12    1    1    2    0    0  0.16095875488E+02  0.37028997041E+02 -0.47897365691E+01  0.40659136808E+02  0.00000000000E+00 0. -1.
         11    1    3    3    0    0 -0.45337972836E+01  0.88643845307E+00 -0.60928432510E+01  0.76461644033E+01  0.51100000000E-03 0. -1.
        -11    1    3    3    0    0 -0.14106439149E+02 -0.32234208427E+02  0.10113808739E+02  0.36610448589E+02  0.51100000000E-03 0.  1.
         12    1    3    3    0    0  0.25443609443E+01 -0.56812270667E+01  0.76877108115E+00  0.62722502002E+01  0.00000000000E+00 0. -1.
</event>
<event>
 7    1  0.3041451E-011  0.5052888E+02  0.7816164E-02  0.1300439E+00
        -11   -1    0    0    0    0  0.00000000000E+00  0.00000000000E+00  0.45593999997E+02  0.45594000000E+02  0.51100000000E-03 0.  1.
         11   -1    0    0    0    0 -0.00000000000E+00 -0.00000000000E+00 -0.45593999997E+02  0.45594000000E+02  0.51100000000E-03 0. -1.
    9900012    2    1    2    0    0  0.13694794619E+02  0.31255110819E+00  0.38282094587E+02  0.50528882279E+02  0.30000068177E+02 0.  0.
         12    1    1    2    0    0 -0.13694794619E+02 -0.31255110819E+00 -0.38282094587E+02  0.40659117721E+02  0.00000000000E+00 0. -1.
         11    1    3    3    0    0  0.59730585178E+01 -0.83325487926E+01  0.21425168414E+02  0.23751771287E+02  0.51100000000E-03 0.  1.
        -11    1    3    3    0    0  0.39597471364E+01  0.12911984382E+02  0.65623702943E+01  0.15015446787E+02  0.51100000000E-03 0. -1.
         12    1    3    3    0    0  0.37619889652E+01 -0.42668844813E+01  0.10294555878E+02  0.11761664205E+02  0.00000000000E+00 0. -1.
</event>
<event>
 7    1  0.3041451E-011  0.5052886E+02  0.7816164E-02  0.1300439E+00
        -11   -1    0    0    0    0  0.00000000000E+00  0.00000000000E+00  0.45593999997E+02  0.45594000000E+02  0.51100000000E-03 0.  1.
         11   -1    0    0    0    0 -0.00000000000E+00 -0.00000000000E+00 -0.45593999997E+02  0.45594000000E+02  0.51100000000E-03 0. -1.
    9900012    2    1    2    0    0 -0.78995531399E+01  0.18131401321E+02  0.35524850410E+02  0.50528860187E+02  0.30000001024E+02 0.  0.
         12    1    1    2    0    0  0.78995531399E+01 -0.18131401321E+02 -0.35524850410E+02  0.40659139813E+02  0.00000000000E+00 0. -1.
         11    1    3    3    0    0 -0.83588264835E+00  0.14333284733E+01 -0.12166885533E+01  0.20575377545E+01  0.51100000000E-03 0. -1.
        -11    1    3    3    0    0 -0.36771074946E+00  0.21514281148E+02  0.33044075573E+02  0.39432352647E+02  0.51100000000E-03 0.  1.
        -12    1    3    3    0    0 -0.66959597421E+01 -0.48162083001E+01  0.36974633902E+01  0.90389697853E+01  0.00000000000E+00 0.  1.
</event>
<event>
 7    1  0.3041451E-011  0.5052886E+02  0.7816164E-02  0.1300439E+00
        -11   -1    0    0    0    0  0.00000000000E+00  0.00000000000E+00  0.45593999997E+02  0.45594000000E+02  0.51100000000E-03 0.  1.
         11   -1    0    0    0    0 -0.00000000000E+00 -0.00000000000E+00 -0.45593999997E+02  0.45594000000E+02  0.51100000000E-03 0. -1.
    9900012    2    1    2    0    0  0.22511428245E+02 -0.80005913667E+01  0.32899725569E+02  0.50528858268E+02  0.29999995192E+02 0.  0.
         12    1    1    2    0    0 -0.22511428245E+02  0.80005913667E+01 -0.32899725569E+02  0.40659141732E+02  0.00000000000E+00 0. -1.
         11    1    3    3    0    0  0.57673217116E+01 -0.12913657962E+01  0.89417544766E+01  0.10718423332E+02  0.51100000000E-03 0. -1.
        -11    1    3    3    0    0  0.16824712589E+01 -0.16778774007E+01 -0.56962993791E+01  0.61720182264E+01  0.51100000000E-03 0.  1.
        -12    1    3    3    0    0  0.15061635274E+02 -0.50313481698E+01  0.29654270472E+02  0.33638416710E+02  0.00000000000E+00 0.  1.
</event>
<event>
 7    1  0.3041451E-011  0.5052886E+02  0.7816164E-02  0.1300439E+00
        -11   -1    0    0    0    0  0.00000000000E+00  0.00000000000E+00  0.45593999997E+02  0.45594000000E+02  0.51100000000E-03 0. -1.
         11   -1    0    0    0    0 -0.00000000000E+00 -0.00000000000E+00 -0.45593999997E+02  0.45594000000E+02  0.51100000000E-03 0.  1.
    9900012    2    1    2    0    0  0.12182313476E+02  0.35710807136E+02  0.15149097409E+02  0.50528860065E+02  0.30000000654E+02 0.  0.
         12    1    1    2    0    0 -0.12182313476E+02 -0.35710807136E+02 -0.15149097409E+02  0.40659139935E+02  0.00000000000E+00 0. -1.
         11    1    3    3    0    0  0.96425497443E+01  0.11409093508E+02  0.11883588014E+02  0.19088369354E+02  0.51100000000E-03 0. -1.
        -11    1    3    3    0    0 -0.83076206530E+01  0.12930786721E+02 -0.96483065484E-01  0.15369811820E+02  0.51100000000E-03 0.  1.
        -12    1    3    3    0    0  0.10847384384E+02  0.11370926907E+02  0.33619924605E+01  0.16070678891E+02  0.00000000000E+00 0.  1.
</event>
<event>
 7    1  0.3041451E-011  0.5052886E+02  0.7816164E-02  0.1300439E+00
        -11   -1    0    0    0    0  0.00000000000E+00  0.00000000000E+00  0.45593999997E+02  0.45594000000E+02  0.51100000000E-03 0.  1.
         11   -1    0    0    0    0 -0.00000000000E+00 -0.00000000000E+00 -0.45593999997E+02  0.45594000000E+02  0.51100000000E-03 0. -1.
    9900012    2    1    2    0    0  0.23737684104E+01 -0.34418623047E+02  0.21514868836E+02  0.50528856256E+02  0.29999989076E+02 0.  0.
         12    1    1    2    0    0 -0.23737684104E+01  0.34418623047E+02 -0.21514868836E+02  0.40659143744E+02  0.00000000000E+00 0. -1.
         11    1    3    3    0    0 -0.18572714856E+01  0.20263981884E+01  0.77029857938E+01  0.81787369068E+01  0.51100000000E-03 0. -1.
        -11    1    3    3    0    0  0.71574055200E+01 -0.18197193537E+02  0.13687559072E+02  0.23868715508E+02  0.51100000000E-03 0.  1.
         12    1    3    3    0    0 -0.29263656240E+01 -0.18247827699E+02  0.12432397048E+00  0.18481403841E+02  0.00000000000E+00 0. -1.
</event>
<event>
 7    1  0.3041451E-011  0.5052886E+02  0.7816164E-02  0.1300439E+00
        -11   -1    0    0    0    0  0.00000000000E+00  0.00000000000E+00  0.45593999997E+02  0.45594000000E+02  0.51100000000E-03 0.  1.
         11   -1    0    0    0    0 -0.00000000000E+00 -0.00000000000E+00 -0.45593999997E+02  0.45594000000E+02  0.51100000000E-03 0. -1.
    9900012    2    1    2    0    0  0.26184902235E+02  0.12570606868E+02  0.28451646555E+02  0.50528862604E+02  0.30000008372E+02 0.  0.
         12    1    1    2    0    0 -0.26184902235E+02 -0.12570606868E+02 -0.28451646555E+02  0.40659137396E+02  0.00000000000E+00 0. -1.
         11    1    3    3    0    0  0.15055881407E+01  0.94693840205E+01  0.21149429392E+02  0.23221420999E+02  0.51100000000E-03 0. -1.
        -11    1    3    3    0    0  0.11629155313E+02 -0.98071041794E+00 -0.27699029464E+00  0.11673721347E+02  0.51100000000E-03 0.  1.
        -12    1    3    3    0    0  0.13050158781E+02  0.40819332654E+01  0.75792074578E+01  0.15633720258E+02  0.00000000000E+00 0.  1.
</event>
<event>
 7    1  0.3041451E-011  0.5052887E+02  0.7816164E-02  0.1300439E+00
        -11   -1    0    0    0    0  0.00000000000E+00  0.00000000000E+00  0.45593999997E+02  0.45594000000E+02  0.51100000000E-03 0. -1.
         11   -1    0    0    0    0 -0.00000000000E+00 -0.00000000000E+00 -0.45593999997E+02  0.45594000000E+02  0.51100000000E-03 0.  1.
    9900012    2    1    2    0    0  0.30229480845E+02  0.27180505572E+02  0.75086157734E+00  0.50528865868E+02  0.30000018292E+02 0.  0.
         12    1    1    2    0    0 -0.30229480845E+02 -0.27180505572E+02 -0.75086157734E+00  0.40659134132E+02  0.00000000000E+00 0. -1.
         11    1    3    3    0    0  0.80515881572E+01 -0.49302671174E+01  0.25118328376E+00  0.94445062870E+01  0.51100000000E-03 0. -1.
        -11    1    3    3    0    0  0.10845143974E+02  0.22511836623E+02 -0.45477516092E+01  0.25398464145E+02  0.51100000000E-03 0.  1.
         12    1    3    3    0    0  0.11332748714E+02  0.95989360657E+01  0.50474299027E+01  0.15685895436E+02  0.00000000000E+00 0. -1.
</event>
<event>
 7    1  0.3041451E-011  0.5052886E+02  0.7816164E-02  0.1300439E+00
        -11   -1    0    0    0    0  0.00000000000E+00  0.00000000000E+00  0.45593999997E+02  0.45594000000E+02  0.51100000000E-03 0.  1.
         11   -1    0    0    0    0 -0.00000000000E+00 -0.00000000000E+00 -0.45593999997E+02  0.45594000000E+02  0.51100000000E-03 0. -1.
    9900012    2    1    2    0    0  0.40664492317E+01  0.26749483860E+02  0.30349547255E+02  0.50528856936E+02  0.29999991141E+02 0.  0.
         12    1    1    2    0    0 -0.40664492317E+01 -0.26749483860E+02 -0.30349547255E+02  0.40659143064E+02  0.00000000000E+00 0. -1.
         11    1    3    3    0    0  0.11877263488E+02  0.34405818256E+01  0.62099742604E+01  0.13837296407E+02  0.51100000000E-03 0. -1.
        -11    1    3    3    0    0 -0.28089374830E+01  0.13103477988E+02  0.20980805239E+02  0.24895490634E+02  0.51100000000E-03 0.  1.
         12    1    3    3    0    0 -0.50018767735E+01  0.10205424047E+02  0.31587677557E+01  0.11796069895E+02  0.00000000000E+00 0. -1.
</event>
<event>
 7    1  0.3041451E-011  0.5052887E+02  0.7816164E-02  0.1300439E+00
        -11   -1    0    0    0    0  0.00000000000E+00  0.00000000000E+00  0.45593999997E+02  0.45594000000E+02  0.51100000000E-03 0. -1.
         11   -1    0    0    0    0 -0.00000000000E+00 -0.00000000000E+00 -0.45593999997E+02  0.45594000000E+02  0.51100000000E-03 0.  1.
    9900012    2    1    2    0    0  0.17671800785E+02  0.32938175980E+02 -0.15998407533E+02  0.50528867896E+02  0.30000024456E+02 0.  0.
         12    1    1    2    0    0 -0.17671800785E+02 -0.32938175980E+02  0.15998407533E+02  0.40659132104E+02  0.00000000000E+00 0. -1.
         11    1    3    3    0    0  0.22437600167E+01  0.11597944836E+02  0.22150825444E+01  0.12018875753E+02  0.51100000000E-03 0. -1.
        -11    1    3    3    0    0  0.20828752820E+02  0.16099084242E+02 -0.15238135009E+02  0.30417399894E+02  0.51100000000E-03 0.  1.
        -12    1    3    3    0    0 -0.54007120524E+01  0.52411469029E+01 -0.29753550683E+01  0.80925922493E+01  0.00000000000E+00 0.  1.
</event>
<event>
 7    1  0.3041451E-011  0.5052888E+02  0.7816164E-02  0.1300439E+00
        -11   -1    0    0    0    0  0.00000000000E+00  0.00000000000E+00  0.45593999997E+02  0.45594000000E+02  0.51100000000E-03 0. -1.
         11   -1    0    0    0    0 -0.00000000000E+00 -0.00000000000E+00 -0.45593999997E+02  0.45594000000E+02  0.51100000000E-03 0.  1.
    9900012    2    1    2    0    0  0.28527900766E+02  0.65417230657E+01  0.28222838811E+02  0.50528881794E+02  0.30000066700E+02 0.  0.
         12    1    1    2    0    0 -0.28527900766E+02 -0.65417230657E+01 -0.28222838811E+02  0.40659118206E+02  0.00000000000E+00 0. -1.
         11    1    3    3    0    0  0.39915764364E+01  0.10815739440E+02  0.12506624466E+02  0.17009660722E+02  0.51100000000E-03 0. -1.
        -11    1    3    3    0    0  0.25807596500E+02 -0.66638800150E+01  0.15427624676E+02  0.30796930648E+02  0.51100000000E-03 0.  1.
        -12    1    3    3    0    0 -0.12712721702E+01  0.23898636405E+01  0.28858966877E+00  0.27222904231E+01  0.00000000000E+00 0.  1.
</event>
<event>
 7    1  0.3041451E-011  0.5052886E+02  0.7816164E-02  0.1300439E+00
        -11   -1    0    0    0    0  0.00000000000E+00  0.00000000000E+00  0.45593999997E+02  0.45594000000E+02  0.51100000000E-03 0.  1.
         11   -1    0    0    0    0 -0.00000000000E+00 -0.00000000000E+00 -0.45593999997E+02  0.45594000000E+02  0.51100000000E-03 0. -1.
    9900012    2    1    2    0    0 -0.38416092384E+02 -0.19043387908E+01  0.13181155645E+02  0.50528861736E+02  0.30000005732E+02 0.  0.
         12    1    1    2    0    0  0.38416092384E+02  0.19043387908E+01 -0.13181155645E+02  0.40659138264E+02  0.00000000000E+00 0. -1.
         11    1    3    3    0    0 -0.80045057277E+01 -0.10735004385E+02  0.39128410193E+01  0.13950726009E+02  0.51100000000E-03 0. -1.
        -11    1    3    3    0    0 -0.23421755514E+02  0.12985883674E+02  0.45138263956E+01  0.27158542581E+02  0.51100000000E-03 0.  1.
        -12    1    3    3    0    0 -0.69898311421E+01 -0.41552180804E+01  0.47544882299E+01  0.94195931451E+01  0.00000000000E+00 0.  1.
</event>
<event>
 7    1  0.3041451E-011  0.5052889E+02  0.7816164E-02  0.1300439E+00
        -11   -1    0    0    0    0  0.00000000000E+00  0.00000000000E+00  0.45593999997E+02  0.45594000000E+02  0.51100000000E-03 0.  1.
         11   -1    0    0    0    0 -0.00000000000E+00 -0.00000000000E+00 -0.45593999997E+02  0.45594000000E+02  0.51100000000E-03 0. -1.
    9900012    2    1    2    0    0  0.91506079102E+01 -0.19409660070E+02  0.34535416082E+02  0.50528886715E+02  0.30000081659E+02 0.  0.
         12    1    1    2    0    0 -0.91506079102E+01  0.19409660070E+02 -0.34535416082E+02  0.40659113285E+02  0.00000000000E+00 0. -1.
         11    1    3    3    0    0  0.59180811348E+01  0.64801911355E+01  0.72566116805E+01  0.11387492034E+02  0.51100000000E-03 0. -1.
        -11    1    3    3    0    0  0.61093870024E+01 -0.13168429101E+02  0.18053167147E+02  0.23165685373E+02  0.51100000000E-03 0.  1.
         12    1    3    3    0    0 -0.28768602270E+01 -0.12721422105E+02  0.92256372550E+01  0.15975709308E+02  0.00000000000E+00 0. -1.
</event>
<event>
 7    1  0.3041451E-011  0.5052886E+02  0.7816164E-02  0.1300439E+00
        -11   -1    0    0    0    0  0.00000000000E+00  0.00000000000E+00  0.45593999997E+02  0.45594000000E+02  0.51100000000E-03 0.  1.
         11   -1    0    0    0    0 -0.00000000000E+00 -0.00000000000E+00 -0.45593999997E+02  0.45594000000E+02  0.51100000000E-03 0. -1.
    9900012    2    1    2    0    0  0.53368949195E+01 -0.32326731522E+02  0.24076240264E+02  0.50528863714E+02  0.30000011746E+02 0.  0.
         12    1    1    2    0    0 -0.53368949195E+01  0.32326731522E+02 -0.24076240264E+02  0.40659136286E+02  0.00000000000E+00 0. -1.
         11    1    3    3    0    0 -0.61068884093E+01 -0.25351520007E+00  0.81920963917E+00  0.61668031179E+01  0.51100000000E-03 0. -1.
        -11    1    3    3    0    0  0.15268515472E+01 -0.22884186889E+02  0.20058701441E+02  0.30469144868E+02  0.51100000000E-03 0.  1.
        -12    1    3    3    0    0  0.99169317815E+01 -0.91890294328E+01  0.31983291838E+01  0.13892915729E+02  0.00000000000E+00 0.  1.
</event>
<event>
 7    1  0.3041451E-011  0.5052886E+02  0.7816164E-02  0.1300439E+00
        -11   -1    0    0    0    0  0.00000000000E+00  0.00000000000E+00  0.45593999997E+02  0.45594000000E+02  0.51100000000E-03 0. -1.
         11   -1    0    0    0    0 -0.00000000000E+00 -0.00000000000E+00 -0.45593999997E+02  0.45594000000E+02  0.51100000000E-03 0.  1.
    9900012    2    1    2    0    0  0.30958176050E+02 -0.20955887339E+02 -0.15987732056E+02  0.50528862592E+02  0.30000008333E+02 0.  0.
         12    1    1    2    0    0 -0.30958176050E+02  0.20955887339E+02  0.15987732056E+02  0.40659137408E+02  0.00000000000E+00 0. -1.
         11    1    3    3    0    0 -0.25683673231E+00  0.56729543559E+01 -0.44788951735E+01  0.72324877094E+01  0.51100000000E-03 0. -1.
        -11    1    3    3    0    0  0.61171921213E+01 -0.96705239776E+01 -0.34801826504E+01  0.11960382310E+02  0.51100000000E-03 0.  1.
        -12    1    3    3    0    0  0.25097820661E+02 -0.16958317717E+02 -0.80286542325E+01  0.31335992573E+02  0.00000000000E+00 0.  1.
</event>
<event>
 7    1  0.3041451E-011  0.5052882E+02  0.7816164E-02  0.1300439E+00
        -11   -1    0    0    0    0  0.00000000000E+00  0.00000000000E+00  0.45593999997E+02  0.45594000000E+02  0.51100000000E-03 0.  1.
         11   -1    0    0    0    0 -0.00000000000E+00 -0.00000000000E+00 -0.45593999997E+02  0.45594000000E+02  0.51100000000E-03 0. -1.
    9900012    2    1    2    0    0 -0.18913071674E+02  0.33465062336E+02  0.13249685781E+02  0.50528820833E+02  0.29999881403E+02 0.  0.
         12    1    1    2    0    0  0.18913071674E+02 -0.33465062336E+02 -0.13249685781E+02  0.40659179167E+02  0.00000000000E+00 0. -1.
         11    1    3    3    0    0 -0.99350233572E+01  0.15221135436E+00  0.26557576968E+01  0.10284984522E+02  0.51100000000E-03 0. -1.
        -11    1    3    3    0    0 -0.10407260142E+02  0.24994945946E+02  0.14754439179E+02  0.30834264419E+02  0.51100000000E-03 0.  1.
         12    1    3    3    0    0  0.14292118251E+01  0.83179050356E+01 -0.41605110952E+01  0.94095718923E+01  0.00000000000E+00 0. -1.
</event>
<event>
 7    1  0.3041451E-011  0.5052886E+02  0.7816164E-02  0.1300439E+00
        -11   -1    0    0    0    0  0.00000000000E+00  0.00000000000E+00  0.45593999997E+02  0.45594000000E+02  0.51100000000E-03 0. -1.
         11   -1    0    0    0    0 -0.00000000000E+00 -0.00000000000E+00 -0.45593999997E+02  0.45594000000E+02  0.51100000000E-03 0.  1.
    9900012    2    1    2    0    0  0.20424620564E+02 -0.25451330228E+02 -0.24253464609E+02  0.50528857349E+02  0.29999992399E+02 0.  0.
         12    1    1    2    0    0 -0.20424620564E+02  0.25451330228E+02  0.24253464609E+02  0.40659142651E+02  0.00000000000E+00 0. -1.
         11    1    3    3    0    0  0.81303765772E-01 -0.25922728132E-01 -0.45488799247E+00  0.46282354843E+00  0.51100000000E-03 0. -1.
        -11    1    3    3    0    0 -0.20268458488E+01 -0.90461153381E+01 -0.20048458869E+02  0.22088028660E+02  0.51100000000E-03 0.  1.
        -12    1    3    3    0    0  0.22370162647E+02 -0.16379292162E+02 -0.37501177479E+01  0.27978005141E+02  0.00000000000E+00 0.  1.
</event>
<event>
 7    1  0.3041451E-011  0.5052884E+02  0.7816164E-02  0.1300439E+00
        -11   -1    0    0    0    0  0.00000000000E+00  0.00000000000E+00  0.45593999997E+02  0.45594000000E+02  0.51100000000E-03 0.  1.
         11   -1    0    0    0    0 -0.00000000000E+00 -0.00000000000E+00 -0.45593999997E+02  0.45594000000E+02  0.51100000000E-03 0. -1.
    9900012    2    1    2    0    0  0.29246844287E+02 -0.22261070859E+02  0.17384889678E+02  0.50528836633E+02  0.29999929430E+02 0.  0.
         12    1    1    2    0    0 -0.29246844287E+02  0.22261070859E+02 -0.17384889678E+02  0.40659163367E+02  0.00000000000E+00 0. -1.
         11    1    3    3    0    0  0.30762167844E+02 -0.25885029688E+02  0.20535866998E+02  0.45144961690E+02  0.51100000000E-03 0.  1.
        -11    1    3    3    0    0 -0.13540608700E+01  0.19591041758E+01 -0.27981877072E+01  0.36744284885E+01  0.51100000000E-03 0. -1.
        -12    1    3    3    0    0 -0.16126268648E+00  0.16648546528E+01 -0.35278961317E+00  0.17094464543E+01  0.00000000000E+00 0.  1.
</event>
<event>
 7    1  0.3041451E-011  0.5052887E+02  0.7816164E-02  0.1300439E+00
        -11   -1    0    0    0    0  0.00000000000E+00  0.00000000000E+00  0.45593999997E+02  0.45594000000E+02  0.51100000000E-03 0. -1.
         11   -1    0    0    0    0 -0.00000000000E+00 -0.00000000000E+00 -0.45593999997E+02  0.45594000000E+02  0.51100000000E-03 0.  1.
    9900012    2    1    2    0    0 -0.36917688374E+02  0.11512936924E+02  0.12557934371E+02  0.50528866374E+02  0.30000019831E+02 0.  0.
         12    1    1    2    0    0  0.36917688374E+02 -0.11512936924E+02 -0.12557934371E+02  0.40659133626E+02  0.00000000000E+00 0. -1.
         11    1    3    3    0    0  0.27498987386E+01 -0.51938801240E+00  0.71912094743E+01  0.77165536961E+01  0.51100000000E-03 0. -1.
        -11    1    3    3    0    0 -0.16744965895E+02  0.48232865885E+01  0.68809787960E+01  0.18735150007E+02  0.51100000000E-03 0.  1.
         12    1    3    3    0    0 -0.22922621218E+02  0.72090383484E+01 -0.15142538988E+01  0.24077162671E+02  0.00000000000E+00 0. -1.
</event>
<event>
 7    1  0.3041451E-011  0.5052886E+02  0.7816164E-02  0.1300439E+00
        -11   -1    0    0    0    0  0.00000000000E+00  0.00000000000E+00  0.45593999997E+02  0.45594000000E+02  0.51100000000E-03 0. -1.
         11   -1    0    0    0    0 -0.00000000000E+00 -0.00000000000E+00 -0.45593999997E+02  0.45594000000E+02  0.51100000000E-03 0.  1.
    9900012    2    1    2    0    0 -0.33571362226E+02  0.66449253382E+00 -0.22927882231E+02  0.50528859630E+02  0.29999999331E+02 0.  0.
         12    1    1    2    0    0  0.33571362226E+02 -0.66449253382E+00  0.22927882231E+02  0.40659140370E+02  0.00000000000E+00 0. -1.
         11    1    3    3    0    0 -0.17937107844E+02  0.94471498338E+00 -0.90020764313E+00  0.17984512734E+02  0.51100000000E-03 0. -1.
        -11    1    3    3    0    0 -0.13429661432E+02 -0.64627545213E+00 -0.25259587837E+02  0.28615035490E+02  0.51100000000E-03 0.  1.
        -12    1    3    3    0    0 -0.22045929495E+01  0.36605300257E+00  0.32319132490E+01  0.39293114057E+01  0.00000000000E+00 0.  1.
</event>
<event>
 7    1  0.3041451E-011  0.5052889E+02  0.7816164E-02  0.1300439E+00
        -11   -1    0    0    0    0  0.00000000000E+00  0.00000000000E+00  0.45593999997E+02  0.45594000000E+02  0.51100000000E-03 0.  1.
         11   -1    0    0    0    0 -0.00000000000E+00 -0.00000000000E+00 -0.45593999997E+02  0.45594000000E+02  0.51100000000E-03 0. -1.
    9900012    2    1    2    0    0 -0.94909539405E+01 -0.36286382615E+02 -0.15696617108E+02  0.50528885909E+02  0.30000079209E+02 0.  0.
         12    1    1    2    0    0  0.94909539405E+01  0.36286382615E+02  0.15696617108E+02  0.40659114091E+02  0.00000000000E+00 0. -1.
         11    1    3    3    0    0 -0.11053587586E+02 -0.10420994685E+02 -0.95377174760E+01  0.17937307035E+02  0.51100000000E-03 0. -1.
        -11    1    3    3    0    0  0.21789450599E+00 -0.25321040767E+02  0.94642978475E+00  0.25339658900E+02  0.51100000000E-03 0.  1.
        -12    1    3    3    0    0  0.13447391398E+01 -0.54434716256E+00 -0.71053294172E+01  0.72519199743E+01  0.00000000000E+00 0.  1.
</event>
<event>
 7    1  0.3041451E-011  0.5052891E+02  0.7816164E-02  0.1300439E+00
        -11   -1    0    0    0    0  0.00000000000E+00  0.00000000000E+00  0.45593999997E+02  0.45594000000E+02  0.51100000000E-03 0. -1.
         11   -1    0    0    0    0 -0.00000000000E+00 -0.00000000000E+00 -0.45593999997E+02  0.45594000000E+02  0.51100000000E-03 0.  1.
    9900012    2    1    2    0    0  0.28977898833E+02 -0.25285741361E+02 -0.13193734011E+02  0.50528905641E+02  0.30000139188E+02 0.  0.
         12    1    1    2    0    0 -0.28977898833E+02  0.25285741361E+02  0.13193734011E+02  0.40659094359E+02  0.00000000000E+00 0. -1.
         11    1    3    3    0    0  0.70536969252E+01 -0.12651131483E+01 -0.10409173984E+02  0.12637486098E+02  0.51100000000E-03 0.  1.
        -11    1    3    3    0    0  0.24418156527E+02 -0.23418677237E+02  0.35744923674E+00  0.33835020052E+02  0.51100000000E-03 0. -1.
        -12    1    3    3    0    0 -0.24939546197E+01 -0.60195097563E+00 -0.31420092637E+01  0.40563994916E+01  0.00000000000E+00 0.  1.
</event>
<event>
 7    1  0.3041451E-011  0.5052886E+02  0.7816164E-02  0.1300439E+00
        -11   -1    0    0    0    0  0.00000000000E+00  0.00000000000E+00  0.45593999997E+02  0.45594000000E+02  0.51100000000E-03 0.  1.
         11   -1    0    0    0    0 -0.00000000000E+00 -0.00000000000E+00 -0.45593999997E+02  0.45594000000E+02  0.51100000000E-03 0. -1.
    9900012    2    1    2    0    0 -0.89320844757E+01  0.15943488013E+02  0.36320640595E+02  0.50528857408E+02  0.29999992576E+02 0.  0.
         12    1    1    2    0    0  0.89320844757E+01 -0.15943488013E+02 -0.36320640595E+02  0.40659142592E+02  0.00000000000E+00 0. -1.
         11    1    3    3    0    0  0.73222032908E+01  0.16484252771E+02  0.23638394940E+02  0.29734138058E+02  0.51100000000E-03 0. -1.
        -11    1    3    3    0    0 -0.61311356131E+01  0.86967596835E+00  0.57005230865E+01  0.84168357426E+01  0.51100000000E-03 0.  1.
         12    1    3    3    0    0 -0.10123152153E+02 -0.14104407266E+01  0.69817225684E+01  0.12377883607E+02  0.00000000000E+00 0. -1.
</event>
<event>
 7    1  0.3041451E-011  0.5052886E+02  0.7816164E-02  0.1300439E+00
        -11   -1    0    0    0    0  0.00000000000E+00  0.00000000000E+00  0.45593999997E+02  0.45594000000E+02  0.51100000000E-03 0.  1.
         11   -1    0    0    0    0 -0.00000000000E+00 -0.00000000000E+00 -0.45593999997E+02  0.45594000000E+02  0.51100000000E-03 0. -1.
    9900012    2    1    2    0    0  0.37445528394E+02  0.88414103544E+01  0.13146380208E+02  0.50528862695E+02  0.30000008649E+02 0.  0.
         12    1    1    2    0    0 -0.37445528394E+02 -0.88414103544E+01 -0.13146380208E+02  0.40659137305E+02  0.00000000000E+00 0. -1.
         11    1    3    3    0    0  0.66338569365E+00 -0.47672829549E+00 -0.10634523119E+01  0.13410001965E+01  0.51100000000E-03 0. -1.
        -11    1    3    3    0    0  0.21851310721E+02  0.16531871386E+02  0.77580386557E-01  0.27400521359E+02  0.51100000000E-03 0.  1.
        -12    1    3    3    0    0  0.14930831980E+02 -0.72137327363E+01  0.14132252134E+02  0.21787341140E+02  0.00000000000E+00 0.  1.
</event>
<event>
 7    1  0.3041451E-011  0.5052878E+02  0.7816164E-02  0.1300439E+00
        -11   -1    0    0    0    0  0.00000000000E+00  0.00000000000E+00  0.45593999997E+02  0.45594000000E+02  0.51100000000E-03 0.  1.
         11   -1    0    0    0    0 -0.00000000000E+00 -0.00000000000E+00 -0.45593999997E+02  0.45594000000E+02  0.51100000000E-03 0. -1.
    9900012    2    1    2    0    0  0.94488253299E+01 -0.19632550208E+02  0.34328635581E+02  0.50528775356E+02  0.29999743172E+02 0.  0.
         12    1    1    2    0    0 -0.94488253299E+01  0.19632550208E+02 -0.34328635581E+02  0.40659224644E+02  0.00000000000E+00 0. -1.
         11    1    3    3    0    0  0.82324361057E+01 -0.18445717138E+02  0.14486004704E+02  0.24856826377E+02  0.51100000000E-03 0. -1.
        -11    1    3    3    0    0  0.60230017849E+01  0.44938430093E+01  0.48776211828E+01  0.89589265070E+01  0.51100000000E-03 0.  1.
         12    1    3    3    0    0 -0.48066125608E+01 -0.56806760788E+01  0.14965009694E+02  0.16713022473E+02  0.00000000000E+00 0. -1.
</event>
<event>
 7    1  0.3041451E-011  0.5052881E+02  0.7816164E-02  0.1300439E+00
        -11   -1    0    0    0    0  0.00000000000E+00  0.00000000000E+00  0.45593999997E+02  0.45594000000E+02  0.51100000000E-03 0.  1.
         11   -1    0    0    0    0 -0.00000000000E+00 -0.00000000000E+00 -0.45593999997E+02  0.45594000000E+02  0.51100000000E-03 0. -1.
    9900012    2    1    2    0    0  0.25996907907E+02  0.29261895149E+02 -0.11003280025E+02  0.50528807931E+02  0.29999842187E+02 0.  0.
         12    1    1    2    0    0 -0.25996907907E+02 -0.29261895149E+02  0.11003280025E+02  0.40659192069E+02  0.00000000000E+00 0. -1.
         11    1    3    3    0    0  0.65865818806E+00  0.98140623289E+01 -0.13366290947E+02  0.16595402494E+02  0.51100000000E-03 0. -1.
        -11    1    3    3    0    0  0.16201582731E+02  0.10578936460E+02  0.67078598430E+01  0.20479271558E+02  0.51100000000E-03 0.  1.
        -12    1    3    3    0    0  0.91366669875E+01  0.88688963594E+01 -0.43448489207E+01  0.13454133878E+02  0.00000000000E+00 0.  1.
</event>
<event>
 7    1  0.3041451E-011  0.5052886E+02  0.7816164E-02  0.1300439E+00
        -11   -1    0    0    0    0  0.00000000000E+00  0.00000000000E+00  0.45593999997E+02  0.45594000000E+02  0.51100000000E-03 0.  1.
         11   -1    0    0    0    0 -0.00000000000E+00 -0.00000000000E+00 -0.45593999997E+02  0.45594000000E+02  0.51100000000E-03 0. -1.
    9900012    2    1    2    0    0 -0.65061630019E+01 -0.26922800086E+00  0.40134309723E+02  0.50528862556E+02  0.30000008226E+02 0.  0.
         12    1    1    2    0    0  0.65061630019E+01  0.26922800086E+00 -0.40134309723E+02  0.40659137444E+02  0.00000000000E+00 0. -1.
         11    1    3    3    0    0 -0.26119342399E+01 -0.22565979721E+01  0.64964827093E+00  0.35123322762E+01  0.51100000000E-03 0. -1.
        -11    1    3    3    0    0  0.20023416515E+01  0.24126344916E+01  0.40832705312E+02  0.40952899783E+02  0.51100000000E-03 0.  1.
        -12    1    3    3    0    0 -0.58965704135E+01 -0.42526452033E+00 -0.13480438600E+01  0.60636304968E+01  0.00000000000E+00 0.  1.
</event>
<event>
 7    1  0.3041451E-011  0.5052888E+02  0.7816164E-02  0.1300439E+00
        -11   -1    0    0    0    0  0.00000000000E+00  0.00000000000E+00  0.45593999997E+02  0.45594000000E+02  0.51100000000E-03 0. -1.
         11   -1    0    0    0    0 -0.00000000000E+00 -0.00000000000E+00 -0.45593999997E+02  0.45594000000E+02  0.51100000000E-03 0.  1.
    9900012    2    1    2    0    0  0.11552221425E+01  0.34228425179E+02  0.21914486381E+02  0.50528876279E+02  0.30000049937E+02 0.  0.
         12    1    1    2    0    0 -0.11552221425E+01 -0.34228425179E+02 -0.21914486381E+02  0.40659123721E+02  0.00000000000E+00 0. -1.
         11    1    3    3    0    0 -0.56860897607E+01 -0.33977383648E+01  0.51059878517E+01  0.83634535310E+01  0.51100000000E-03 0. -1.
        -11    1    3    3    0    0  0.68575193940E+01  0.21998458227E+02  0.99615041348E+01  0.25103571488E+02  0.51100000000E-03 0.  1.
         12    1    3    3    0    0 -0.16207490795E-01  0.15627705317E+02  0.68469943947E+01  0.17061851259E+02  0.00000000000E+00 0. -1.
</event>
<event>
 7    1  0.3041451E-011  0.5052886E+02  0.7816164E-02  0.1300439E+00
        -11   -1    0    0    0    0  0.00000000000E+00  0.00000000000E+00  0.45593999997E+02  0.45594000000E+02  0.51100000000E-03 0. -1.
         11   -1    0    0    0    0 -0.00000000000E+00 -0.00000000000E+00 -0.45593999997E+02  0.45594000000E+02  0.51100000000E-03 0.  1.
    9900012    2    1    2    0    0 -0.22335305709E+02 -0.30789490112E+02 -0.14363392235E+02  0.50528860573E+02  0.30000002198E+02 0.  0.
         12    1    1    2    0    0  0.22335305709E+02  0.30789490112E+02  0.14363392235E+02  0.40659139427E+02  0.00000000000E+00 0. -1.
         11    1    3    3    0    0 -0.23393929810E+01 -0.14927569843E+01  0.44832304968E+01  0.52726121498E+01  0.51100000000E-03 0. -1.
        -11    1    3    3    0    0 -0.26848099735E+01 -0.16107457165E+02 -0.16749459263E+02  0.23392365566E+02  0.51100000000E-03 0.  1.
        -12    1    3    3    0    0 -0.17311102754E+02 -0.13189275962E+02 -0.20971634686E+01  0.21863882857E+02  0.00000000000E+00 0.  1.
</event>
<event>
 7    1  0.3041451E-011  0.5052886E+02  0.7816164E-02  0.1300439E+00
        -11   -1    0    0    0    0  0.00000000000E+00  0.00000000000E+00  0.45593999997E+02  0.45594000000E+02  0.51100000000E-03 0. -1.
         11   -1    0    0    0    0 -0.00000000000E+00 -0.00000000000E+00 -0.45593999997E+02  0.45594000000E+02  0.51100000000E-03 0.  1.
    9900012    2    1    2    0    0  0.28238685140E+02  0.16856794190E+02  0.23907970888E+02  0.50528856861E+02  0.29999990915E+02 0.  0.
         12    1    1    2    0    0 -0.28238685140E+02 -0.16856794190E+02 -0.23907970888E+02  0.40659143139E+02  0.00000000000E+00 0. -1.
         11    1    3    3    0    0  0.13275047661E+01  0.63490046876E+00  0.72063021627E+01  0.73550090844E+01  0.51100000000E-03 0. -1.
        -11    1    3    3    0    0  0.15468664334E+02  0.18986352104E+02  0.23360729640E+01  0.24601186550E+02  0.51100000000E-03 0.  1.
        -12    1    3    3    0    0  0.11442516040E+02 -0.27644583829E+01  0.14365595761E+02  0.18572661227E+02  0.00000000000E+00 0.  1.
</event>
<event>
 7    1  0.3041451E-011  0.5052886E+02  0.7816164E-02  0.1300439E+00
        -11   -1    0    0    0    0  0.00000000000E+00  0.00000000000E+00  0.45593999997E+02  0.45594000000E+02  0.51100000000E-03 0. -1.
         11   -1    0    0    0    0 -0.00000000000E+00 -0.00000000000E+00 -0.45593999997E+02  0.45594000000E+02  0.51100000000E-03 0.  1.
    9900012    2    1    2    0    0 -0.19123329205E+02 -0.31725098811E+02 -0.16762507960E+02  0.50528864648E+02  0.30000014584E+02 0.  0.
         12    1    1    2    0    0  0.19123329205E+02  0.31725098811E+02  0.16762507960E+02  0.40659135352E+02  0.00000000000E+00 0. -1.
         11    1    3    3    0    0  0.24609758398E+01 -0.26401397396E+01  0.57285887557E+01  0.67707805548E+01  0.51100000000E-03 0. -1.
        -11    1    3    3    0    0 -0.13221762921E+02 -0.22051365263E+02 -0.19939130019E+02  0.32536850353E+02  0.51100000000E-03 0.  1.
         12    1    3    3    0    0 -0.83625421238E+01 -0.70335938081E+01 -0.25519666971E+01  0.11221233740E+02  0.00000000000E+00 0. -1.
</event>
<event>
 7    1  0.3041451E-011  0.5052887E+02  0.7816164E-02  0.1300439E+00
        -11   -1    0    0    0    0  0.00000000000E+00  0.00000000000E+00  0.45593999997E+02  0.45594000000E+02  0.51100000000E-03 0. -1.
         11   -1    0    0    0    0 -0.00000000000E+00 -0.00000000000E+00 -0.45593999997E+02  0.45594000000E+02  0.51100000000E-03 0.  1.
    9900012    2    1    2    0    0  0.16733015014E+02 -0.26444654396E+02 -0.25958653804E+02  0.50528865173E+02  0.30000016179E+02 0.  0.
         12    1    1    2    0    0 -0.16733015014E+02  0.26444654396E+02  0.25958653804E+02  0.40659134827E+02  0.00000000000E+00 0. -1.
         11    1    3    3    0    0  0.64010205654E+01 -0.14037513485E+02 -0.11931886696E+02  0.19503711685E+02  0.51100000000E-03 0. -1.
        -11    1    3    3    0    0  0.11376309291E+02  0.12900247492E+00 -0.14507382257E+02  0.18436409491E+02  0.51100000000E-03 0.  1.
        -12    1    3    3    0    0 -0.10443148419E+01 -0.12536143386E+02  0.48061514875E+00  0.12588743997E+02  0.00000000000E+00 0.  1.
</event>
<event>
 7    1  0.3041451E-011  0.5052885E+02  0.7816164E-02  0.1300439E+00
        -11   -1    0    0    0    0  0.00000000000E+00  0.00000000000E+00  0.45593999997E+02  0.45594000000E+02  0.51100000000E-03 0.  1.
         11   -1    0    0    0    0 -0.00000000000E+00 -0.00000000000E+00 -0.45593999997E+02  0.45594000000E+02  0.51100000000E-03 0. -1.
    9900012    2    1    2    0    0 -0.49298150716E+01  0.21588990179E+02  0.34099538490E+02  0.50528854672E+02  0.29999984260E+02 0.  0.
         12    1    1    2    0    0  0.49298150716E+01 -0.21588990179E+02 -0.34099538490E+02  0.40659145328E+02  0.00000000000E+00 0. -1.
         11    1    3    3    0    0  0.31917817017E+01 -0.31196034515E+01  0.10389361686E+02  0.11307441471E+02  0.51100000000E-03 0. -1.
        -11    1    3    3    0    0 -0.92460996307E+01  0.21578352328E+02  0.26116025910E+02  0.35116412931E+02  0.51100000000E-03 0.  1.
        -12    1    3    3    0    0  0.11245028573E+01  0.31302413028E+01 -0.24058491056E+01  0.41050002690E+01  0.00000000000E+00 0.  1.
</event>
<event>
 7    1  0.3041451E-011  0.5052886E+02  0.7816164E-02  0.1300439E+00
        -11   -1    0    0    0    0  0.00000000000E+00  0.00000000000E+00  0.45593999997E+02  0.45594000000E+02  0.51100000000E-03 0. -1.
         11   -1    0    0    0    0 -0.00000000000E+00 -0.00000000000E+00 -0.45593999997E+02  0.45594000000E+02  0.51100000000E-03 0.  1.
    9900012    2    1    2    0    0  0.26796294481E+02  0.22294866020E+02 -0.20929954370E+02  0.50528862790E+02  0.30000008935E+02 0.  0.
         12    1    1    2    0    0 -0.26796294481E+02 -0.22294866020E+02  0.20929954370E+02  0.40659137210E+02  0.00000000000E+00 0. -1.
         11    1    3    3    0    0  0.11266046849E+02 -0.40778157566E+01 -0.12209056833E+02  0.17105948146E+02  0.51100000000E-03 0. -1.
        -11    1    3    3    0    0  0.66970962314E+01  0.20696314163E+02 -0.63150976902E+01  0.22651025958E+02  0.51100000000E-03 0.  1.
         12    1    3    3    0    0  0.88331514005E+01  0.56763676142E+01 -0.24057998460E+01  0.10771888686E+02  0.00000000000E+00 0. -1.
</event>
<event>
 7    1  0.3041451E-011  0.5052886E+02  0.7816164E-02  0.1300439E+00
        -11   -1    0    0    0    0  0.00000000000E+00  0.00000000000E+00  0.45593999997E+02  0.45594000000E+02  0.51100000000E-03 0.  1.
         11   -1    0    0    0    0 -0.00000000000E+00 -0.00000000000E+00 -0.45593999997E+02  0.45594000000E+02  0.51100000000E-03 0. -1.
    9900012    2    1    2    0    0 -0.32310600514E+02  0.21458674774E+02  0.12194930556E+02  0.50528856380E+02  0.29999989454E+02 0.  0.
         12    1    1    2    0    0  0.32310600514E+02 -0.21458674774E+02 -0.12194930556E+02  0.40659143620E+02  0.00000000000E+00 0. -1.
         11    1    3    3    0    0  0.51408160609E+01  0.68321407979E+01  0.54500799639E+00  0.85675650935E+01  0.51100000000E-03 0. -1.
        -11    1    3    3    0    0 -0.26937218302E+02  0.10949004220E+02  0.97033035377E+01  0.30653686941E+02  0.51100000000E-03 0.  1.
         12    1    3    3    0    0 -0.10514198273E+02  0.36775297562E+01  0.19466190216E+01  0.11307604346E+02  0.00000000000E+00 0. -1.
</event>
<event>
 7    1  0.3041451E-011  0.5052887E+02  0.7816164E-02  0.1300439E+00
        -11   -1    0    0    0    0  0.00000000000E+00  0.00000000000E+00  0.45593999997E+02  0.45594000000E+02  0.51100000000E-03 0. -1.
         11   -1    0    0    0    0 -0.00000000000E+00 -0.00000000000E+00 -0.45593999997E+02  0.45594000000E+02  0.51100000000E-03 0.  1.
    9900012    2    1    2    0    0 -0.39577253778E+02 -0.76770228575E+01  0.52791162111E+01  0.50528871080E+02  0.30000034135E+02 0.  0.
         12    1    1    2    0    0  0.39577253778E+02  0.76770228575E+01 -0.52791162111E+01  0.40659128920E+02  0.00000000000E+00 0. -1.
         11    1    3    3    0    0  0.27699166986E+01 -0.50887633106E+01  0.32480317363E+01  0.66421126887E+01  0.51100000000E-03 0. -1.
        -11    1    3    3    0    0 -0.29605098288E+02 -0.17529265177E+01  0.64945183011E+01  0.30359732612E+02  0.51100000000E-03 0.  1.
         12    1    3    3    0    0 -0.12742072188E+02 -0.83533302924E+00 -0.44634338264E+01  0.13527025779E+02  0.00000000000E+00 0. -1.
</event>
<event>
 7    1  0.3041451E-011  0.5052886E+02  0.7816164E-02  0.1300439E+00
        -11   -1    0    0    0    0  0.00000000000E+00  0.00000000000E+00  0.45593999997E+02  0.45594000000E+02  0.51100000000E-03 0. -1.
         11   -1    0    0    0    0 -0.00000000000E+00 -0.00000000000E+00 -0.45593999997E+02  0.45594000000E+02  0.51100000000E-03 0.  1.
    9900012    2    1    2    0    0  0.20883678464E+02  0.26736990476E+02 -0.22409180805E+02  0.50528855023E+02  0.29999985329E+02 0.  0.
         12    1    1    2    0    0 -0.20883678464E+02 -0.26736990476E+02  0.22409180805E+02  0.40659144977E+02  0.00000000000E+00 0. -1.
         11    1    3    3    0    0  0.10236416369E+02  0.20340694200E+02 -0.77654978081E+00  0.22784448434E+02  0.51100000000E-03 0. -1.
        -11    1    3    3    0    0  0.54834306199E+01  0.95964285885E+01 -0.16092779848E+02  0.19522730765E+02  0.51100000000E-03 0.  1.
         12    1    3    3    0    0  0.51638314751E+01 -0.32001323124E+01 -0.55398511757E+01  0.82216758248E+01  0.00000000000E+00 0. -1.
</event>
<event>
 7    1  0.3041451E-011  0.5052886E+02  0.7816164E-02  0.1300439E+00
        -11   -1    0    0    0    0  0.00000000000E+00  0.00000000000E+00  0.45593999997E+02  0.45594000000E+02  0.51100000000E-03 0.  1.
         11   -1    0    0    0    0 -0.00000000000E+00 -0.00000000000E+00 -0.45593999997E+02  0.45594000000E+02  0.51100000000E-03 0. -1.
    9900012    2    1    2    0    0  0.24546382581E+02  0.24605748603E+02  0.21099709700E+02  0.50528861893E+02  0.30000006211E+02 0.  0.
         12    1    1    2    0    0 -0.24546382581E+02 -0.24605748603E+02 -0.21099709700E+02  0.40659138107E+02  0.00000000000E+00 0. -1.
         11    1    3    3    0    0  0.60210180442E+01 -0.14768533227E+01  0.91467363905E+01  0.11049730353E+02  0.51100000000E-03 0. -1.
        -11    1    3    3    0    0  0.22251516474E+02  0.18986957701E+02  0.70673772906E+01  0.30092895676E+02  0.51100000000E-03 0.  1.
        -12    1    3    3    0    0 -0.37261519373E+01  0.70956442249E+01  0.48855960191E+01  0.93862358637E+01  0.00000000000E+00 0.  1.
</event>
<event>
 7    1  0.3041451E-011  0.5052886E+02  0.7816164E-02  0.1300439E+00
        -11   -1    0    0    0    0  0.00000000000E+00  0.00000000000E+00  0.45593999997E+02  0.45594000000E+02  0.51100000000E-03 0.  1.
         11   -1    0    0    0    0 -0.00000000000E+00 -0.00000000000E+00 -0.45593999997E+02  0.45594000000E+02  0.51100000000E-03 0. -1.
    9900012    2    1    2    0    0 -0.15360478408E+02 -0.14489355020E+02  0.34745933893E+02  0.50528860463E+02  0.30000001862E+02 0.  0.
         12    1    1    2    0    0  0.15360478408E+02  0.14489355020E+02 -0.34745933893E+02  0.40659139537E+02  0.00000000000E+00 0. -1.
         11    1    3    3    0    0 -0.22214065310E+01 -0.18118602194E+02  0.94237350746E+01  0.20543251336E+02  0.51100000000E-03 0. -1.
        -11    1    3    3    0    0  0.27276390499E+00  0.19106305443E+01  0.10396538412E+01  0.21922111201E+01  0.51100000000E-03 0.  1.
         12    1    3    3    0    0 -0.13411835782E+02  0.17186166299E+01  0.24282544977E+02  0.27793398006E+02  0.00000000000E+00 0. -1.
</event>
<event>
 7    1  0.3041451E-011  0.5052886E+02  0.7816164E-02  0.1300439E+00
        -11   -1    0    0    0    0  0.00000000000E+00  0.00000000000E+00  0.45593999997E+02  0.45594000000E+02  0.51100000000E-03 0. -1.
         11   -1    0    0    0    0 -0.00000000000E+00 -0.00000000000E+00 -0.45593999997E+02  0.45594000000E+02  0.51100000000E-03 0.  1.
    9900012    2    1    2    0    0 -0.26388421403E+02  0.81864009319E+01 -0.29829509877E+02  0.50528860759E+02  0.30000002762E+02 0.  0.
         12    1    1    2    0    0  0.26388421403E+02 -0.81864009319E+01  0.29829509877E+02  0.40659139241E+02  0.00000000000E+00 0. -1.
         11    1    3    3    0    0 -0.55317966539E+01  0.61110540786E+01  0.16037035366E+01  0.83974770894E+01  0.51100000000E-03 0. -1.
        -11    1    3    3    0    0 -0.21380754805E+02  0.69370697889E+01 -0.28935687217E+02  0.36640600545E+02  0.51100000000E-03 0.  1.
         12    1    3    3    0    0  0.52413005658E+00 -0.48617229355E+01 -0.24975261970E+01  0.54907831247E+01  0.00000000000E+00 0. -1.
</event>
<event>
 7    1  0.3041451E-011  0.5052891E+02  0.7816164E-02  0.1300439E+00
        -11   -1    0    0    0    0  0.00000000000E+00  0.00000000000E+00  0.45593999997E+02  0.45594000000E+02  0.51100000000E-03 0.  1.
         11   -1    0    0    0    0 -0.00000000000E+00 -0.00000000000E+00 -0.45593999997E+02  0.45594000000E+02  0.51100000000E-03 0. -1.
    9900012    2    1    2    0    0  0.28529778348E+02  0.16266692599E+02  0.23970991230E+02  0.50528905553E+02  0.30000138920E+02 0.  0.
         12    1    1    2    0    0 -0.28529778348E+02 -0.16266692599E+02 -0.23970991230E+02  0.40659094447E+02  0.00000000000E+00 0. -1.
         11    1    3    3    0    0  0.15217075650E+02  0.47871956946E+01 -0.98508862411E+00  0.15982710465E+02  0.51100000000E-03 0. -1.
        -11    1    3    3    0    0  0.16722601360E+02  0.11575715229E+02  0.22579158636E+02  0.30388500856E+02  0.51100000000E-03 0.  1.
         12    1    3    3    0    0 -0.34098986621E+01 -0.96218324907E-01  0.23769212185E+01  0.41576942325E+01  0.00000000000E+00 0. -1.
</event>
<event>
 7    1  0.3041451E-011  0.5052883E+02  0.7816164E-02  0.1300439E+00
        -11   -1    0    0    0    0  0.00000000000E+00  0.00000000000E+00  0.45593999997E+02  0.45594000000E+02  0.51100000000E-03 0.  1.
         11   -1    0    0    0    0 -0.00000000000E+00 -0.00000000000E+00 -0.45593999997E+02  0.45594000000E+02  0.51100000000E-03 0. -1.
    9900012    2    1    2    0    0 -0.31633711566E+02 -0.13781349100E+02  0.21506993227E+02  0.50528830701E+02  0.29999911399E+02 0.  0.
         12    1    1    2    0    0  0.31633711566E+02  0.13781349100E+02 -0.21506993227E+02  0.40659169299E+02  0.00000000000E+00 0. -1.
         11    1    3    3    0    0 -0.14559191268E+02  0.53359851807E+01  0.92788436639E+01  0.18070410295E+02  0.51100000000E-03 0. -1.
        -11    1    3    3    0    0 -0.16919760467E+02 -0.21411013365E+02  0.12718772057E+02  0.30107755653E+02  0.51100000000E-03 0.  1.
        -12    1    3    3    0    0 -0.15475983074E+00  0.22936790848E+01 -0.49062249380E+00  0.23506647529E+01  0.00000000000E+00 0.  1.
</event>
<event>
 7    1  0.3041451E-011  0.5052886E+02  0.7816164E-02  0.1300439E+00
        -11   -1    0    0    0    0  0.00000000000E+00  0.00000000000E+00  0.45593999997E+02  0.45594000000E+02  0.51100000000E-03 0.  1.
         11   -1    0    0    0    0 -0.00000000000E+00 -0.00000000000E+00 -0.45593999997E+02  0.45594000000E+02  0.51100000000E-03 0. -1.
    9900012    2    1    2    0    0  0.18201551380E+02  0.30645701762E+02  0.19562975899E+02  0.50528861603E+02  0.30000005329E+02 0.  0.
         12    1    1    2    0    0 -0.18201551380E+02 -0.30645701762E+02 -0.19562975899E+02  0.40659138397E+02  0.00000000000E+00 0. -1.
         11    1    3    3    0    0  0.78223815389E+01  0.17323325552E+02  0.34243610275E+01  0.19313557669E+02  0.51100000000E-03 0. -1.
        -11    1    3    3    0    0  0.12072649702E+02 -0.64192171663E+00  0.10664179219E+02  0.16120969357E+02  0.51100000000E-03 0.  1.
        -12    1    3    3    0    0 -0.16934798608E+01  0.13964297927E+02  0.54744356520E+01  0.15094334578E+02  0.00000000000E+00 0.  1.
</event>
<event>
 7    1  0.3041451E-011  0.5052888E+02  0.7816164E-02  0.1300439E+00
        -11   -1    0    0    0    0  0.00000000000E+00  0.00000000000E+00  0.45593999997E+02  0.45594000000E+02  0.51100000000E-03 0.  1.
         11   -1    0    0    0    0 -0.00000000000E+00 -0.00000000000E+00 -0.45593999997E+02  0.45594000000E+02  0.51100000000E-03 0. -1.
    9900012    2    1    2    0    0 -0.30659228866E+02  0.50420270466E+01  0.26225063319E+02  0.50528876823E+02  0.30000051593E+02 0.  0.
         12    1    1    2    0    0  0.30659228866E+02 -0.50420270466E+01 -0.26225063319E+02  0.40659123177E+02  0.00000000000E+00 0. -1.
         11    1    3    3    0    0 -0.99461546172E+01  0.11407120612E+02  0.64500495628E+01  0.16451490266E+02  0.51100000000E-03 0. -1.
        -11    1    3    3    0    0 -0.11642133465E+01 -0.67497787150E+01  0.91352677172E+00  0.69100967317E+01  0.51100000000E-03 0.  1.
        -12    1    3    3    0    0 -0.19548860903E+02  0.38468514933E+00  0.18861486984E+02  0.27167289826E+02  0.00000000000E+00 0.  1.
</event>
<event>
 7    1  0.3041451E-011  0.5052885E+02  0.7816164E-02  0.1300439E+00
        -11   -1    0    0    0    0  0.00000000000E+00  0.00000000000E+00  0.45593999997E+02  0.45594000000E+02  0.51100000000E-03 0.  1.
         11   -1    0    0    0    0 -0.00000000000E+00 -0.00000000000E+00 -0.45593999997E+02  0.45594000000E+02  0.51100000000E-03 0. -1.
    9900012    2    1    2    0    0 -0.12612725975E+02  0.28963251525E+02  0.25597184003E+02  0.50528848209E+02  0.29999964617E+02 0.  0.
         12    1    1    2    0    0  0.12612725975E+02 -0.28963251525E+02 -0.25597184003E+02  0.40659151791E+02  0.00000000000E+00 0. -1.
         11    1    3    3    0    0  0.18114727236E+01  0.37725905661E+01  0.83373675531E+01  0.93287497010E+01  0.51100000000E-03 0.  1.
        -11    1    3    3    0    0 -0.18375028726E+01  0.99019279249E+00 -0.53673478521E+01  0.57589340854E+01  0.51100000000E-03 0. -1.
        -12    1    3    3    0    0 -0.12586695826E+02  0.24200468167E+02  0.22627164302E+02  0.35441164423E+02  0.00000000000E+00 0.  1.
</event>
<event>
 7    1  0.3041451E-011  0.5052886E+02  0.7816164E-02  0.1300439E+00
        -11   -1    0    0    0    0  0.00000000000E+00  0.00000000000E+00  0.45593999997E+02  0.45594000000E+02  0.51100000000E-03 0.  1.
         11   -1    0    0    0    0 -0.00000000000E+00 -0.00000000000E+00 -0.45593999997E+02  0.45594000000E+02  0.51100000000E-03 0. -1.
    9900012    2    1    2    0    0  0.19444617598E+02 -0.23805157815E+02  0.26615543968E+02  0.50528857450E+02  0.29999992706E+02 0.  0.
         12    1    1    2    0    0 -0.19444617598E+02  0.23805157815E+02 -0.26615543968E+02  0.40659142550E+02  0.00000000000E+00 0. -1.
         11    1    3    3    0    0 -0.45207698517E+00  0.54191532650E+01  0.90440702031E+01  0.10553047039E+02  0.51100000000E-03 0. -1.
        -11    1    3    3    0    0  0.12801181194E+02 -0.22519718331E+02  0.14774195079E+02  0.29820878494E+02  0.51100000000E-03 0.  1.
        -12    1    3    3    0    0  0.70955133892E+01 -0.67045927497E+01  0.27972786862E+01  0.10154931917E+02  0.00000000000E+00 0.  1.
</event>
<event>
 7    1  0.3041451E-011  0.5052882E+02  0.7816164E-02  0.1300439E+00
        -11   -1    0    0    0    0  0.00000000000E+00  0.00000000000E+00  0.45593999997E+02  0.45594000000E+02  0.51100000000E-03 0.  1.
         11   -1    0    0    0    0 -0.00000000000E+00 -0.00000000000E+00 -0.45593999997E+02  0.45594000000E+02  0.51100000000E-03 0. -1.
    9900012    2    1    2    0    0  0.98673064587E+01  0.22009626288E+02  0.32731962778E+02  0.50528821782E+02  0.29999884288E+02 0.  0.
         12    1    1    2    0    0 -0.98673064587E+01 -0.22009626288E+02 -0.32731962778E+02  0.40659178218E+02  0.00000000000E+00 0. -1.
         11    1    3    3    0    0  0.65729226506E+01  0.20021145129E+02  0.41101612243E+01  0.21469582902E+02  0.51100000000E-03 0. -1.
        -11    1    3    3    0    0  0.11866413600E+01 -0.69759881024E+00  0.12765567691E+02  0.12839566993E+02  0.51100000000E-03 0.  1.
         12    1    3    3    0    0  0.21077424481E+01  0.26860799689E+01  0.15856233862E+02  0.16219671887E+02  0.00000000000E+00 0. -1.
</event>
<event>
 7    1  0.3041451E-011  0.5052885E+02  0.7816164E-02  0.1300439E+00
        -11   -1    0    0    0    0  0.00000000000E+00  0.00000000000E+00  0.45593999997E+02  0.45594000000E+02  0.51100000000E-03 0. -1.
         11   -1    0    0    0    0 -0.00000000000E+00 -0.00000000000E+00 -0.45593999997E+02  0.45594000000E+02  0.51100000000E-03 0.  1.
    9900012    2    1    2    0    0  0.24935336005E+01 -0.36726299111E+02 -0.17266374008E+02  0.50528850629E+02  0.29999971971E+02 0.  0.
         12    1    1    2    0    0 -0.24935336005E+01  0.36726299111E+02  0.17266374008E+02  0.40659149371E+02  0.00000000000E+00 0. -1.
         11    1    3    3    0    0  0.30158020614E+01 -0.95993011611E+01 -0.15092480318E+02  0.18139035456E+02  0.51100000000E-03 0. -1.
        -11    1    3    3    0    0 -0.86039879412E+01 -0.18988415110E+02 -0.14829990183E+01  0.20899468970E+02  0.51100000000E-03 0.  1.
         12    1    3    3    0    0  0.80817194802E+01 -0.81385828399E+01 -0.69089467104E+00  0.11490346202E+02  0.00000000000E+00 0. -1.
</event>
<event>
 7    1  0.3041451E-011  0.5052883E+02  0.7816164E-02  0.1300439E+00
        -11   -1    0    0    0    0  0.00000000000E+00  0.00000000000E+00  0.45593999997E+02  0.45594000000E+02  0.51100000000E-03 0. -1.
         11   -1    0    0    0    0 -0.00000000000E+00 -0.00000000000E+00 -0.45593999997E+02  0.45594000000E+02  0.51100000000E-03 0.  1.
    9900012    2    1    2    0    0  0.21570931263E+02 -0.19315772968E+02 -0.28544072994E+02  0.50528828046E+02  0.29999903328E+02 0.  0.
         12    1    1    2    0    0 -0.21570931263E+02  0.19315772968E+02  0.28544072994E+02  0.40659171954E+02  0.00000000000E+00 0. -1.
         11    1    3    3    0    0 -0.37039737299E+01 -0.70219467181E+01 -0.83657265038E+00  0.79829199648E+01  0.51100000000E-03 0. -1.
        -11    1    3    3    0    0  0.11275582236E+02 -0.13944160638E+02 -0.12821250085E+02  0.22044564515E+02  0.51100000000E-03 0.  1.
         12    1    3    3    0    0  0.13999322757E+02  0.16503343880E+01 -0.14886250258E+02  0.20501343566E+02  0.00000000000E+00 0. -1.
</event>
<event>
 7    1  0.3041451E-011  0.5052884E+02  0.7816164E-02  0.1300439E+00
        -11   -1    0    0    0    0  0.00000000000E+00  0.00000000000E+00  0.45593999997E+02  0.45594000000E+02  0.51100000000E-03 0.  1.
         11   -1    0    0    0    0 -0.00000000000E+00 -0.00000000000E+00 -0.45593999997E+02  0.45594000000E+02  0.51100000000E-03 0. -1.
    9900012    2    1    2    0    0 -0.18419420855E+02 -0.98184556513E+00  0.36234345732E+02  0.50528844869E+02  0.29999954463E+02 0.  0.
         12    1    1    2    0    0  0.18419420855E+02  0.98184556513E+00 -0.36234345732E+02  0.40659155131E+02  0.00000000000E+00 0. -1.
         11    1    3    3    0    0 -0.10592420984E+02  0.32589368621E+01  0.15522376858E+01  0.11190598459E+02  0.51100000000E-03 0. -1.
        -11    1    3    3    0    0 -0.12888564615E+02 -0.40075944067E+01  0.25082331462E+02  0.28483315512E+02  0.51100000000E-03 0.  1.
         12    1    3    3    0    0  0.50615647441E+01 -0.23318802047E+00  0.95997765849E+01  0.10854930898E+02  0.00000000000E+00 0. -1.
</event>
<event>
 7    1  0.3041451E-011  0.5052887E+02  0.7816164E-02  0.1300439E+00
        -11   -1    0    0    0    0  0.00000000000E+00  0.00000000000E+00  0.45593999997E+02  0.45594000000E+02  0.51100000000E-03 0. -1.
         11   -1    0    0    0    0 -0.00000000000E+00 -0.00000000000E+00 -0.45593999997E+02  0.45594000000E+02  0.51100000000E-03 0.  1.
    9900012    2    1    2    0    0 -0.10399148110E+02 -0.34146546644E+02 -0.19468849629E+02  0.50528867754E+02  0.30000024024E+02 0.  0.
         12    1    1    2    0    0  0.10399148110E+02  0.34146546644E+02  0.19468849629E+02  0.40659132246E+02  0.00000000000E+00 0. -1.
         11    1    3    3    0    0 -0.11536378590E+02 -0.33695491519E+02 -0.65187542618E+01  0.36207296738E+02  0.51100000000E-03 0. -1.
        -11    1    3    3    0    0  0.86532315259E+00 -0.30949237962E+01 -0.90354815333E+01  0.95899564265E+01  0.51100000000E-03 0.  1.
         12    1    3    3    0    0  0.27190732819E+00  0.26438686711E+01 -0.39146138341E+01  0.47316145887E+01  0.00000000000E+00 0. -1.
</event>
<event>
 7    1  0.3041451E-011  0.5052886E+02  0.7816164E-02  0.1300439E+00
        -11   -1    0    0    0    0  0.00000000000E+00  0.00000000000E+00  0.45593999997E+02  0.45594000000E+02  0.51100000000E-03 0. -1.
         11   -1    0    0    0    0 -0.00000000000E+00 -0.00000000000E+00 -0.45593999997E+02  0.45594000000E+02  0.51100000000E-03 0.  1.
    9900012    2    1    2    0    0  0.18299902698E+02 -0.10338976538E+02 -0.34804957531E+02  0.50528856584E+02  0.29999990072E+02 0.  0.
         12    1    1    2    0    0 -0.18299902698E+02  0.10338976538E+02  0.34804957531E+02  0.40659143416E+02  0.00000000000E+00 0. -1.
         11    1    3    3    0    0  0.32842846393E+01  0.25311953389E+01 -0.19364949687E+02  0.19803907495E+02  0.51100000000E-03 0.  1.
        -11    1    3    3    0    0  0.63711062306E+01 -0.15802531190E+02 -0.74590597180E+01  0.18599692437E+02  0.51100000000E-03 0. -1.
         12    1    3    3    0    0  0.86445118281E+01  0.29323593127E+01 -0.79809481261E+01  0.12125256652E+02  0.00000000000E+00 0. -1.
</event>
<event>
 7    1  0.3041451E-011  0.5052886E+02  0.7816164E-02  0.1300439E+00
        -11   -1    0    0    0    0  0.00000000000E+00  0.00000000000E+00  0.45593999997E+02  0.45594000000E+02  0.51100000000E-03 0.  1.
         11   -1    0    0    0    0 -0.00000000000E+00 -0.00000000000E+00 -0.45593999997E+02  0.45594000000E+02  0.51100000000E-03 0. -1.
    9900012    2    1    2    0    0  0.22144219109E+00  0.40658102348E+02  0.18874238991E+00  0.50528856541E+02  0.29999989941E+02 0.  0.
         12    1    1    2    0    0 -0.22144219109E+00 -0.40658102348E+02 -0.18874238991E+00  0.40659143459E+02  0.00000000000E+00 0. -1.
         11    1    3    3    0    0 -0.73294684608E+01  0.48386569437E+01  0.84529115410E+01  0.12189562040E+02  0.51100000000E-03 0. -1.
        -11    1    3    3    0    0  0.82989842108E+01  0.28499760664E+02 -0.43358470975E+01  0.29998484414E+02  0.51100000000E-03 0.  1.
         12    1    3    3    0    0 -0.74807355894E+00  0.73196847406E+01 -0.39283220537E+01  0.83408100870E+01  0.00000000000E+00 0. -1.
</event>
<event>
 7    1  0.3041451E-011  0.5052885E+02  0.7816164E-02  0.1300439E+00
        -11   -1    0    0    0    0  0.00000000000E+00  0.00000000000E+00  0.45593999997E+02  0.45594000000E+02  0.51100000000E-03 0.  1.
         11   -1    0    0    0    0 -0.00000000000E+00 -0.00000000000E+00 -0.45593999997E+02  0.45594000000E+02  0.51100000000E-03 0. -1.
    9900012    2    1    2    0    0  0.14596352362E+02 -0.21687406101E+02  0.31141126047E+02  0.50528845838E+02  0.29999957410E+02 0.  0.
         12    1    1    2    0    0 -0.14596352362E+02  0.21687406101E+02 -0.31141126047E+02  0.40659154162E+02  0.00000000000E+00 0. -1.
         11    1    3    3    0    0  0.17499442970E+02 -0.46935901032E+01  0.17852315067E+02  0.25435515443E+02  0.51100000000E-03 0.  1.
        -11    1    3    3    0    0 -0.77023916472E+01 -0.87911137220E+01  0.61508540413E+01  0.13207706965E+02  0.51100000000E-03 0. -1.
         12    1    3    3    0    0  0.47993010390E+01 -0.82027022754E+01  0.71379569384E+01  0.11885623431E+02  0.00000000000E+00 0. -1.
</event>
<event>
 7    1  0.3041451E-011  0.5052885E+02  0.7816164E-02  0.1300439E+00
        -11   -1    0    0    0    0  0.00000000000E+00  0.00000000000E+00  0.45593999997E+02  0.45594000000E+02  0.51100000000E-03 0.  1.
         11   -1    0    0    0    0 -0.00000000000E+00 -0.00000000000E+00 -0.45593999997E+02  0.45594000000E+02  0.51100000000E-03 0. -1.
    9900012    2    1    2    0    0 -0.14723195642E+02  0.37720953430E+02  0.36773980739E+01  0.50528854974E+02  0.29999985180E+02 0.  0.
         12    1    1    2    0    0  0.14723195642E+02 -0.37720953430E+02 -0.36773980739E+01  0.40659145026E+02  0.00000000000E+00 0. -1.
         11    1    3    3    0    0 -0.97436633621E+00  0.22843751461E+01 -0.18002745267E+01  0.30673682854E+01  0.51100000000E-03 0. -1.
        -11    1    3    3    0    0 -0.13514091763E+02  0.24876401470E+02  0.16027808478E+02  0.32532394181E+02  0.51100000000E-03 0.  1.
        -12    1    3    3    0    0 -0.23473754306E+00  0.10560176814E+02 -0.10550135878E+02  0.14929092507E+02  0.00000000000E+00 0.  1.
</event>
<event>
 7    1  0.3041451E-011  0.5052886E+02  0.7816164E-02  0.1300439E+00
        -11   -1    0    0    0    0  0.00000000000E+00  0.00000000000E+00  0.45593999997E+02  0.45594000000E+02  0.51100000000E-03 0.  1.
         11   -1    0    0    0    0 -0.00000000000E+00 -0.00000000000E+00 -0.45593999997E+02  0.45594000000E+02  0.51100000000E-03 0. -1.
    9900012    2    1    2    0    0 -0.21367734753E+02 -0.21319501206E+02  0.27240858526E+02  0.50528860888E+02  0.30000003154E+02 0.  0.
         12    1    1    2    0    0  0.21367734753E+02  0.21319501206E+02 -0.27240858526E+02  0.40659139112E+02  0.00000000000E+00 0. -1.
         11    1    3    3    0    0  0.14069511029E+00  0.16166595588E+01 -0.32903772592E+01  0.36687826336E+01  0.51100000000E-03 0. -1.
        -11    1    3    3    0    0 -0.14187246357E+02 -0.15417176187E+02  0.29681474667E+02  0.36331215496E+02  0.51100000000E-03 0.  1.
         12    1    3    3    0    0 -0.73211835064E+01 -0.75189845781E+01  0.84976111786E+00  0.10528862758E+02  0.00000000000E+00 0. -1.
</event>
<event>
 7    1  0.3041451E-011  0.5052883E+02  0.7816164E-02  0.1300439E+00
        -11   -1    0    0    0    0  0.00000000000E+00  0.00000000000E+00  0.45593999997E+02  0.45594000000E+02  0.51100000000E-03 0.  1.
         11   -1    0    0    0    0 -0.00000000000E+00 -0.00000000000E+00 -0.45593999997E+02  0.45594000000E+02  0.51100000000E-03 0. -1.
    9900012    2    1    2    0    0  0.80216690319E+01  0.14676769068E+02  0.37059590925E+02  0.50528831244E+02  0.29999913050E+02 0.  0.
         12    1    1    2    0    0 -0.80216690319E+01 -0.14676769068E+02 -0.37059590925E+02  0.40659168756E+02  0.00000000000E+00 0. -1.
         11    1    3    3    0    0  0.48979362671E+01 -0.13472947776E+01 -0.11888721790E+00  0.50812515512E+01  0.51100000000E-03 0. -1.
        -11    1    3    3    0    0 -0.66895921577E+01  0.13129928052E+02  0.15022147593E+02  0.21043064711E+02  0.51100000000E-03 0.  1.
        -12    1    3    3    0    0  0.98133249224E+01  0.28941357940E+01  0.22156330551E+02  0.24404514982E+02  0.00000000000E+00 0.  1.
</event>
<event>
 7    1  0.3041451E-011  0.5052886E+02  0.7816164E-02  0.1300439E+00
        -11   -1    0    0    0    0  0.00000000000E+00  0.00000000000E+00  0.45593999997E+02  0.45594000000E+02  0.51100000000E-03 0.  1.
         11   -1    0    0    0    0 -0.00000000000E+00 -0.00000000000E+00 -0.45593999997E+02  0.45594000000E+02  0.51100000000E-03 0. -1.
    9900012    2    1    2    0    0 -0.37017235328E+02  0.94181191741E+01  0.13935171231E+02  0.50528859854E+02  0.30000000013E+02 0.  0.
         12    1    1    2    0    0  0.37017235328E+02 -0.94181191741E+01 -0.13935171231E+02  0.40659140146E+02  0.00000000000E+00 0. -1.
         11    1    3    3    0    0 -0.37121562763E+01 -0.69390393620E+01  0.26435485615E+01  0.83017299851E+01  0.51100000000E-03 0. -1.
        -11    1    3    3    0    0 -0.24599482795E+02  0.67145993932E+01  0.77216299154E+00  0.25511108066E+02  0.51100000000E-03 0.  1.
         12    1    3    3    0    0 -0.87055962571E+01  0.96425591429E+01  0.10519459678E+02  0.16716021804E+02  0.00000000000E+00 0. -1.
</event>
<event>
 7    1  0.3041451E-011  0.5052885E+02  0.7816164E-02  0.1300439E+00
        -11   -1    0    0    0    0  0.00000000000E+00  0.00000000000E+00  0.45593999997E+02  0.45594000000E+02  0.51100000000E-03 0. -1.
         11   -1    0    0    0    0 -0.00000000000E+00 -0.00000000000E+00 -0.45593999997E+02  0.45594000000E+02  0.51100000000E-03 0.  1.
    9900012    2    1    2    0    0 -0.13246393692E+01  0.40110161431E+02 -0.65258229200E+01  0.50528854851E+02  0.29999984805E+02 0.  0.
         12    1    1    2    0    0  0.13246393692E+01 -0.40110161431E+02  0.65258229200E+01  0.40659145149E+02  0.00000000000E+00 0. -1.
         11    1    3    3    0    0  0.12991583393E+02  0.12620987836E+02 -0.34341709019E-01  0.18112751106E+02  0.51100000000E-03 0. -1.
        -11    1    3    3    0    0 -0.91887325937E+01  0.12743314782E+02 -0.59349016472E+01  0.16794282841E+02  0.51100000000E-03 0.  1.
         12    1    3    3    0    0 -0.51274901684E+01  0.14745858812E+02 -0.55657956371E+00  0.15621820904E+02  0.00000000000E+00 0. -1.
</event>
<event>
 7    1  0.3041451E-011  0.5052886E+02  0.7816164E-02  0.1300439E+00
        -11   -1    0    0    0    0  0.00000000000E+00  0.00000000000E+00  0.45593999997E+02  0.45594000000E+02  0.51100000000E-03 0.  1.
         11   -1    0    0    0    0 -0.00000000000E+00 -0.00000000000E+00 -0.45593999997E+02  0.45594000000E+02  0.51100000000E-03 0. -1.
    9900012    2    1    2    0    0 -0.26141676540E+02  0.69954009012E+01  0.30345395892E+02  0.50528856651E+02  0.29999990275E+02 0.  0.
         12    1    1    2    0    0  0.26141676540E+02 -0.69954009012E+01 -0.30345395892E+02  0.40659143349E+02  0.00000000000E+00 0. -1.
         11    1    3    3    0    0 -0.21505689236E+02 -0.26796469682E+01  0.15794456597E+02  0.26816786475E+02  0.51100000000E-03 0. -1.
        -11    1    3    3    0    0  0.49814779942E+01  0.72499622525E+01  0.71764675937E+01  0.11352478278E+02  0.51100000000E-03 0.  1.
        -12    1    3    3    0    0 -0.96174652980E+01  0.24250856169E+01  0.73744717010E+01  0.12359591898E+02  0.00000000000E+00 0.  1.
</event>
<event>
 7    1  0.3041451E-011  0.5052886E+02  0.7816164E-02  0.1300439E+00
        -11   -1    0    0    0    0  0.00000000000E+00  0.00000000000E+00  0.45593999997E+02  0.45594000000E+02  0.51100000000E-03 0.  1.
         11   -1    0    0    0    0 -0.00000000000E+00 -0.00000000000E+00 -0.45593999997E+02  0.45594000000E+02  0.51100000000E-03 0. -1.
    9900012    2    1    2    0    0  0.30088584312E+01 -0.72179532845E+01  0.39900045150E+02  0.50528859802E+02  0.29999999853E+02 0.  0.
         12    1    1    2    0    0 -0.30088584312E+01  0.72179532845E+01 -0.39900045150E+02  0.40659140198E+02  0.00000000000E+00 0. -1.
         11    1    3    3    0    0 -0.52660505264E+01  0.63319497323E+01  0.35763319511E+01  0.89785870851E+01  0.51100000000E-03 0. -1.
        -11    1    3    3    0    0  0.97516819827E+01 -0.67110495203E+01  0.15002273092E+02  0.19110250792E+02  0.51100000000E-03 0.  1.
         12    1    3    3    0    0 -0.14767730251E+01 -0.68388534966E+01  0.21321440108E+02  0.22440021925E+02  0.00000000000E+00 0. -1.
</event>
<event>
 7    1  0.3041451E-011  0.5052887E+02  0.7816164E-02  0.1300439E+00
        -11   -1    0    0    0    0  0.00000000000E+00  0.00000000000E+00  0.45593999997E+02  0.45594000000E+02  0.51100000000E-03 0. -1.
         11   -1    0    0    0    0 -0.00000000000E+00 -0.00000000000E+00 -0.45593999997E+02  0.45594000000E+02  0.51100000000E-03 0.  1.
    9900012    2    1    2    0    0 -0.33723404013E+01 -0.39477682721E+02 -0.91271497856E+01  0.50528868480E+02  0.30000026231E+02 0.  0.
         12    1    1    2    0    0  0.33723404013E+01  0.39477682721E+02  0.91271497856E+01  0.40659131520E+02  0.00000000000E+00 0. -1.
         11    1    3    3    0    0  0.89227220786E+01 -0.93761833694E+01  0.23205416089E+01  0.13149627276E+02  0.51100000000E-03 0. -1.
        -11    1    3    3    0    0 -0.85089093873E+01 -0.28573074062E+02 -0.13594389486E+02  0.32766286424E+02  0.51100000000E-03 0.  1.
         12    1    3    3    0    0 -0.37861530926E+01 -0.15284252892E+01  0.21466980910E+01  0.46129547797E+01  0.00000000000E+00 0. -1.
</event>
<event>
 7    1  0.3041451E-011  0.5052884E+02  0.7816164E-02  0.1300439E+00
        -11   -1    0    0    0    0  0.00000000000E+00  0.00000000000E+00  0.45593999997E+02  0.45594000000E+02  0.51100000000E-03 0.  1.
         11   -1    0    0    0    0 -0.00000000000E+00 -0.00000000000E+00 -0.45593999997E+02  0.45594000000E+02  0.51100000000E-03 0. -1.
    9900012    2    1    2    0    0  0.84064029198E+01  0.72978375540E+01  0.39105513725E+02  0.50528840555E+02  0.29999941352E+02 0.  0.
         12    1    1    2    0    0 -0.84064029198E+01 -0.72978375540E+01 -0.39105513725E+02  0.40659159445E+02  0.00000000000E+00 0. -1.
         11    1    3    3    0    0  0.47655451257E+01 -0.99029591302E+01  0.64170797466E+01  0.12726269391E+02  0.51100000000E-03 0. -1.
        -11    1    3    3    0    0  0.57575313754E+01  0.10741103055E+02  0.21265835101E+02  0.24510328541E+02  0.51100000000E-03 0.  1.
         12    1    3    3    0    0 -0.21166735813E+01  0.64596936295E+01  0.11422598877E+02  0.13292242623E+02  0.00000000000E+00 0. -1.
</event>
<event>
 7    1  0.3041451E-011  0.5052886E+02  0.7816164E-02  0.1300439E+00
        -11   -1    0    0    0    0  0.00000000000E+00  0.00000000000E+00  0.45593999997E+02  0.45594000000E+02  0.51100000000E-03 0.  1.
         11   -1    0    0    0    0 -0.00000000000E+00 -0.00000000000E+00 -0.45593999997E+02  0.45594000000E+02  0.51100000000E-03 0. -1.
    9900012    2    1    2    0    0 -0.14479007743E+02 -0.32352074509E+02  0.19921531577E+02  0.50528858216E+02  0.29999995032E+02 0.  0.
         12    1    1    2    0    0  0.14479007743E+02  0.32352074509E+02 -0.19921531577E+02  0.40659141784E+02  0.00000000000E+00 0. -1.
         11    1    3    3    0    0 -0.17242898453E+02 -0.19013174128E+02 -0.28387309593E-01  0.25667472481E+02  0.51100000000E-03 0. -1.
        -11    1    3    3    0    0  0.18139649382E+01 -0.19451153011E+01  0.75022453478E+01  0.79597504893E+01  0.51100000000E-03 0.  1.
         12    1    3    3    0    0  0.94992577148E+00 -0.11393785080E+02  0.12447673539E+02  0.16901635245E+02  0.00000000000E+00 0. -1.
</event>
<event>
 7    1  0.3041451E-011  0.5052888E+02  0.7816164E-02  0.1300439E+00
        -11   -1    0    0    0    0  0.00000000000E+00  0.00000000000E+00  0.45593999997E+02  0.45594000000E+02  0.51100000000E-03 0.  1.
         11   -1    0    0    0    0 -0.00000000000E+00 -0.00000000000E+00 -0.45593999997E+02  0.45594000000E+02  0.51100000000E-03 0. -1.
    9900012    2    1    2    0    0 -0.21595409765E+02  0.34133713469E+02 -0.46574885151E+01  0.50528876579E+02  0.30000050848E+02 0.  0.
         12    1    1    2    0    0  0.21595409765E+02 -0.34133713469E+02  0.46574885151E+01  0.40659123421E+02  0.00000000000E+00 0. -1.
         11    1    3    3    0    0  0.19971816547E+01  0.11440033317E+01 -0.57475863022E+01  0.61913025081E+01  0.51100000000E-03 0. -1.
        -11    1    3    3    0    0 -0.20947479334E+02  0.16513029059E+02 -0.38126350274E+01  0.26944632216E+02  0.51100000000E-03 0.  1.
         12    1    3    3    0    0 -0.26451120864E+01  0.16476681078E+02  0.49027328145E+01  0.17392941854E+02  0.00000000000E+00 0. -1.
</event>
<event>
 7    1  0.3041451E-011  0.5052886E+02  0.7816164E-02  0.1300439E+00
        -11   -1    0    0    0    0  0.00000000000E+00  0.00000000000E+00  0.45593999997E+02  0.45594000000E+02  0.51100000000E-03 0.  1.
         11   -1    0    0    0    0 -0.00000000000E+00 -0.00000000000E+00 -0.45593999997E+02  0.45594000000E+02  0.51100000000E-03 0. -1.
    9900012    2    1    2    0    0 -0.29512219450E+02 -0.10392445022E+02  0.25965199279E+02  0.50528861003E+02  0.30000003504E+02 0.  0.
         12    1    1    2    0    0  0.29512219450E+02  0.10392445022E+02 -0.25965199279E+02  0.40659138997E+02  0.00000000000E+00 0. -1.
         11    1    3    3    0    0 -0.89283479230E+01  0.55750886204E+01  0.18826127884E+02  0.21568961522E+02  0.51100000000E-03 0. -1.
        -11    1    3    3    0    0 -0.45629259726E+01 -0.84934351298E+01  0.57520617695E+01  0.11226974151E+02  0.51100000000E-03 0.  1.
         12    1    3    3    0    0 -0.16020945554E+02 -0.74740985127E+01  0.13870096249E+01  0.17732925329E+02  0.00000000000E+00 0. -1.
</event>
<event>
 7    1  0.3041451E-011  0.5052886E+02  0.7816164E-02  0.1300439E+00
        -11   -1    0    0    0    0  0.00000000000E+00  0.00000000000E+00  0.45593999997E+02  0.45594000000E+02  0.51100000000E-03 0.  1.
         11   -1    0    0    0    0 -0.00000000000E+00 -0.00000000000E+00 -0.45593999997E+02  0.45594000000E+02  0.51100000000E-03 0. -1.
    9900012    2    1    2    0    0  0.21192051076E+02 -0.43574863953E+01  0.34424921161E+02  0.50528856951E+02  0.29999991190E+02 0.  0.
         12    1    1    2    0    0 -0.21192051076E+02  0.43574863953E+01 -0.34424921161E+02  0.40659143049E+02  0.00000000000E+00 0. -1.
         11    1    3    3    0    0 -0.49898212434E+01  0.27337504902E+01  0.31521320697E+01  0.65044326908E+01  0.51100000000E-03 0. -1.
        -11    1    3    3    0    0  0.12381315516E+02 -0.83250486368E+01  0.24296093595E+02  0.28511463887E+02  0.51100000000E-03 0.  1.
        -12    1    3    3    0    0  0.13800556803E+02  0.12338117513E+01  0.69766954964E+01  0.15512960374E+02  0.00000000000E+00 0.  1.
</event>
<event>
 7    1  0.3041451E-011  0.5052886E+02  0.7816164E-02  0.1300439E+00
        -11   -1    0    0    0    0  0.00000000000E+00  0.00000000000E+00  0.45593999997E+02  0.45594000000E+02  0.51100000000E-03 0.  1.
         11   -1    0    0    0    0 -0.00000000000E+00 -0.00000000000E+00 -0.45593999997E+02  0.45594000000E+02  0.51100000000E-03 0. -1.
    9900012    2    1    2    0    0 -0.13148101684E+02 -0.19173298658E+02  0.33356825642E+02  0.50528858638E+02  0.29999996317E+02 0.  0.
         12    1    1    2    0    0  0.13148101684E+02  0.19173298658E+02 -0.33356825642E+02  0.40659141362E+02  0.00000000000E+00 0. -1.
         11    1    3    3    0    0  0.26673867365E+01  0.55399304671E+01  0.66732806443E+00  0.61847480619E+01  0.51100000000E-03 0. -1.
        -11    1    3    3    0    0 -0.12248128443E+02 -0.20559740570E+02  0.22874824318E+02  0.33105545917E+02  0.51100000000E-03 0.  1.
         12    1    3    3    0    0 -0.35673599778E+01 -0.41534885555E+01  0.98146732604E+01  0.11238564659E+02  0.00000000000E+00 0. -1.
</event>
<event>
 7    1  0.3041451E-011  0.5052887E+02  0.7816164E-02  0.1300439E+00
        -11   -1    0    0    0    0  0.00000000000E+00  0.00000000000E+00  0.45593999997E+02  0.45594000000E+02  0.51100000000E-03 0.  1.
         11   -1    0    0    0    0 -0.00000000000E+00 -0.00000000000E+00 -0.45593999997E+02  0.45594000000E+02  0.51100000000E-03 0. -1.
    9900012    2    1    2    0    0 -0.38258032602E+02 -0.28575062527E+01  0.13465611311E+02  0.50528867095E+02  0.30000022023E+02 0.  0.
         12    1    1    2    0    0  0.38258032602E+02  0.28575062527E+01 -0.13465611311E+02  0.40659132905E+02  0.00000000000E+00 0. -1.
         11    1    3    3    0    0 -0.21895547359E+02 -0.77956669132E+01  0.80223973251E+01  0.24587522768E+02  0.51100000000E-03 0. -1.
        -11    1    3    3    0    0  0.10197666910E+01 -0.18141287346E+01  0.69287919935E+01  0.72345798717E+01  0.51100000000E-03 0.  1.
        -12    1    3    3    0    0 -0.17382251934E+02  0.67522893951E+01 -0.14855780073E+01  0.18706764456E+02  0.00000000000E+00 0.  1.
</event>
<event>
 7    1  0.3041451E-011  0.5052886E+02  0.7816164E-02  0.1300439E+00
        -11   -1    0    0    0    0  0.00000000000E+00  0.00000000000E+00  0.45593999997E+02  0.45594000000E+02  0.51100000000E-03 0.  1.
         11   -1    0    0    0    0 -0.00000000000E+00 -0.00000000000E+00 -0.45593999997E+02  0.45594000000E+02  0.51100000000E-03 0. -1.
    9900012    2    1    2    0    0 -0.38873942003E+02  0.31218179735E+00  0.11911539665E+02  0.50528860788E+02  0.30000002851E+02 0.  0.
         12    1    1    2    0    0  0.38873942003E+02 -0.31218179735E+00 -0.11911539665E+02  0.40659139212E+02  0.00000000000E+00 0. -1.
         11    1    3    3    0    0 -0.17826088043E+02  0.46970801122E+01 -0.67597134512E+01  0.19634808446E+02  0.51100000000E-03 0. -1.
        -11    1    3    3    0    0 -0.16902502155E+02 -0.73605105123E+01  0.10375979221E+02  0.21154967245E+02  0.51100000000E-03 0.  1.
         12    1    3    3    0    0 -0.41453518050E+01  0.29756121974E+01  0.82952738947E+01  0.97390850970E+01  0.00000000000E+00 0. -1.
</event>
<event>
 7    1  0.3041451E-011  0.5052887E+02  0.7816164E-02  0.1300439E+00
        -11   -1    0    0    0    0  0.00000000000E+00  0.00000000000E+00  0.45593999997E+02  0.45594000000E+02  0.51100000000E-03 0.  1.
         11   -1    0    0    0    0 -0.00000000000E+00 -0.00000000000E+00 -0.45593999997E+02  0.45594000000E+02  0.51100000000E-03 0. -1.
    9900012    2    1    2    0    0  0.47362657715E+01  0.40011940513E+02  0.54568477870E+01  0.50528870830E+02  0.30000033375E+02 0.  0.
         12    1    1    2    0    0 -0.47362657715E+01 -0.40011940513E+02 -0.54568477870E+01  0.40659129170E+02  0.00000000000E+00 0. -1.
         11    1    3    3    0    0  0.78624586054E+01  0.13884554146E+02 -0.55607940900E+01  0.16897382351E+02  0.51100000000E-03 0. -1.
        -11    1    3    3    0    0  0.35037238526E+01  0.19038633868E+02  0.13515028922E+02  0.23609355506E+02  0.51100000000E-03 0.  1.
         12    1    3    3    0    0 -0.66299166866E+01  0.70887524997E+01 -0.24973870447E+01  0.10022132973E+02  0.00000000000E+00 0. -1.
</event>
<event>
 7    1  0.3041451E-011  0.5052886E+02  0.7816164E-02  0.1300439E+00
        -11   -1    0    0    0    0  0.00000000000E+00  0.00000000000E+00  0.45593999997E+02  0.45594000000E+02  0.51100000000E-03 0.  1.
         11   -1    0    0    0    0 -0.00000000000E+00 -0.00000000000E+00 -0.45593999997E+02  0.45594000000E+02  0.51100000000E-03 0. -1.
    9900012    2    1    2    0    0 -0.70461823207E+00 -0.39328335206E+01  0.40462356311E+02  0.50528856569E+02  0.29999990026E+02 0.  0.
         12    1    1    2    0    0  0.70461823207E+00  0.39328335206E+01 -0.40462356311E+02  0.40659143431E+02  0.00000000000E+00 0. -1.
         11    1    3    3    0    0 -0.29834793226E+01 -0.90690946123E+01  0.90566381265E+01  0.13159495445E+02  0.51100000000E-03 0. -1.
        -11    1    3    3    0    0 -0.48400177357E+01  0.50605680783E+01  0.29032333831E+02  0.29864887893E+02  0.51100000000E-03 0.  1.
        -12    1    3    3    0    0  0.71188788262E+01  0.75693013429E-01  0.23733843534E+01  0.75044732303E+01  0.00000000000E+00 0.  1.
</event>
<event>
 7    1  0.3041451E-011  0.5052885E+02  0.7816164E-02  0.1300439E+00
        -11   -1    0    0    0    0  0.00000000000E+00  0.00000000000E+00  0.45593999997E+02  0.45594000000E+02  0.51100000000E-03 0.  1.
         11   -1    0    0    0    0 -0.00000000000E+00 -0.00000000000E+00 -0.45593999997E+02  0.45594000000E+02  0.51100000000E-03 0. -1.
    9900012    2    1    2    0    0 -0.24578266017E+02  0.54740616548E+01  0.31923495658E+02  0.50528854825E+02  0.29999984725E+02 0.  0.
         12    1    1    2    0    0  0.24578266017E+02 -0.54740616548E+01 -0.31923495658E+02  0.40659145175E+02  0.00000000000E+00 0. -1.
         11    1    3    3    0    0 -0.11285485692E+02 -0.15381091540E+01  0.28165282220E+02  0.30381097575E+02  0.51100000000E-03 0. -1.
        -11    1    3    3    0    0 -0.15054947591E+02  0.79604675307E+01  0.50535535742E+01  0.17763977433E+02  0.51100000000E-03 0.  1.
        -12    1    3    3    0    0  0.17621672660E+01 -0.94829672196E+00 -0.12953401360E+01  0.23837798166E+01  0.00000000000E+00 0.  1.
</event>
<event>
 7    1  0.3041451E-011  0.5052882E+02  0.7816164E-02  0.1300439E+00
        -11   -1    0    0    0    0  0.00000000000E+00  0.00000000000E+00  0.45593999997E+02  0.45594000000E+02  0.51100000000E-03 0.  1.
         11   -1    0    0    0    0 -0.00000000000E+00 -0.00000000000E+00 -0.45593999997E+02  0.45594000000E+02  0.51100000000E-03 0. -1.
    9900012    2    1    2    0    0  0.21239407125E+02  0.59631900878E+01  0.34154011320E+02  0.50528824649E+02  0.29999893002E+02 0.  0.
         12    1    1    2    0    0 -0.21239407125E+02 -0.59631900878E+01 -0.34154011320E+02  0.40659175351E+02  0.00000000000E+00 0. -1.
         11    1    3    3    0    0 -0.12094395616E+00  0.82767503762E+01  0.19763092354E+02  0.21426596647E+02  0.51100000000E-03 0. -1.
        -11    1    3    3    0    0  0.17257822715E+02  0.39157138680E+01  0.11488307985E+02  0.21098494747E+02  0.51100000000E-03 0.  1.
         12    1    3    3    0    0  0.41025283655E+01 -0.62292741564E+01  0.29026109811E+01  0.80037332547E+01  0.00000000000E+00 0. -1.
</event>
<event>
 7    1  0.3041451E-011  0.5052886E+02  0.7816164E-02  0.1300439E+00
        -11   -1    0    0    0    0  0.00000000000E+00  0.00000000000E+00  0.45593999997E+02  0.45594000000E+02  0.51100000000E-03 0.  1.
         11   -1    0    0    0    0 -0.00000000000E+00 -0.00000000000E+00 -0.45593999997E+02  0.45594000000E+02  0.51100000000E-03 0. -1.
    9900012    2    1    2    0    0 -0.29828584831E+00  0.81892636035E+01  0.39824772010E+02  0.50528862301E+02  0.30000007449E+02 0.  0.
         12    1    1    2    0    0  0.29828584831E+00 -0.81892636035E+01 -0.39824772010E+02  0.40659137699E+02  0.00000000000E+00 0. -1.
         11    1    3    3    0    0  0.86292871022E+01 -0.12525110431E+01  0.23493372564E+01  0.90306569867E+01  0.51100000000E-03 0. -1.
        -11    1    3    3    0    0 -0.96334201669E+01  0.24017270474E+01  0.15456933043E+02  0.18370842558E+02  0.51100000000E-03 0.  1.
         12    1    3    3    0    0  0.70584721644E+00  0.70400475992E+01  0.22018501710E+02  0.23127362756E+02  0.00000000000E+00 0. -1.
</event>
<event>
 7    1  0.3041451E-011  0.5052886E+02  0.7816164E-02  0.1300439E+00
        -11   -1    0    0    0    0  0.00000000000E+00  0.00000000000E+00  0.45593999997E+02  0.45594000000E+02  0.51100000000E-03 0. -1.
         11   -1    0    0    0    0 -0.00000000000E+00 -0.00000000000E+00 -0.45593999997E+02  0.45594000000E+02  0.51100000000E-03 0.  1.
    9900012    2    1    2    0    0 -0.20652771031E+02  0.32121375891E+02 -0.13958721708E+02  0.50528860164E+02  0.30000000956E+02 0.  0.
         12    1    1    2    0    0  0.20652771031E+02 -0.32121375891E+02  0.13958721708E+02  0.40659139836E+02  0.00000000000E+00 0. -1.
         11    1    3    3    0    0  0.30029039882E+01 -0.92810740495E+00 -0.25084430753E+01  0.40213309539E+01  0.51100000000E-03 0. -1.
        -11    1    3    3    0    0 -0.26871611547E+02  0.27697427318E+02 -0.11485549078E+02  0.40263492460E+02  0.51100000000E-03 0.  1.
        -12    1    3    3    0    0  0.32159365272E+01  0.53520559783E+01  0.35270445096E-01  0.62440367509E+01  0.00000000000E+00 0.  1.
</event>
<event>
 7    1  0.3041451E-011  0.5052886E+02  0.7816164E-02  0.1300439E+00
        -11   -1    0    0    0    0  0.00000000000E+00  0.00000000000E+00  0.45593999997E+02  0.45594000000E+02  0.51100000000E-03 0. -1.
         11   -1    0    0    0    0 -0.00000000000E+00 -0.00000000000E+00 -0.45593999997E+02  0.45594000000E+02  0.51100000000E-03 0.  1.
    9900012    2    1    2    0    0  0.40151716811E+02  0.37934198455E+01 -0.51590002533E+01  0.50528859814E+02  0.29999999892E+02 0.  0.
         12    1    1    2    0    0 -0.40151716811E+02 -0.37934198455E+01  0.51590002533E+01  0.40659140186E+02  0.00000000000E+00 0. -1.
         11    1    3    3    0    0  0.83359795257E-02 -0.58281174166E+01  0.48420644150E+01  0.75771109382E+01  0.51100000000E-03 0. -1.
        -11    1    3    3    0    0  0.23372177127E+02  0.25260856325E+01 -0.67015253138E+01  0.24444840234E+02  0.51100000000E-03 0.  1.
         12    1    3    3    0    0  0.16771203705E+02  0.70954516296E+01 -0.32995393544E+01  0.18506908642E+02  0.00000000000E+00 0. -1.
</event>
<event>
 7    1  0.3041451E-011  0.5052886E+02  0.7816164E-02  0.1300439E+00
        -11   -1    0    0    0    0  0.00000000000E+00  0.00000000000E+00  0.45593999997E+02  0.45594000000E+02  0.51100000000E-03 0.  1.
         11   -1    0    0    0    0 -0.00000000000E+00 -0.00000000000E+00 -0.45593999997E+02  0.45594000000E+02  0.51100000000E-03 0. -1.
    9900012    2    1    2    0    0  0.31612337320E+01 -0.31900298068E+02  0.25010870447E+02  0.50528855197E+02  0.29999985858E+02 0.  0.
         12    1    1    2    0    0 -0.31612337320E+01  0.31900298068E+02 -0.25010870447E+02  0.40659144803E+02  0.00000000000E+00 0. -1.
         11    1    3    3    0    0  0.10453808995E+02 -0.28775611397E+00  0.31791303151E+01  0.10930315454E+02  0.51100000000E-03 0. -1.
        -11    1    3    3    0    0 -0.66393641095E+01 -0.27874045874E+02  0.16534835177E+02  0.33082387516E+02  0.51100000000E-03 0.  1.
         12    1    3    3    0    0 -0.65321115393E+00 -0.37384960805E+01  0.52969049550E+01  0.65161522280E+01  0.00000000000E+00 0. -1.
</event>
<event>
 7    1  0.3041451E-011  0.5052885E+02  0.7816164E-02  0.1300439E+00
        -11   -1    0    0    0    0  0.00000000000E+00  0.00000000000E+00  0.45593999997E+02  0.45594000000E+02  0.51100000000E-03 0. -1.
         11   -1    0    0    0    0 -0.00000000000E+00 -0.00000000000E+00 -0.45593999997E+02  0.45594000000E+02  0.51100000000E-03 0.  1.
    9900012    2    1    2    0    0 -0.63677665583E+01 -0.34096179418E+02 -0.21214814359E+02  0.50528852811E+02  0.29999978604E+02 0.  0.
         12    1    1    2    0    0  0.63677665583E+01  0.34096179418E+02  0.21214814359E+02  0.40659147189E+02  0.00000000000E+00 0. -1.
         11    1    3    3    0    0 -0.13362596036E+01 -0.10339659194E+01 -0.12545851180E+02  0.12659109658E+02  0.51100000000E-03 0. -1.
        -11    1    3    3    0    0 -0.75326119446E+01 -0.20313357932E+02  0.97925238407E+00  0.21687131868E+02  0.51100000000E-03 0.  1.
         12    1    3    3    0    0  0.25011049899E+01 -0.12748855567E+02 -0.96482155625E+01  0.16182611285E+02  0.00000000000E+00 0. -1.
</event>
<event>
 7    1  0.3041451E-011  0.5052885E+02  0.7816164E-02  0.1300439E+00
        -11   -1    0    0    0    0  0.00000000000E+00  0.00000000000E+00  0.45593999997E+02  0.45594000000E+02  0.51100000000E-03 0.  1.
         11   -1    0    0    0    0 -0.00000000000E+00 -0.00000000000E+00 -0.45593999997E+02  0.45594000000E+02  0.51100000000E-03 0. -1.
    9900012    2    1    2    0    0 -0.19970723191E+02 -0.10106688707E+02  0.33943946459E+02  0.50528850444E+02  0.29999971410E+02 0.  0.
         12    1    1    2    0    0  0.19970723191E+02  0.10106688707E+02 -0.33943946459E+02  0.40659149556E+02  0.00000000000E+00 0. -1.
         11    1    3    3    0    0 -0.10876542252E+01  0.45983508587E+01  0.73792957943E+01  0.87625241235E+01  0.51100000000E-03 0. -1.
        -11    1    3    3    0    0 -0.53995216576E+01 -0.17428301771E+02  0.17576044983E+02  0.25334125094E+02  0.51100000000E-03 0.  1.
        -12    1    3    3    0    0 -0.13483547308E+02  0.27232622054E+01  0.89886056819E+01  0.16432201227E+02  0.00000000000E+00 0.  1.
</event>
<event>
 7    1  0.3041451E-011  0.5052886E+02  0.7816164E-02  0.1300439E+00
        -11   -1    0    0    0    0  0.00000000000E+00  0.00000000000E+00  0.45593999997E+02  0.45594000000E+02  0.51100000000E-03 0.  1.
         11   -1    0    0    0    0 -0.00000000000E+00 -0.00000000000E+00 -0.45593999997E+02  0.45594000000E+02  0.51100000000E-03 0. -1.
    9900012    2    1    2    0    0  0.34114799561E+02  0.22092065881E+02  0.11344447296E+01  0.50528857254E+02  0.29999992110E+02 0.  0.
         12    1    1    2    0    0 -0.34114799561E+02 -0.22092065881E+02 -0.11344447296E+01  0.40659142746E+02  0.00000000000E+00 0. -1.
         11    1    3    3    0    0 -0.14522347881E+00  0.33788867098E+01  0.67967380232E+01  0.75916805302E+01  0.51100000000E-03 0. -1.
        -11    1    3    3    0    0  0.17954636279E+02  0.11873955831E+01 -0.60871846118E+01  0.18995596567E+02  0.51100000000E-03 0.  1.
        -12    1    3    3    0    0  0.16305386761E+02  0.17525783588E+02  0.42489131824E+00  0.23941580157E+02  0.00000000000E+00 0.  1.
</event>
<event>
 7    1  0.3041451E-011  0.5052886E+02  0.7816164E-02  0.1300439E+00
        -11   -1    0    0    0    0  0.00000000000E+00  0.00000000000E+00  0.45593999997E+02  0.45594000000E+02  0.51100000000E-03 0.  1.
         11   -1    0    0    0    0 -0.00000000000E+00 -0.00000000000E+00 -0.45593999997E+02  0.45594000000E+02  0.51100000000E-03 0. -1.
    9900012    2    1    2    0    0  0.36158129883E+01  0.11975130252E+02  0.38687048287E+02  0.50528861381E+02  0.30000004653E+02 0.  0.
         12    1    1    2    0    0 -0.36158129883E+01 -0.11975130252E+02 -0.38687048287E+02  0.40659138619E+02  0.00000000000E+00 0. -1.
         11    1    3    3    0    0 -0.35569639945E+01 -0.64958630113E+00 -0.99443998349E+00  0.37500488480E+01  0.51100000000E-03 0. -1.
        -11    1    3    3    0    0  0.12935036952E+02  0.12543250623E+02  0.34955231172E+02  0.39325774038E+02  0.51100000000E-03 0.  1.
        -12    1    3    3    0    0 -0.57622599692E+01  0.81465930287E-01  0.47262570984E+01  0.74530384951E+01  0.00000000000E+00 0.  1.
</event>
<event>
 7    1  0.3041451E-011  0.5052886E+02  0.7816164E-02  0.1300439E+00
        -11   -1    0    0    0    0  0.00000000000E+00  0.00000000000E+00  0.45593999997E+02  0.45594000000E+02  0.51100000000E-03 0. -1.
         11   -1    0    0    0    0 -0.00000000000E+00 -0.00000000000E+00 -0.45593999997E+02  0.45594000000E+02  0.51100000000E-03 0.  1.
    9900012    2    1    2    0    0  0.87205448371E+01  0.24782470078E+02 -0.31031384268E+02  0.50528861605E+02  0.30000005334E+02 0.  0.
         12    1    1    2    0    0 -0.87205448371E+01 -0.24782470078E+02  0.31031384268E+02  0.40659138395E+02  0.00000000000E+00 0. -1.
         11    1    3    3    0    0  0.39323509325E+01  0.12658182636E+02 -0.33419987236E+02  0.35952587092E+02  0.51100000000E-03 0. -1.
        -11    1    3    3    0    0 -0.63558731381E+00  0.65904939141E+01  0.13661220889E+01  0.67605377810E+01  0.51100000000E-03 0.  1.
         12    1    3    3    0    0  0.54237812185E+01  0.55337935279E+01  0.10224808784E+01  0.78157367319E+01  0.00000000000E+00 0. -1.
</event>
<event>
 7    1  0.3041451E-011  0.5052888E+02  0.7816164E-02  0.1300439E+00
        -11   -1    0    0    0    0  0.00000000000E+00  0.00000000000E+00  0.45593999997E+02  0.45594000000E+02  0.51100000000E-03 0. -1.
         11   -1    0    0    0    0 -0.00000000000E+00 -0.00000000000E+00 -0.45593999997E+02  0.45594000000E+02  0.51100000000E-03 0.  1.
    9900012    2    1    2    0    0 -0.24397736135E+02  0.18672760779E+02 -0.26631610584E+02  0.50528877949E+02  0.30000055015E+02 0.  0.
         12    1    1    2    0    0  0.24397736135E+02 -0.18672760779E+02  0.26631610584E+02  0.40659122051E+02  0.00000000000E+00 0. -1.
         11    1    3    3    0    0 -0.21026156259E+02  0.80559947143E+01 -0.19928132006E+02  0.30068733651E+02  0.51100000000E-03 0.  1.
        -11    1    3    3    0    0  0.38224388668E+01 -0.22794001599E+01 -0.63802439767E+00  0.44959736846E+01  0.51100000000E-03 0. -1.
        -12    1    3    3    0    0 -0.71940187425E+01  0.12896166225E+02 -0.60654541809E+01  0.15964170614E+02  0.00000000000E+00 0.  1.
</event>
<event>
 7    1  0.3041451E-011  0.5052886E+02  0.7816164E-02  0.1300439E+00
        -11   -1    0    0    0    0  0.00000000000E+00  0.00000000000E+00  0.45593999997E+02  0.45594000000E+02  0.51100000000E-03 0.  1.
         11   -1    0    0    0    0 -0.00000000000E+00 -0.00000000000E+00 -0.45593999997E+02  0.45594000000E+02  0.51100000000E-03 0. -1.
    9900012    2    1    2    0    0 -0.26105911107E+02 -0.15525149370E+02  0.27029920152E+02  0.50528862760E+02  0.30000008845E+02 0.  0.
         12    1    1    2    0    0  0.26105911107E+02  0.15525149370E+02 -0.27029920152E+02  0.40659137240E+02  0.00000000000E+00 0. -1.
         11    1    3    3    0    0  0.67941385695E+00  0.24762167442E+01 -0.43616539967E+01  0.50613514402E+01  0.51100000000E-03 0. -1.
        -11    1    3    3    0    0 -0.15018892045E+02 -0.10015915696E+02  0.21850196693E+02  0.28342843564E+02  0.51100000000E-03 0.  1.
         12    1    3    3    0    0 -0.11766432918E+02 -0.79854504187E+01  0.95413774559E+01  0.17124667756E+02  0.00000000000E+00 0. -1.
</event>
<event>
 7    1  0.3041451E-011  0.5052886E+02  0.7816164E-02  0.1300439E+00
        -11   -1    0    0    0    0  0.00000000000E+00  0.00000000000E+00  0.45593999997E+02  0.45594000000E+02  0.51100000000E-03 0.  1.
         11   -1    0    0    0    0 -0.00000000000E+00 -0.00000000000E+00 -0.45593999997E+02  0.45594000000E+02  0.51100000000E-03 0. -1.
    9900012    2    1    2    0    0 -0.19688429777E+02  0.35556869402E+02  0.11138070301E+01  0.50528858410E+02  0.29999995622E+02 0.  0.
         12    1    1    2    0    0  0.19688429777E+02 -0.35556869402E+02 -0.11138070301E+01  0.40659141590E+02  0.00000000000E+00 0. -1.
         11    1    3    3    0    0  0.65727443492E+01  0.50918190484E+01 -0.24163322017E+01  0.86583053233E+01  0.51100000000E-03 0. -1.
        -11    1    3    3    0    0 -0.15443908691E+02  0.12003091422E+02  0.56729655516E+01  0.20365928846E+02  0.51100000000E-03 0.  1.
        -12    1    3    3    0    0 -0.10817265436E+02  0.18461958932E+02 -0.21428263199E+01  0.21504624241E+02  0.00000000000E+00 0.  1.
</event>
<event>
 7    1  0.3041451E-011  0.5052886E+02  0.7816164E-02  0.1300439E+00
        -11   -1    0    0    0    0  0.00000000000E+00  0.00000000000E+00  0.45593999997E+02  0.45594000000E+02  0.51100000000E-03 0.  1.
         11   -1    0    0    0    0 -0.00000000000E+00 -0.00000000000E+00 -0.45593999997E+02  0.45594000000E+02  0.51100000000E-03 0. -1.
    9900012    2    1    2    0    0 -0.11868870889E+02  0.58692551664E+01  0.38442786166E+02  0.50528855142E+02  0.29999985689E+02 0.  0.
         12    1    1    2    0    0  0.11868870889E+02 -0.58692551664E+01 -0.38442786166E+02  0.40659144858E+02  0.00000000000E+00 0. -1.
         11    1    3    3    0    0  0.80705393867E+01  0.47305944808E+01  0.17989510934E+02  0.20276455164E+02  0.51100000000E-03 0.  1.
        -11    1    3    3    0    0 -0.56032190270E+01  0.45509996991E+00  0.12815280473E+02  0.13994091371E+02  0.51100000000E-03 0. -1.
         12    1    3    3    0    0 -0.14336191249E+02  0.68356071574E+00  0.76379947593E+01  0.16258308606E+02  0.00000000000E+00 0. -1.
</event>
<event>
 7    1  0.3041451E-011  0.5052886E+02  0.7816164E-02  0.1300439E+00
        -11   -1    0    0    0    0  0.00000000000E+00  0.00000000000E+00  0.45593999997E+02  0.45594000000E+02  0.51100000000E-03 0.  1.
         11   -1    0    0    0    0 -0.00000000000E+00 -0.00000000000E+00 -0.45593999997E+02  0.45594000000E+02  0.51100000000E-03 0. -1.
    9900012    2    1    2    0    0  0.27561795544E+02 -0.25215731931E+02  0.16052421164E+02  0.50528856679E+02  0.29999990360E+02 0.  0.
         12    1    1    2    0    0 -0.27561795544E+02  0.25215731931E+02 -0.16052421164E+02  0.40659143321E+02  0.00000000000E+00 0. -1.
         11    1    3    3    0    0  0.15852294675E+02 -0.31646542182E+01  0.15577524266E+02  0.22449266030E+02  0.51100000000E-03 0. -1.
        -11    1    3    3    0    0  0.63073476873E+01 -0.13491931824E+02  0.65552652985E+01  0.16272257452E+02  0.51100000000E-03 0.  1.
         12    1    3    3    0    0  0.54021531814E+01 -0.85591458889E+01 -0.60803683998E+01  0.11807333197E+02  0.00000000000E+00 0. -1.
</event>
<event>
 7    1  0.3041451E-011  0.5052886E+02  0.7816164E-02  0.1300439E+00
        -11   -1    0    0    0    0  0.00000000000E+00  0.00000000000E+00  0.45593999997E+02  0.45594000000E+02  0.51100000000E-03 0.  1.
         11   -1    0    0    0    0 -0.00000000000E+00 -0.00000000000E+00 -0.45593999997E+02  0.45594000000E+02  0.51100000000E-03 0. -1.
    9900012    2    1    2    0    0 -0.10402400799E+02  0.35819514937E+02  0.16183887018E+02  0.50528858448E+02  0.29999995739E+02 0.  0.
         12    1    1    2    0    0  0.10402400799E+02 -0.35819514937E+02 -0.16183887018E+02  0.40659141552E+02  0.00000000000E+00 0. -1.
         11    1    3    3    0    0 -0.57429283990E+01  0.15098412395E+02 -0.60129650779E+01  0.17236560931E+02  0.51100000000E-03 0. -1.
        -11    1    3    3    0    0  0.34426269162E+01  0.85590894305E+01  0.42757082128E+01  0.10168154845E+02  0.51100000000E-03 0.  1.
         12    1    3    3    0    0 -0.81020993164E+01  0.12162013112E+02  0.17921143883E+02  0.23124142672E+02  0.00000000000E+00 0. -1.
</event>
<event>
 7    1  0.3041451E-011  0.5052886E+02  0.7816164E-02  0.1300439E+00
        -11   -1    0    0    0    0  0.00000000000E+00  0.00000000000E+00  0.45593999997E+02  0.45594000000E+02  0.51100000000E-03 0.  1.
         11   -1    0    0    0    0 -0.00000000000E+00 -0.00000000000E+00 -0.45593999997E+02  0.45594000000E+02  0.51100000000E-03 0. -1.
    9900012    2    1    2    0    0 -0.33995029754E+02 -0.21419610190E+02  0.62212722237E+01  0.50528856173E+02  0.29999988823E+02 0.  0.
         12    1    1    2    0    0  0.33995029754E+02  0.21419610190E+02 -0.62212722237E+01  0.40659143827E+02  0.00000000000E+00 0. -1.
         11    1    3    3    0    0  0.19259362836E+01 -0.10678691844E+02  0.33790278329E+01  0.11364924963E+02  0.51100000000E-03 0. -1.
        -11    1    3    3    0    0 -0.11981367714E+02 -0.89668651441E+01 -0.20089275554E+00  0.14966569446E+02  0.51100000000E-03 0.  1.
         12    1    3    3    0    0 -0.23939598323E+02 -0.17740532026E+01  0.30431371463E+01  0.24197361764E+02  0.00000000000E+00 0. -1.
</event>
<event>
 7    1  0.3041451E-011  0.5052886E+02  0.7816164E-02  0.1300439E+00
        -11   -1    0    0    0    0  0.00000000000E+00  0.00000000000E+00  0.45593999997E+02  0.45594000000E+02  0.51100000000E-03 0.  1.
         11   -1    0    0    0    0 -0.00000000000E+00 -0.00000000000E+00 -0.45593999997E+02  0.45594000000E+02  0.51100000000E-03 0. -1.
    9900012    2    1    2    0    0 -0.21495905809E+02  0.17894601939E+02  0.29510593237E+02  0.50528857629E+02  0.29999993249E+02 0.  0.
         12    1    1    2    0    0  0.21495905809E+02 -0.17894601939E+02 -0.29510593237E+02  0.40659142371E+02  0.00000000000E+00 0. -1.
         11    1    3    3    0    0  0.13063737738E+01  0.73372500089E+00 -0.34399655999E+01  0.37521098603E+01  0.51100000000E-03 0. -1.
        -11    1    3    3    0    0 -0.16886232461E+02  0.17942393438E+02  0.32511687827E+02  0.40793187846E+02  0.51100000000E-03 0.  1.
        -12    1    3    3    0    0 -0.59160471218E+01 -0.78151649904E+00  0.43887100960E+00  0.59835599227E+01  0.00000000000E+00 0.  1.
</event>
<event>
 7    1  0.3041451E-011  0.5052886E+02  0.7816164E-02  0.1300439E+00
        -11   -1    0    0    0    0  0.00000000000E+00  0.00000000000E+00  0.45593999997E+02  0.45594000000E+02  0.51100000000E-03 0.  1.
         11   -1    0    0    0    0 -0.00000000000E+00 -0.00000000000E+00 -0.45593999997E+02  0.45594000000E+02  0.51100000000E-03 0. -1.
    9900012    2    1    2    0    0  0.98840175388E+00 -0.28064524536E+02  0.29403590542E+02  0.50528860656E+02  0.30000002449E+02 0.  0.
         12    1    1    2    0    0 -0.98840175388E+00  0.28064524536E+02 -0.29403590542E+02  0.40659139344E+02  0.00000000000E+00 0. -1.
         11    1    3    3    0    0  0.29344760711E+01 -0.46419820738E+01  0.84710585382E+00  0.55566839009E+01  0.51100000000E-03 0. -1.
        -11    1    3    3    0    0 -0.10601726091E+02 -0.93134208296E+00  0.86445758649E+01  0.13711042496E+02  0.51100000000E-03 0.  1.
        -12    1    3    3    0    0  0.86556517741E+01 -0.22491200379E+02  0.19911908823E+02  0.31261134258E+02  0.00000000000E+00 0.  1.
</event>
<event>
 7    1  0.3041451E-011  0.5052885E+02  0.7816164E-02  0.1300439E+00
        -11   -1    0    0    0    0  0.00000000000E+00  0.00000000000E+00  0.45593999997E+02  0.45594000000E+02  0.51100000000E-03 0. -1.
         11   -1    0    0    0    0 -0.00000000000E+00 -0.00000000000E+00 -0.45593999997E+02  0.45594000000E+02  0.51100000000E-03 0.  1.
    9900012    2    1    2    0    0 -0.21598381321E+02  0.12387755803E+02 -0.32143740607E+02  0.50528848143E+02  0.29999964416E+02 0.  0.
         12    1    1    2    0    0  0.21598381321E+02 -0.12387755803E+02  0.32143740607E+02  0.40659151857E+02  0.00000000000E+00 0. -1.
         11    1    3    3    0    0  0.20952696703E+01  0.47792140201E+01 -0.16080205347E+01  0.54604736005E+01  0.51100000000E-03 0. -1.
        -11    1    3    3    0    0 -0.11772802424E+02  0.30163894888E+01 -0.29902637840E+02  0.32277937241E+02  0.51100000000E-03 0.  1.
        -12    1    3    3    0    0 -0.11920848567E+02  0.45921522937E+01 -0.63308223190E+00  0.12790437302E+02  0.00000000000E+00 0.  1.
</event>
<event>
 7    1  0.3041451E-011  0.5052889E+02  0.7816164E-02  0.1300439E+00
        -11   -1    0    0    0    0  0.00000000000E+00  0.00000000000E+00  0.45593999997E+02  0.45594000000E+02  0.51100000000E-03 0.  1.
         11   -1    0    0    0    0 -0.00000000000E+00 -0.00000000000E+00 -0.45593999997E+02  0.45594000000E+02  0.51100000000E-03 0. -1.
    9900012    2    1    2    0    0  0.17741606817E+02  0.22841570620E+02  0.28577289068E+02  0.50528887721E+02  0.30000084718E+02 0.  0.
         12    1    1    2    0    0 -0.17741606817E+02 -0.22841570620E+02 -0.28577289068E+02  0.40659112279E+02  0.00000000000E+00 0. -1.
         11    1    3    3    0    0 -0.37266433420E+01  0.81702022073E+01  0.11225173295E+02  0.14375137928E+02  0.51100000000E-03 0. -1.
        -11    1    3    3    0    0  0.12857077242E+02  0.87569108449E+01  0.20037839205E+02  0.25367359401E+02  0.51100000000E-03 0.  1.
        -12    1    3    3    0    0  0.86111729170E+01  0.59144575678E+01 -0.26857234316E+01  0.10786390392E+02  0.00000000000E+00 0.  1.
</event>
<event>
 7    1  0.3041451E-011  0.5052885E+02  0.7816164E-02  0.1300439E+00
        -11   -1    0    0    0    0  0.00000000000E+00  0.00000000000E+00  0.45593999997E+02  0.45594000000E+02  0.51100000000E-03 0. -1.
         11   -1    0    0    0    0 -0.00000000000E+00 -0.00000000000E+00 -0.45593999997E+02  0.45594000000E+02  0.51100000000E-03 0.  1.
    9900012    2    1    2    0    0  0.84647884348E+01 -0.15823660200E+02 -0.36484589701E+02  0.50528854030E+02  0.29999982309E+02 0.  0.
         12    1    1    2    0    0 -0.84647884348E+01  0.15823660200E+02  0.36484589701E+02  0.40659145970E+02  0.00000000000E+00 0. -1.
         11    1    3    3    0    0  0.96564024660E+01  0.47275748105E+00 -0.90346656795E+01  0.13232338887E+02  0.51100000000E-03 0. -1.
        -11    1    3    3    0    0  0.70609331257E+00 -0.10453841131E+02 -0.14461549268E+01  0.10576990427E+02  0.51100000000E-03 0.  1.
         12    1    3    3    0    0 -0.18977073438E+01 -0.58425765498E+01 -0.26003769095E+02  0.26719524716E+02  0.00000000000E+00 0. -1.
</event>
<event>
 7    1  0.3041451E-011  0.5052886E+02  0.7816164E-02  0.1300439E+00
        -11   -1    0    0    0    0  0.00000000000E+00  0.00000000000E+00  0.45593999997E+02  0.45594000000E+02  0.51100000000E-03 0. -1.
         11   -1    0    0    0    0 -0.00000000000E+00 -0.00000000000E+00 -0.45593999997E+02  0.45594000000E+02  0.51100000000E-03 0.  1.
    9900012    2    1    2    0    0  0.96953273281E+01  0.32167104555E+02  0.22900742486E+02  0.50528855963E+02  0.29999988184E+02 0.  0.
         12    1    1    2    0    0 -0.96953273281E+01 -0.32167104555E+02 -0.22900742486E+02  0.40659144037E+02  0.00000000000E+00 0. -1.
         11    1    3    3    0    0 -0.86671071592E+01  0.93618522898E+01  0.30142785610E+01  0.13109115161E+02  0.51100000000E-03 0. -1.
        -11    1    3    3    0    0  0.14419601146E+02  0.85186016262E+01  0.88594308100E+01  0.18946793539E+02  0.51100000000E-03 0.  1.
         12    1    3    3    0    0  0.39428333412E+01  0.14286650639E+02  0.11027033115E+02  0.18472947262E+02  0.00000000000E+00 0. -1.
</event>
<event>
 7    1  0.3041451E-011  0.5052886E+02  0.7816164E-02  0.1300439E+00
        -11   -1    0    0    0    0  0.00000000000E+00  0.00000000000E+00  0.45593999997E+02  0.45594000000E+02  0.51100000000E-03 0. -1.
         11   -1    0    0    0    0 -0.00000000000E+00 -0.00000000000E+00 -0.45593999997E+02  0.45594000000E+02  0.51100000000E-03 0.  1.
    9900012    2    1    2    0    0  0.35125297251E+02  0.12602790514E+02 -0.16141530186E+02  0.50528857948E+02  0.29999994218E+02 0.  0.
         12    1    1    2    0    0 -0.35125297251E+02 -0.12602790514E+02  0.16141530186E+02  0.40659142052E+02  0.00000000000E+00 0. -1.
         11    1    3    3    0    0  0.86312995805E+01 -0.89403728621E+01 -0.33905598805E+01  0.12881207083E+02  0.51100000000E-03 0. -1.
        -11    1    3    3    0    0  0.72061248641E+01  0.10721737183E+02 -0.20548634984E+01  0.13080762517E+02  0.51100000000E-03 0.  1.
         12    1    3    3    0    0  0.19287872806E+02  0.10821426193E+02 -0.10696106807E+02  0.24566888347E+02  0.00000000000E+00 0. -1.
</event>
<event>
 7    1  0.3041451E-011  0.5052885E+02  0.7816164E-02  0.1300439E+00
        -11   -1    0    0    0    0  0.00000000000E+00  0.00000000000E+00  0.45593999997E+02  0.45594000000E+02  0.51100000000E-03 0. -1.
         11   -1    0    0    0    0 -0.00000000000E+00 -0.00000000000E+00 -0.45593999997E+02  0.45594000000E+02  0.51100000000E-03 0.  1.
    9900012    2    1    2    0    0 -0.14954390831E+02 -0.31680244855E+02 -0.20637218853E+02  0.50528849478E+02  0.29999968473E+02 0.  0.
         12    1    1    2    0    0  0.14954390831E+02  0.31680244855E+02  0.20637218853E+02  0.40659150522E+02  0.00000000000E+00 0. -1.
         11    1    3    3    0    0  0.26724877669E+00  0.24121559152E+01 -0.51717756199E+01  0.57128960599E+01  0.51100000000E-03 0. -1.
        -11    1    3    3    0    0 -0.18805045611E+02 -0.23711949204E+02 -0.73007466824E+01  0.31131771197E+02  0.51100000000E-03 0.  1.
         12    1    3    3    0    0  0.35834060027E+01 -0.10380451566E+02 -0.81646965506E+01  0.13684182221E+02  0.00000000000E+00 0. -1.
</event>
<event>
 7    1  0.3041451E-011  0.5052886E+02  0.7816164E-02  0.1300439E+00
        -11   -1    0    0    0    0  0.00000000000E+00  0.00000000000E+00  0.45593999997E+02  0.45594000000E+02  0.51100000000E-03 0.  1.
         11   -1    0    0    0    0 -0.00000000000E+00 -0.00000000000E+00 -0.45593999997E+02  0.45594000000E+02  0.51100000000E-03 0. -1.
    9900012    2    1    2    0    0  0.19890183841E+01 -0.10214492407E+02  0.39304881017E+02  0.50528859317E+02  0.29999998381E+02 0.  0.
         12    1    1    2    0    0 -0.19890183841E+01  0.10214492407E+02 -0.39304881017E+02  0.40659140683E+02  0.00000000000E+00 0. -1.
         11    1    3    3    0    0  0.10829038003E+02 -0.12337525105E+02  0.90872286478E+01  0.18763270358E+02  0.51100000000E-03 0. -1.
        -11    1    3    3    0    0 -0.75262930017E+01  0.31159802273E+01  0.24855607227E+02  0.26156368823E+02  0.51100000000E-03 0.  1.
         12    1    3    3    0    0 -0.13137266173E+01 -0.99294752910E+00  0.53620451422E+01  0.56092201355E+01  0.00000000000E+00 0. -1.
</event>
<event>
 7    1  0.3041451E-011  0.5052886E+02  0.7816164E-02  0.1300439E+00
        -11   -1    0    0    0    0  0.00000000000E+00  0.00000000000E+00  0.45593999997E+02  0.45594000000E+02  0.51100000000E-03 0.  1.
         11   -1    0    0    0    0 -0.00000000000E+00 -0.00000000000E+00 -0.45593999997E+02  0.45594000000E+02  0.51100000000E-03 0. -1.
    9900012    2    1    2    0    0  0.22067425727E+02 -0.19298850719E+02  0.28173541945E+02  0.50528863474E+02  0.30000011016E+02 0.  0.
         12    1    1    2    0    0 -0.22067425727E+02  0.19298850719E+02 -0.28173541945E+02  0.40659136526E+02  0.00000000000E+00 0. -1.
         11    1    3    3    0    0  0.14046497629E+00  0.12536406897E+01 -0.13393710606E+01  0.18399077389E+01  0.51100000000E-03 0. -1.
        -11    1    3    3    0    0  0.21820100703E+02 -0.24168535895E+02  0.19293300319E+02  0.37847937321E+02  0.51100000000E-03 0.  1.
        -12    1    3    3    0    0  0.10686004808E+00  0.36160444862E+01  0.10219612687E+02  0.10841018415E+02  0.00000000000E+00 0.  1.
</event>
<event>
 7    1  0.3041451E-011  0.5052886E+02  0.7816164E-02  0.1300439E+00
        -11   -1    0    0    0    0  0.00000000000E+00  0.00000000000E+00  0.45593999997E+02  0.45594000000E+02  0.51100000000E-03 0. -1.
         11   -1    0    0    0    0 -0.00000000000E+00 -0.00000000000E+00 -0.45593999997E+02  0.45594000000E+02  0.51100000000E-03 0.  1.
    9900012    2    1    2    0    0 -0.28774380360E+02 -0.26172115872E+02 -0.11841484368E+02  0.50528863679E+02  0.30000011638E+02 0.  0.
         12    1    1    2    0    0  0.28774380360E+02  0.26172115872E+02  0.11841484368E+02  0.40659136321E+02  0.00000000000E+00 0. -1.
         11    1    3    3    0    0 -0.22152789457E+02 -0.64568645465E+01 -0.32597929039E+01  0.23303721388E+02  0.51100000000E-03 0. -1.
        -11    1    3    3    0    0 -0.82719695732E+01 -0.20668258157E+02 -0.44886021766E+01  0.22710128261E+02  0.51100000000E-03 0.  1.
         12    1    3    3    0    0  0.16503786695E+01  0.95300683184E+00 -0.40930892876E+01  0.45150140299E+01  0.00000000000E+00 0. -1.
</event>
<event>
 7    1  0.3041451E-011  0.5052887E+02  0.7816164E-02  0.1300439E+00
        -11   -1    0    0    0    0  0.00000000000E+00  0.00000000000E+00  0.45593999997E+02  0.45594000000E+02  0.51100000000E-03 0.  1.
         11   -1    0    0    0    0 -0.00000000000E+00 -0.00000000000E+00 -0.45593999997E+02  0.45594000000E+02  0.51100000000E-03 0. -1.
    9900012    2    1    2    0    0  0.22018265286E+02  0.26000141373E+02  0.22189045544E+02  0.50528866957E+02  0.30000021603E+02 0.  0.
         12    1    1    2    0    0 -0.22018265286E+02 -0.26000141373E+02 -0.22189045544E+02  0.40659133043E+02  0.00000000000E+00 0. -1.
         11    1    3    3    0    0 -0.21639228745E+01  0.75703282652E+01  0.17815913158E+02  0.19478172249E+02  0.51100000000E-03 0. -1.
        -11    1    3    3    0    0  0.13617314873E+02  0.11806923811E+02  0.45176012423E+01  0.18580727528E+02  0.51100000000E-03 0.  1.
         12    1    3    3    0    0  0.10564873287E+02  0.66228892977E+01 -0.14446885666E+00  0.12469967180E+02  0.00000000000E+00 0. -1.
</event>
<event>
 7    1  0.3041451E-011  0.5052885E+02  0.7816164E-02  0.1300439E+00
        -11   -1    0    0    0    0  0.00000000000E+00  0.00000000000E+00  0.45593999997E+02  0.45594000000E+02  0.51100000000E-03 0.  1.
         11   -1    0    0    0    0 -0.00000000000E+00 -0.00000000000E+00 -0.45593999997E+02  0.45594000000E+02  0.51100000000E-03 0. -1.
    9900012    2    1    2    0    0  0.89925772795E+01  0.30992571821E+02  0.24733791895E+02  0.50528850775E+02  0.29999972416E+02 0.  0.
         12    1    1    2    0    0 -0.89925772795E+01 -0.30992571821E+02 -0.24733791895E+02  0.40659149225E+02  0.00000000000E+00 0. -1.
         11    1    3    3    0    0 -0.59982499778E+01  0.74994539241E+01  0.95128497686E+01  0.13517215798E+02  0.51100000000E-03 0. -1.
        -11    1    3    3    0    0  0.12449249178E+02  0.13914689089E+02  0.18780118239E+02  0.26481979134E+02  0.51100000000E-03 0.  1.
         12    1    3    3    0    0  0.25415780788E+01  0.95784288079E+01 -0.35591761130E+01  0.10529655843E+02  0.00000000000E+00 0. -1.
</event>
<event>
 7    1  0.3041451E-011  0.5052886E+02  0.7816164E-02  0.1300439E+00
        -11   -1    0    0    0    0  0.00000000000E+00  0.00000000000E+00  0.45593999997E+02  0.45594000000E+02  0.51100000000E-03 0.  1.
         11   -1    0    0    0    0 -0.00000000000E+00 -0.00000000000E+00 -0.45593999997E+02  0.45594000000E+02  0.51100000000E-03 0. -1.
    9900012    2    1    2    0    0 -0.38806592055E+02 -0.11095138758E+02  0.49103731698E+01  0.50528862581E+02  0.30000008301E+02 0.  0.
         12    1    1    2    0    0  0.38806592055E+02  0.11095138758E+02 -0.49103731698E+01  0.40659137419E+02  0.00000000000E+00 0. -1.
         11    1    3    3    0    0  0.39646669904E+01  0.23886419713E+01  0.29983153365E+01  0.55148970915E+01  0.51100000000E-03 0. -1.
        -11    1    3    3    0    0 -0.20694511471E+02 -0.50074913044E+01  0.37868943156E-01  0.21291763866E+02  0.51100000000E-03 0.  1.
         12    1    3    3    0    0 -0.22076747574E+02 -0.84762894246E+01  0.18741888901E+01  0.23722201623E+02  0.00000000000E+00 0. -1.
</event>
<event>
 7    1  0.3041451E-011  0.5052886E+02  0.7816164E-02  0.1300439E+00
        -11   -1    0    0    0    0  0.00000000000E+00  0.00000000000E+00  0.45593999997E+02  0.45594000000E+02  0.51100000000E-03 0.  1.
         11   -1    0    0    0    0 -0.00000000000E+00 -0.00000000000E+00 -0.45593999997E+02  0.45594000000E+02  0.51100000000E-03 0. -1.
    9900012    2    1    2    0    0  0.14363872434E+00  0.35900745330E+02  0.19086167522E+02  0.50528856649E+02  0.29999990272E+02 0.  0.
         12    1    1    2    0    0 -0.14363872434E+00 -0.35900745330E+02 -0.19086167522E+02  0.40659143351E+02  0.00000000000E+00 0. -1.
         11    1    3    3    0    0  0.83679026596E+01  0.27194354251E+02  0.12341044638E+02  0.31013804686E+02  0.51100000000E-03 0. -1.
        -11    1    3    3    0    0 -0.96303336571E+01  0.95310278477E+01  0.10485171975E+01  0.13589819968E+02  0.51100000000E-03 0.  1.
        -12    1    3    3    0    0  0.14060697219E+01 -0.82463676903E+00  0.56966056860E+01  0.59252319959E+01  0.00000000000E+00 0.  1.
</event>
<event>
 7    1  0.3041451E-011  0.5052882E+02  0.7816164E-02  0.1300439E+00
        -11   -1    0    0    0    0  0.00000000000E+00  0.00000000000E+00  0.45593999997E+02  0.45594000000E+02  0.51100000000E-03 0.  1.
         11   -1    0    0    0    0 -0.00000000000E+00 -0.00000000000E+00 -0.45593999997E+02  0.45594000000E+02  0.51100000000E-03 0. -1.
    9900012    2    1    2    0    0  0.22922838080E+02  0.25394574799E+02  0.21973339865E+02  0.50528823918E+02  0.29999890781E+02 0.  0.
         12    1    1    2    0    0 -0.22922838080E+02 -0.25394574799E+02 -0.21973339865E+02  0.40659176082E+02  0.00000000000E+00 0. -1.
         11    1    3    3    0    0 -0.36942360834E+01  0.16450791216E+02  0.86421006651E+01  0.18946287658E+02  0.51100000000E-03 0. -1.
        -11    1    3    3    0    0  0.97122373369E+01  0.41985785313E+01  0.78958564576E+01  0.13202278789E+02  0.51100000000E-03 0.  1.
         12    1    3    3    0    0  0.16904836827E+02  0.47452050515E+01  0.54353827426E+01  0.18380257470E+02  0.00000000000E+00 0. -1.
</event>
<event>
 7    1  0.3041451E-011  0.5052885E+02  0.7816164E-02  0.1300439E+00
        -11   -1    0    0    0    0  0.00000000000E+00  0.00000000000E+00  0.45593999997E+02  0.45594000000E+02  0.51100000000E-03 0.  1.
         11   -1    0    0    0    0 -0.00000000000E+00 -0.00000000000E+00 -0.45593999997E+02  0.45594000000E+02  0.51100000000E-03 0. -1.
    9900012    2    1    2    0    0 -0.36266629188E+02 -0.16806539354E+02  0.74457076514E+01  0.50528847031E+02  0.29999961035E+02 0.  0.
         12    1    1    2    0    0  0.36266629188E+02  0.16806539354E+02 -0.74457076514E+01  0.40659152969E+02  0.00000000000E+00 0. -1.
         11    1    3    3    0    0 -0.17564259327E+02  0.14188906662E+01 -0.28872109807E+01  0.17856439845E+02  0.51100000000E-03 0. -1.
        -11    1    3    3    0    0 -0.75787572708E+01 -0.10886553032E+02  0.13551230500E+02  0.18962870221E+02  0.51100000000E-03 0.  1.
        -12    1    3    3    0    0 -0.11123612590E+02 -0.73388769883E+01 -0.32183118680E+01  0.13709536965E+02  0.00000000000E+00 0.  1.
</event>
<event>
 7    1  0.3041451E-011  0.5052887E+02  0.7816164E-02  0.1300439E+00
        -11   -1    0    0    0    0  0.00000000000E+00  0.00000000000E+00  0.45593999997E+02  0.45594000000E+02  0.51100000000E-03 0.  1.
         11   -1    0    0    0    0 -0.00000000000E+00 -0.00000000000E+00 -0.45593999997E+02  0.45594000000E+02  0.51100000000E-03 0. -1.
    9900012    2    1    2    0    0 -0.17897841654E+02  0.28933755863E+02  0.22263636333E+02  0.50528874739E+02  0.30000045256E+02 0.  0.
         12    1    1    2    0    0  0.17897841654E+02 -0.28933755863E+02 -0.22263636333E+02  0.40659125261E+02  0.00000000000E+00 0. -1.
         11    1    3    3    0    0  0.37179950280E+01  0.38161610431E+01  0.11204769849E+02  0.12406991568E+02  0.51100000000E-03 0. -1.
        -11    1    3    3    0    0 -0.12846002513E+02  0.13299864321E+02 -0.18013513925E+01  0.18578240999E+02  0.51100000000E-03 0.  1.
         12    1    3    3    0    0 -0.87698341690E+01  0.11817730499E+02  0.12860217877E+02  0.19543642172E+02  0.00000000000E+00 0. -1.
</event>
<event>
 7    1  0.3041451E-011  0.5052885E+02  0.7816164E-02  0.1300439E+00
        -11   -1    0    0    0    0  0.00000000000E+00  0.00000000000E+00  0.45593999997E+02  0.45594000000E+02  0.51100000000E-03 0.  1.
         11   -1    0    0    0    0 -0.00000000000E+00 -0.00000000000E+00 -0.45593999997E+02  0.45594000000E+02  0.51100000000E-03 0. -1.
    9900012    2    1    2    0    0 -0.25961305111E+02  0.17824393599E+02  0.25719022333E+02  0.50528849984E+02  0.29999970012E+02 0.  0.
         12    1    1    2    0    0  0.25961305111E+02 -0.17824393599E+02 -0.25719022333E+02  0.40659150016E+02  0.00000000000E+00 0. -1.
         11    1    3    3    0    0  0.47025659245E+01 -0.35132511295E+00  0.77241421379E+01  0.90498578794E+01  0.51100000000E-03 0. -1.
        -11    1    3    3    0    0 -0.84989200406E+01  0.10675264748E+02  0.93141590104E+01  0.16521091902E+02  0.51100000000E-03 0.  1.
         12    1    3    3    0    0 -0.22164950995E+02  0.75004539640E+01  0.86807211847E+01  0.24957900203E+02  0.00000000000E+00 0. -1.
</event>
<event>
 7    1  0.3041451E-011  0.5052886E+02  0.7816164E-02  0.1300439E+00
        -11   -1    0    0    0    0  0.00000000000E+00  0.00000000000E+00  0.45593999997E+02  0.45594000000E+02  0.51100000000E-03 0. -1.
         11   -1    0    0    0    0 -0.00000000000E+00 -0.00000000000E+00 -0.45593999997E+02  0.45594000000E+02  0.51100000000E-03 0.  1.
    9900012    2    1    2    0    0  0.19305941009E+02  0.15018115177E+02  0.32479264860E+02  0.50528858500E+02  0.29999995895E+02 0.  0.
         12    1    1    2    0    0 -0.19305941009E+02 -0.15018115177E+02 -0.32479264860E+02  0.40659141500E+02  0.00000000000E+00 0. -1.
         11    1    3    3    0    0  0.84788853097E+01  0.30540729560E+01 -0.15592175149E+01  0.91460383356E+01  0.51100000000E-03 0. -1.
        -11    1    3    3    0    0  0.14494304337E+02  0.11082109835E+02  0.21045230660E+02  0.27853182052E+02  0.51100000000E-03 0.  1.
         12    1    3    3    0    0 -0.36672486383E+01  0.88193238520E+00  0.12993251715E+02  0.13529638112E+02  0.00000000000E+00 0. -1.
</event>
<event>
 7    1  0.3041451E-011  0.5052886E+02  0.7816164E-02  0.1300439E+00
        -11   -1    0    0    0    0  0.00000000000E+00  0.00000000000E+00  0.45593999997E+02  0.45594000000E+02  0.51100000000E-03 0.  1.
         11   -1    0    0    0    0 -0.00000000000E+00 -0.00000000000E+00 -0.45593999997E+02  0.45594000000E+02  0.51100000000E-03 0. -1.
    9900012    2    1    2    0    0 -0.32722183369E+02 -0.20573214212E+02 -0.12616140281E+02  0.50528862982E+02  0.30000009521E+02 0.  0.
         12    1    1    2    0    0  0.32722183369E+02  0.20573214212E+02  0.12616140281E+02  0.40659137018E+02  0.00000000000E+00 0. -1.
         11    1    3    3    0    0 -0.90258157225E+01 -0.35897615149E+00  0.90773731558E+00  0.90784470384E+01  0.51100000000E-03 0. -1.
        -11    1    3    3    0    0 -0.16916809076E+02 -0.20839225373E+02 -0.18856137189E+02  0.32802525107E+02  0.51100000000E-03 0.  1.
        -12    1    3    3    0    0 -0.67795585707E+01  0.62498731272E+00  0.53322595926E+01  0.86478908363E+01  0.00000000000E+00 0.  1.
</event>
<event>
 7    1  0.3041451E-011  0.5052887E+02  0.7816164E-02  0.1300439E+00
        -11   -1    0    0    0    0  0.00000000000E+00  0.00000000000E+00  0.45593999997E+02  0.45594000000E+02  0.51100000000E-03 0.  1.
         11   -1    0    0    0    0 -0.00000000000E+00 -0.00000000000E+00 -0.45593999997E+02  0.45594000000E+02  0.51100000000E-03 0. -1.
    9900012    2    1    2    0    0  0.88249760512E+00  0.40555887041E+02  0.27578654491E+01  0.50528873133E+02  0.30000040376E+02 0.  0.
         12    1    1    2    0    0 -0.88249760512E+00 -0.40555887041E+02 -0.27578654491E+01  0.40659126867E+02  0.00000000000E+00 0. -1.
         11    1    3    3    0    0  0.52533694555E+01  0.30822138322E+02  0.40598776109E+01  0.31529108898E+02  0.51100000000E-03 0. -1.
        -11    1    3    3    0    0  0.27337065908E+01 -0.27593149993E+01  0.18250542146E+01  0.42915957565E+01  0.51100000000E-03 0.  1.
         12    1    3    3    0    0 -0.71045784411E+01  0.12493063718E+02 -0.31270663764E+01  0.14708168479E+02  0.00000000000E+00 0. -1.
</event>
<event>
 7    1  0.3041451E-011  0.5052886E+02  0.7816164E-02  0.1300439E+00
        -11   -1    0    0    0    0  0.00000000000E+00  0.00000000000E+00  0.45593999997E+02  0.45594000000E+02  0.51100000000E-03 0. -1.
         11   -1    0    0    0    0 -0.00000000000E+00 -0.00000000000E+00 -0.45593999997E+02  0.45594000000E+02  0.51100000000E-03 0.  1.
    9900012    2    1    2    0    0  0.11133405020E+02 -0.32448501922E+02 -0.21824470008E+02  0.50528862338E+02  0.30000007562E+02 0.  0.
         12    1    1    2    0    0 -0.11133405020E+02  0.32448501922E+02  0.21824470008E+02  0.40659137662E+02  0.00000000000E+00 0. -1.
         11    1    3    3    0    0 -0.51617409046E+01  0.39067279628E+00  0.27907063553E+00  0.51840211304E+01  0.51100000000E-03 0. -1.
        -11    1    3    3    0    0  0.12875088841E+02 -0.27805616580E+02 -0.10767435167E+02  0.32478575806E+02  0.51100000000E-03 0.  1.
        -12    1    3    3    0    0  0.34200570833E+01 -0.50335581374E+01 -0.11336105477E+02  0.12866265401E+02  0.00000000000E+00 0.  1.
</event>
<event>
 7    1  0.3041451E-011  0.5052886E+02  0.7816164E-02  0.1300439E+00
        -11   -1    0    0    0    0  0.00000000000E+00  0.00000000000E+00  0.45593999997E+02  0.45594000000E+02  0.51100000000E-03 0.  1.
         11   -1    0    0    0    0 -0.00000000000E+00 -0.00000000000E+00 -0.45593999997E+02  0.45594000000E+02  0.51100000000E-03 0. -1.
    9900012    2    1    2    0    0 -0.19975057769E+01 -0.22633078639E+02  0.33718229398E+02  0.50528864843E+02  0.30000015176E+02 0.  0.
         12    1    1    2    0    0  0.19975057769E+01  0.22633078639E+02 -0.33718229398E+02  0.40659135157E+02  0.00000000000E+00 0. -1.
         11    1    3    3    0    0  0.93385156471E+01 -0.16664337294E+02  0.25191731585E+02  0.31615365765E+02  0.51100000000E-03 0. -1.
        -11    1    3    3    0    0 -0.54443779351E+01 -0.79712068989E+01  0.19280397198E+01  0.98437151497E+01  0.51100000000E-03 0.  1.
         12    1    3    3    0    0 -0.58916434889E+01  0.20024655542E+01  0.65984580931E+01  0.90697839281E+01  0.00000000000E+00 0. -1.
</event>
<event>
 7    1  0.3041451E-011  0.5052886E+02  0.7816164E-02  0.1300439E+00
        -11   -1    0    0    0    0  0.00000000000E+00  0.00000000000E+00  0.45593999997E+02  0.45594000000E+02  0.51100000000E-03 0. -1.
         11   -1    0    0    0    0 -0.00000000000E+00 -0.00000000000E+00 -0.45593999997E+02  0.45594000000E+02  0.51100000000E-03 0.  1.
    9900012    2    1    2    0    0  0.34370577315E+01 -0.23659875294E+02 -0.32887121873E+02  0.50528857733E+02  0.29999993566E+02 0.  0.
         12    1    1    2    0    0 -0.34370577315E+01  0.23659875294E+02  0.32887121873E+02  0.40659142267E+02  0.00000000000E+00 0. -1.
         11    1    3    3    0    0 -0.42964772892E+01 -0.25630089417E+01  0.35666206618E+01  0.61440634061E+01  0.51100000000E-03 0. -1.
        -11    1    3    3    0    0  0.12844002413E+01 -0.17918306182E+02 -0.28230791542E+02  0.33461813635E+02  0.51100000000E-03 0.  1.
        -12    1    3    3    0    0  0.64491347794E+01 -0.31785601697E+01 -0.82229509933E+01  0.10922980692E+02  0.00000000000E+00 0.  1.
</event>
<event>
 7    1  0.3041451E-011  0.5052886E+02  0.7816164E-02  0.1300439E+00
        -11   -1    0    0    0    0  0.00000000000E+00  0.00000000000E+00  0.45593999997E+02  0.45594000000E+02  0.51100000000E-03 0. -1.
         11   -1    0    0    0    0 -0.00000000000E+00 -0.00000000000E+00 -0.45593999997E+02  0.45594000000E+02  0.51100000000E-03 0.  1.
    9900012    2    1    2    0    0  0.63516370235E+01  0.39106557897E+02 -0.91378268155E+01  0.50528855367E+02  0.29999986372E+02 0.  0.
         12    1    1    2    0    0 -0.63516370235E+01 -0.39106557897E+02  0.91378268155E+01  0.40659144633E+02  0.00000000000E+00 0. -1.
         11    1    3    3    0    0  0.10552430578E+02  0.17434336088E+02  0.30856199800E+01  0.20611426852E+02  0.51100000000E-03 0. -1.
        -11    1    3    3    0    0  0.10292835071E+01  0.84490931922E+01 -0.13153467851E+02  0.15667173232E+02  0.51100000000E-03 0.  1.
         12    1    3    3    0    0 -0.52300770615E+01  0.13223128616E+02  0.93002105524E+00  0.14250255283E+02  0.00000000000E+00 0. -1.
</event>
<event>
 7    1  0.3041451E-011  0.5052886E+02  0.7816164E-02  0.1300439E+00
        -11   -1    0    0    0    0  0.00000000000E+00  0.00000000000E+00  0.45593999997E+02  0.45594000000E+02  0.51100000000E-03 0.  1.
         11   -1    0    0    0    0 -0.00000000000E+00 -0.00000000000E+00 -0.45593999997E+02  0.45594000000E+02  0.51100000000E-03 0. -1.
    9900012    2    1    2    0    0 -0.24345504611E+02  0.11785584136E+02  0.30357247411E+02  0.50528855166E+02  0.29999985764E+02 0.  0.
         12    1    1    2    0    0  0.24345504611E+02 -0.11785584136E+02 -0.30357247411E+02  0.40659144834E+02  0.00000000000E+00 0. -1.
         11    1    3    3    0    0 -0.73920912061E+01 -0.85127110914E+01  0.14705325264E+02  0.18529863840E+02  0.51100000000E-03 0. -1.
        -11    1    3    3    0    0 -0.13943955741E+02  0.16600364631E+02  0.16385425295E+02  0.27175138821E+02  0.51100000000E-03 0.  1.
         12    1    3    3    0    0 -0.30094576640E+01  0.36979305965E+01 -0.73350314795E+00  0.48238525056E+01  0.00000000000E+00 0. -1.
</event>
<event>
 7    1  0.3041451E-011  0.5052886E+02  0.7816164E-02  0.1300439E+00
        -11   -1    0    0    0    0  0.00000000000E+00  0.00000000000E+00  0.45593999997E+02  0.45594000000E+02  0.51100000000E-03 0.  1.
         11   -1    0    0    0    0 -0.00000000000E+00 -0.00000000000E+00 -0.45593999997E+02  0.45594000000E+02  0.51100000000E-03 0. -1.
    9900012    2    1    2    0    0  0.29346170922E+02 -0.58105608275E+01  0.27535532481E+02  0.50528856945E+02  0.29999991171E+02 0.  0.
         12    1    1    2    0    0 -0.29346170922E+02  0.58105608275E+01 -0.27535532481E+02  0.40659143055E+02  0.00000000000E+00 0. -1.
         11    1    3    3    0    0  0.59597535808E+01  0.15893083957E+01  0.19150873117E+02  0.20119654702E+02  0.51100000000E-03 0. -1.
        -11    1    3    3    0    0  0.25647276421E+02 -0.75451282772E+01  0.87171868783E+01  0.28119407815E+02  0.51100000000E-03 0.  1.
        -12    1    3    3    0    0 -0.22608590799E+01  0.14525905400E+00 -0.33252751463E+00  0.22897944274E+01  0.00000000000E+00 0.  1.
</event>
<event>
 7    1  0.3041451E-011  0.5052885E+02  0.7816164E-02  0.1300439E+00
        -11   -1    0    0    0    0  0.00000000000E+00  0.00000000000E+00  0.45593999997E+02  0.45594000000E+02  0.51100000000E-03 0.  1.
         11   -1    0    0    0    0 -0.00000000000E+00 -0.00000000000E+00 -0.45593999997E+02  0.45594000000E+02  0.51100000000E-03 0. -1.
    9900012    2    1    2    0    0  0.47827919477E+01  0.30604631747E+02  0.26337193556E+02  0.50528851612E+02  0.29999974961E+02 0.  0.
         12    1    1    2    0    0 -0.47827919477E+01 -0.30604631747E+02 -0.26337193556E+02  0.40659148388E+02  0.00000000000E+00 0. -1.
         11    1    3    3    0    0 -0.90157692010E+01  0.13622017381E+02  0.70729518858E+00  0.16350648872E+02  0.51100000000E-03 0. -1.
        -11    1    3    3    0    0  0.47475264665E+01  0.90394994294E+01  0.14814102532E+02  0.17991920175E+02  0.51100000000E-03 0.  1.
         12    1    3    3    0    0  0.90510346821E+01  0.79431149373E+01  0.10815795835E+02  0.16186282565E+02  0.00000000000E+00 0. -1.
</event>
<event>
 7    1  0.3041451E-011  0.5052886E+02  0.7816164E-02  0.1300439E+00
        -11   -1    0    0    0    0  0.00000000000E+00  0.00000000000E+00  0.45593999997E+02  0.45594000000E+02  0.51100000000E-03 0. -1.
         11   -1    0    0    0    0 -0.00000000000E+00 -0.00000000000E+00 -0.45593999997E+02  0.45594000000E+02  0.51100000000E-03 0.  1.
    9900012    2    1    2    0    0  0.18537085426E+02 -0.34530326078E+02 -0.10825828804E+02  0.50528861735E+02  0.30000005729E+02 0.  0.
         12    1    1    2    0    0 -0.18537085426E+02  0.34530326078E+02  0.10825828804E+02  0.40659138265E+02  0.00000000000E+00 0. -1.
         11    1    3    3    0    0 -0.16816891335E+01 -0.16373570681E+02 -0.96128006257E+01  0.19061160282E+02  0.51100000000E-03 0. -1.
        -11    1    3    3    0    0  0.14438074744E+02 -0.13162508751E+02 -0.81307142519E+01  0.21161714331E+02  0.51100000000E-03 0.  1.
         12    1    3    3    0    0  0.57806998158E+01 -0.49942466471E+01  0.69176860739E+01  0.10305987122E+02  0.00000000000E+00 0. -1.
</event>
<event>
 7    1  0.3041451E-011  0.5052886E+02  0.7816164E-02  0.1300439E+00
        -11   -1    0    0    0    0  0.00000000000E+00  0.00000000000E+00  0.45593999997E+02  0.45594000000E+02  0.51100000000E-03 0. -1.
         11   -1    0    0    0    0 -0.00000000000E+00 -0.00000000000E+00 -0.45593999997E+02  0.45594000000E+02  0.51100000000E-03 0.  1.
    9900012    2    1    2    0    0 -0.77616163014E+01 -0.33938267024E+02 -0.21002786401E+02  0.50528859665E+02  0.29999999438E+02 0.  0.
         12    1    1    2    0    0  0.77616163014E+01  0.33938267024E+02  0.21002786401E+02  0.40659140335E+02  0.00000000000E+00 0. -1.
         11    1    3    3    0    0 -0.11668287266E+02 -0.87653153647E+01 -0.16198049603E+02  0.21802671679E+02  0.51100000000E-03 0. -1.
        -11    1    3    3    0    0 -0.14044074629E+01 -0.19830846814E+02 -0.66630631835E+01  0.20967385553E+02  0.51100000000E-03 0.  1.
         12    1    3    3    0    0  0.53110784270E+01 -0.53421048450E+01  0.18583263855E+01  0.77588024326E+01  0.00000000000E+00 0. -1.
</event>
<event>
 7    1  0.3041451E-011  0.5052891E+02  0.7816164E-02  0.1300439E+00
        -11   -1    0    0    0    0  0.00000000000E+00  0.00000000000E+00  0.45593999997E+02  0.45594000000E+02  0.51100000000E-03 0. -1.
         11   -1    0    0    0    0 -0.00000000000E+00 -0.00000000000E+00 -0.45593999997E+02  0.45594000000E+02  0.51100000000E-03 0.  1.
    9900012    2    1    2    0    0 -0.35655791044E+02 -0.18165184601E+02 -0.72008249820E+01  0.50528914337E+02  0.30000165619E+02 0.  0.
         12    1    1    2    0    0  0.35655791044E+02  0.18165184601E+02  0.72008249820E+01  0.40659085663E+02  0.00000000000E+00 0. -1.
         11    1    3    3    0    0 -0.11644206747E+02  0.18776606896E+01  0.65570615949E+01  0.13494747773E+02  0.51100000000E-03 0. -1.
        -11    1    3    3    0    0 -0.11455934689E+02 -0.18403693933E+02 -0.77797564504E+01  0.23031695566E+02  0.51100000000E-03 0.  1.
        -12    1    3    3    0    0 -0.12555649607E+02 -0.16391513576E+01 -0.59781301264E+01  0.14002470998E+02  0.00000000000E+00 0.  1.
</event>
<event>
 7    1  0.3041451E-011  0.5052885E+02  0.7816164E-02  0.1300439E+00
        -11   -1    0    0    0    0  0.00000000000E+00  0.00000000000E+00  0.45593999997E+02  0.45594000000E+02  0.51100000000E-03 0.  1.
         11   -1    0    0    0    0 -0.00000000000E+00 -0.00000000000E+00 -0.45593999997E+02  0.45594000000E+02  0.51100000000E-03 0. -1.
    9900012    2    1    2    0    0  0.90901008739E+01 -0.37911860853E+02  0.11542421747E+02  0.50528848176E+02  0.29999964515E+02 0.  0.
         12    1    1    2    0    0 -0.90901008739E+01  0.37911860853E+02 -0.11542421747E+02  0.40659151824E+02  0.00000000000E+00 0. -1.
         11    1    3    3    0    0  0.63205379972E+01  0.29472244550E+01  0.13497958586E+01  0.71033289156E+01  0.51100000000E-03 0. -1.
        -11    1    3    3    0    0  0.48599108394E+01 -0.14783275006E+02  0.63441719632E+00  0.15574544575E+02  0.51100000000E-03 0.  1.
         12    1    3    3    0    0 -0.20903479626E+01 -0.26075810302E+02  0.95582086922E+01  0.27850974686E+02  0.00000000000E+00 0. -1.
</event>
<event>
 7    1  0.3041451E-011  0.5052886E+02  0.7816164E-02  0.1300439E+00
        -11   -1    0    0    0    0  0.00000000000E+00  0.00000000000E+00  0.45593999997E+02  0.45594000000E+02  0.51100000000E-03 0. -1.
         11   -1    0    0    0    0 -0.00000000000E+00 -0.00000000000E+00 -0.45593999997E+02  0.45594000000E+02  0.51100000000E-03 0.  1.
    9900012    2    1    2    0    0  0.10321858255E+02 -0.31580762692E+02 -0.23436733670E+02  0.50528858160E+02  0.29999994863E+02 0.  0.
         12    1    1    2    0    0 -0.10321858255E+02  0.31580762692E+02  0.23436733670E+02  0.40659141840E+02  0.00000000000E+00 0. -1.
         11    1    3    3    0    0  0.38448586761E+01 -0.76846714886E+01 -0.94842043644E+00  0.86450341649E+01  0.51100000000E-03 0. -1.
        -11    1    3    3    0    0  0.38266080194E+01 -0.27289845312E+02 -0.24732518292E+02  0.37028044067E+02  0.51100000000E-03 0.  1.
        -12    1    3    3    0    0  0.26503915598E+01  0.33937541088E+01  0.22442050580E+01  0.48557799285E+01  0.00000000000E+00 0.  1.
</event>
<event>
 7    1  0.3041451E-011  0.5052885E+02  0.7816164E-02  0.1300439E+00
        -11   -1    0    0    0    0  0.00000000000E+00  0.00000000000E+00  0.45593999997E+02  0.45594000000E+02  0.51100000000E-03 0. -1.
         11   -1    0    0    0    0 -0.00000000000E+00 -0.00000000000E+00 -0.45593999997E+02  0.45594000000E+02  0.51100000000E-03 0.  1.
    9900012    2    1    2    0    0 -0.53440690315E+01  0.36787590579E+02 -0.16470590854E+02  0.50528852721E+02  0.29999978330E+02 0.  0.
         12    1    1    2    0    0  0.53440690315E+01 -0.36787590579E+02  0.16470590854E+02  0.40659147279E+02  0.00000000000E+00 0. -1.
         11    1    3    3    0    0 -0.65042510190E+01  0.65025536123E+01  0.96082115493E+00  0.92472516107E+01  0.51100000000E-03 0. -1.
        -11    1    3    3    0    0  0.98839485204E+01  0.25394656812E+02 -0.14456336009E+02  0.30847474516E+02  0.51100000000E-03 0.  1.
        -12    1    3    3    0    0 -0.87237665328E+01  0.48903801548E+01 -0.29750759999E+01  0.10434126594E+02  0.00000000000E+00 0.  1.
</event>
<event>
 7    1  0.3041451E-011  0.5052886E+02  0.7816164E-02  0.1300439E+00
        -11   -1    0    0    0    0  0.00000000000E+00  0.00000000000E+00  0.45593999997E+02  0.45594000000E+02  0.51100000000E-03 0. -1.
         11   -1    0    0    0    0 -0.00000000000E+00 -0.00000000000E+00 -0.45593999997E+02  0.45594000000E+02  0.51100000000E-03 0.  1.
    9900012    2    1    2    0    0 -0.13369384310E+02 -0.28117260915E+02 -0.26150431441E+02  0.50528857575E+02  0.29999993084E+02 0.  0.
         12    1    1    2    0    0  0.13369384310E+02  0.28117260915E+02  0.26150431441E+02  0.40659142425E+02  0.00000000000E+00 0. -1.
         11    1    3    3    0    0 -0.93303379035E+01  0.17115283864E+01 -0.12964200396E+02  0.16064091228E+02  0.51100000000E-03 0. -1.
        -11    1    3    3    0    0  0.29329701932E+01 -0.76963207715E+01 -0.11249342258E+01  0.83127098377E+01  0.51100000000E-03 0.  1.
         12    1    3    3    0    0 -0.69720165993E+01 -0.22132468530E+02 -0.12061296819E+02  0.26152056509E+02  0.00000000000E+00 0. -1.
</event>
<event>
 7    1  0.3041451E-011  0.5052887E+02  0.7816164E-02  0.1300439E+00
        -11   -1    0    0    0    0  0.00000000000E+00  0.00000000000E+00  0.45593999997E+02  0.45594000000E+02  0.51100000000E-03 0.  1.
         11   -1    0    0    0    0 -0.00000000000E+00 -0.00000000000E+00 -0.45593999997E+02  0.45594000000E+02  0.51100000000E-03 0. -1.
    9900012    2    1    2    0    0  0.35176974987E+01  0.29371615741E+02  0.27894425433E+02  0.50528868465E+02  0.30000026187E+02 0.  0.
         12    1    1    2    0    0 -0.35176974987E+01 -0.29371615741E+02 -0.27894425433E+02  0.40659131535E+02  0.00000000000E+00 0. -1.
         11    1    3    3    0    0 -0.66819693380E+01  0.98231055236E+00  0.19739401439E+01  0.70363405409E+01  0.51100000000E-03 0. -1.
        -11    1    3    3    0    0  0.12216924499E+01  0.25446963268E+02  0.18803488829E+02  0.31664043716E+02  0.51100000000E-03 0.  1.
        -12    1    3    3    0    0  0.89779743868E+01  0.29423419198E+01  0.71169964598E+01  0.11828484209E+02  0.00000000000E+00 0.  1.
</event>
<event>
 7    1  0.3041451E-011  0.5052886E+02  0.7816164E-02  0.1300439E+00
        -11   -1    0    0    0    0  0.00000000000E+00  0.00000000000E+00  0.45593999997E+02  0.45594000000E+02  0.51100000000E-03 0.  1.
         11   -1    0    0    0    0 -0.00000000000E+00 -0.00000000000E+00 -0.45593999997E+02  0.45594000000E+02  0.51100000000E-03 0. -1.
    9900012    2    1    2    0    0 -0.14066156749E+02 -0.61625043847E+01  0.37647478261E+02  0.50528857788E+02  0.29999993733E+02 0.  0.
         12    1    1    2    0    0  0.14066156749E+02  0.61625043847E+01 -0.37647478261E+02  0.40659142212E+02  0.00000000000E+00 0. -1.
         11    1    3    3    0    0 -0.17937906704E+02 -0.26993925694E+00  0.93785329615E+01  0.20243474131E+02  0.51100000000E-03 0. -1.
        -11    1    3    3    0    0  0.42193561394E+01 -0.20688661975E+01  0.24349111221E+02  0.24798435255E+02  0.51100000000E-03 0.  1.
         12    1    3    3    0    0 -0.34760618488E+00 -0.38236989303E+01  0.39198340786E+01  0.54869484026E+01  0.00000000000E+00 0. -1.
</event>
<event>
 7    1  0.3041451E-011  0.5052886E+02  0.7816164E-02  0.1300439E+00
        -11   -1    0    0    0    0  0.00000000000E+00  0.00000000000E+00  0.45593999997E+02  0.45594000000E+02  0.51100000000E-03 0. -1.
         11   -1    0    0    0    0 -0.00000000000E+00 -0.00000000000E+00 -0.45593999997E+02  0.45594000000E+02  0.51100000000E-03 0.  1.
    9900012    2    1    2    0    0 -0.26165321836E+02  0.20149515039E+02 -0.23717893566E+02  0.50528862057E+02  0.30000006707E+02 0.  0.
         12    1    1    2    0    0  0.26165321836E+02 -0.20149515039E+02  0.23717893566E+02  0.40659137943E+02  0.00000000000E+00 0. -1.
         11    1    3    3    0    0 -0.13126980478E+02  0.73285802417E+01 -0.19748773722E+02  0.24820148440E+02  0.51100000000E-03 0.  1.
        -11    1    3    3    0    0 -0.13341053404E+02  0.16775311086E+02 -0.32651733195E+01  0.21680777777E+02  0.51100000000E-03 0. -1.
        -12    1    3    3    0    0  0.30271204527E+00 -0.39543762886E+01 -0.70394652494E+00  0.40279358392E+01  0.00000000000E+00 0.  1.
</event>
<event>
 7    1  0.3041451E-011  0.5052886E+02  0.7816164E-02  0.1300439E+00
        -11   -1    0    0    0    0  0.00000000000E+00  0.00000000000E+00  0.45593999997E+02  0.45594000000E+02  0.51100000000E-03 0.  1.
         11   -1    0    0    0    0 -0.00000000000E+00 -0.00000000000E+00 -0.45593999997E+02  0.45594000000E+02  0.51100000000E-03 0. -1.
    9900012    2    1    2    0    0 -0.10333093195E+02  0.38970498151E+02 -0.52624111866E+01  0.50528861880E+02  0.30000006171E+02 0.  0.
         12    1    1    2    0    0  0.10333093195E+02 -0.38970498151E+02  0.52624111866E+01  0.40659138120E+02  0.00000000000E+00 0. -1.
         11    1    3    3    0    0  0.50378449971E+01  0.12192853795E+02  0.28342838105E+01  0.13493655208E+02  0.51100000000E-03 0. -1.
        -11    1    3    3    0    0 -0.17986125298E+02  0.15452965371E+02 -0.17124561237E+01  0.23774510472E+02  0.51100000000E-03 0.  1.
        -12    1    3    3    0    0  0.26151871051E+01  0.11324678986E+02 -0.63842388733E+01  0.13260696200E+02  0.00000000000E+00 0.  1.
</event>
<event>
 7    1  0.3041451E-011  0.5052888E+02  0.7816164E-02  0.1300439E+00
        -11   -1    0    0    0    0  0.00000000000E+00  0.00000000000E+00  0.45593999997E+02  0.45594000000E+02  0.51100000000E-03 0.  1.
         11   -1    0    0    0    0 -0.00000000000E+00 -0.00000000000E+00 -0.45593999997E+02  0.45594000000E+02  0.51100000000E-03 0. -1.
    9900012    2    1    2    0    0  0.33190783107E+02  0.35419001128E+01  0.23216185380E+02  0.50528875523E+02  0.30000047640E+02 0.  0.
         12    1    1    2    0    0 -0.33190783107E+02 -0.35419001128E+01 -0.23216185380E+02  0.40659124477E+02  0.00000000000E+00 0. -1.
         11    1    3    3    0    0  0.19163582845E+01  0.67800069993E+01  0.40350418935E+00  0.70571764806E+01  0.51100000000E-03 0. -1.
        -11    1    3    3    0    0  0.32862724990E+02 -0.50252073558E+01  0.23799092242E+02  0.40885305362E+02  0.51100000000E-03 0.  1.
        -12    1    3    3    0    0 -0.15883001674E+01  0.17871004693E+01 -0.98641105174E+00  0.25863936808E+01  0.00000000000E+00 0.  1.
</event>
<event>
 7    1  0.3041451E-011  0.5052887E+02  0.7816164E-02  0.1300439E+00
        -11   -1    0    0    0    0  0.00000000000E+00  0.00000000000E+00  0.45593999997E+02  0.45594000000E+02  0.51100000000E-03 0.  1.
         11   -1    0    0    0    0 -0.00000000000E+00 -0.00000000000E+00 -0.45593999997E+02  0.45594000000E+02  0.51100000000E-03 0. -1.
    9900012    2    1    2    0    0  0.33324520017E+02  0.95804093517E+01  0.21233398965E+02  0.50528866840E+02  0.30000021248E+02 0.  0.
         12    1    1    2    0    0 -0.33324520017E+02 -0.95804093517E+01 -0.21233398965E+02  0.40659133160E+02  0.00000000000E+00 0. -1.
         11    1    3    3    0    0  0.82947177090E+01 -0.14412976853E+01 -0.52321706191E+01  0.99123806696E+01  0.51100000000E-03 0. -1.
        -11    1    3    3    0    0  0.18367378609E+02  0.80606731831E+01  0.95891784573E+01  0.22232575040E+02  0.51100000000E-03 0.  1.
         12    1    3    3    0    0  0.66624236983E+01  0.29610338538E+01  0.16876391127E+02  0.18383911131E+02  0.00000000000E+00 0. -1.
</event>
<event>
 7    1  0.3041451E-011  0.5052886E+02  0.7816164E-02  0.1300439E+00
        -11   -1    0    0    0    0  0.00000000000E+00  0.00000000000E+00  0.45593999997E+02  0.45594000000E+02  0.51100000000E-03 0.  1.
         11   -1    0    0    0    0 -0.00000000000E+00 -0.00000000000E+00 -0.45593999997E+02  0.45594000000E+02  0.51100000000E-03 0. -1.
    9900012    2    1    2    0    0  0.31680035366E+02  0.23565447053E+02  0.97062199516E+01  0.50528860297E+02  0.30000001359E+02 0.  0.
         12    1    1    2    0    0 -0.31680035366E+02 -0.23565447053E+02 -0.97062199516E+01  0.40659139703E+02  0.00000000000E+00 0. -1.
         11    1    3    3    0    0  0.86069866065E+01  0.11208424597E+01 -0.14046881250E+01  0.87925909295E+01  0.51100000000E-03 0. -1.
        -11    1    3    3    0    0  0.26149063824E+02  0.18799711795E+02  0.15051776398E+02  0.35549383615E+02  0.51100000000E-03 0.  1.
        -12    1    3    3    0    0 -0.30760150640E+01  0.36448927987E+01 -0.39408683214E+01  0.61868857525E+01  0.00000000000E+00 0.  1.
</event>
<event>
 7    1  0.3041451E-011  0.5052886E+02  0.7816164E-02  0.1300439E+00
        -11   -1    0    0    0    0  0.00000000000E+00  0.00000000000E+00  0.45593999997E+02  0.45594000000E+02  0.51100000000E-03 0.  1.
         11   -1    0    0    0    0 -0.00000000000E+00 -0.00000000000E+00 -0.45593999997E+02  0.45594000000E+02  0.51100000000E-03 0. -1.
    9900012    2    1    2    0    0 -0.25726910809E+02 -0.21011713189E+02  0.23447809198E+02  0.50528858505E+02  0.29999995913E+02 0.  0.
         12    1    1    2    0    0  0.25726910809E+02  0.21011713189E+02 -0.23447809198E+02  0.40659141495E+02  0.00000000000E+00 0. -1.
         11    1    3    3    0    0 -0.12867360691E+02 -0.16784735686E+02 -0.10308688413E+01  0.21174489699E+02  0.51100000000E-03 0. -1.
        -11    1    3    3    0    0 -0.12927274415E+02 -0.12074507808E+01  0.17874350006E+02  0.22092187524E+02  0.51100000000E-03 0.  1.
         12    1    3    3    0    0  0.67724297482E-01 -0.30195267224E+01  0.66043280332E+01  0.72621812823E+01  0.00000000000E+00 0. -1.
</event>
<event>
 7    1  0.3041451E-011  0.5052886E+02  0.7816164E-02  0.1300439E+00
        -11   -1    0    0    0    0  0.00000000000E+00  0.00000000000E+00  0.45593999997E+02  0.45594000000E+02  0.51100000000E-03 0.  1.
         11   -1    0    0    0    0 -0.00000000000E+00 -0.00000000000E+00 -0.45593999997E+02  0.45594000000E+02  0.51100000000E-03 0. -1.
    9900012    2    1    2    0    0  0.39613519517E+02  0.80253200538E+01  0.44192014390E+01  0.50528855495E+02  0.29999986764E+02 0.  0.
         12    1    1    2    0    0 -0.39613519517E+02 -0.80253200538E+01 -0.44192014390E+01  0.40659144505E+02  0.00000000000E+00 0. -1.
         11    1    3    3    0    0  0.28509031901E+02 -0.54262777774E+01 -0.25915583869E+01  0.29136327250E+02  0.51100000000E-03 0.  1.
        -11    1    3    3    0    0  0.39288234737E+01  0.46471886625E+01 -0.24993740324E+01  0.65786691031E+01  0.51100000000E-03 0. -1.
         12    1    3    3    0    0  0.71756641420E+01  0.88044091687E+01  0.95101338584E+01  0.14813859142E+02  0.00000000000E+00 0. -1.
</event>
<event>
 7    1  0.3041451E-011  0.5052886E+02  0.7816164E-02  0.1300439E+00
        -11   -1    0    0    0    0  0.00000000000E+00  0.00000000000E+00  0.45593999997E+02  0.45594000000E+02  0.51100000000E-03 0.  1.
         11   -1    0    0    0    0 -0.00000000000E+00 -0.00000000000E+00 -0.45593999997E+02  0.45594000000E+02  0.51100000000E-03 0. -1.
    9900012    2    1    2    0    0 -0.24960580890E+02 -0.20053573697E+02  0.25059717314E+02  0.50528857753E+02  0.29999993626E+02 0.  0.
         12    1    1    2    0    0  0.24960580890E+02  0.20053573697E+02 -0.25059717314E+02  0.40659142247E+02  0.00000000000E+00 0. -1.
         11    1    3    3    0    0 -0.23138387245E+02 -0.19539180776E+02  0.15115932151E+02  0.33847539863E+02  0.51100000000E-03 0. -1.
        -11    1    3    3    0    0  0.37169744361E+01  0.19251219239E+01  0.97669531389E+01  0.10626164278E+02  0.51100000000E-03 0.  1.
        -12    1    3    3    0    0 -0.55391680806E+01 -0.24395148455E+01  0.17683202502E+00  0.60551536125E+01  0.00000000000E+00 0.  1.
</event>
<event>
 7    1  0.3041451E-011  0.5052886E+02  0.7816164E-02  0.1300439E+00
        -11   -1    0    0    0    0  0.00000000000E+00  0.00000000000E+00  0.45593999997E+02  0.45594000000E+02  0.51100000000E-03 0.  1.
         11   -1    0    0    0    0 -0.00000000000E+00 -0.00000000000E+00 -0.45593999997E+02  0.45594000000E+02  0.51100000000E-03 0. -1.
    9900012    2    1    2    0    0 -0.22166508841E+02 -0.27636324130E+02  0.19951060676E+02  0.50528863908E+02  0.30000012335E+02 0.  0.
         12    1    1    2    0    0  0.22166508841E+02  0.27636324130E+02 -0.19951060676E+02  0.40659136092E+02  0.00000000000E+00 0. -1.
         11    1    3    3    0    0  0.10140492293E+01 -0.76288978940E+01  0.54482911295E+01  0.94293295313E+01  0.51100000000E-03 0. -1.
        -11    1    3    3    0    0 -0.10876679539E+02  0.38762233643E+01  0.34812773951E+01  0.12060122633E+02  0.51100000000E-03 0.  1.
        -12    1    3    3    0    0 -0.12303878531E+02 -0.23883649601E+02  0.11021492152E+02  0.29039411743E+02  0.00000000000E+00 0.  1.
</event>
<event>
 7    1  0.3041451E-011  0.5052887E+02  0.7816164E-02  0.1300439E+00
        -11   -1    0    0    0    0  0.00000000000E+00  0.00000000000E+00  0.45593999997E+02  0.45594000000E+02  0.51100000000E-03 0. -1.
         11   -1    0    0    0    0 -0.00000000000E+00 -0.00000000000E+00 -0.45593999997E+02  0.45594000000E+02  0.51100000000E-03 0.  1.
    9900012    2    1    2    0    0  0.27206894566E+02  0.20203239661E+02 -0.22467290148E+02  0.50528866569E+02  0.30000020424E+02 0.  0.
         12    1    1    2    0    0 -0.27206894566E+02 -0.20203239661E+02  0.22467290148E+02  0.40659133431E+02  0.00000000000E+00 0. -1.
         11    1    3    3    0    0 -0.69054116242E+00  0.10010597979E+01 -0.99815139135E+01  0.10055326354E+02  0.51100000000E-03 0. -1.
        -11    1    3    3    0    0  0.78374466598E+01  0.15345947868E+02 -0.15443827501E+01  0.17300543473E+02  0.51100000000E-03 0.  1.
         12    1    3    3    0    0  0.20059989069E+02  0.38562319951E+01 -0.10941393484E+02  0.23172996743E+02  0.00000000000E+00 0. -1.
</event>
<event>
 7    1  0.3041451E-011  0.5052886E+02  0.7816164E-02  0.1300439E+00
        -11   -1    0    0    0    0  0.00000000000E+00  0.00000000000E+00  0.45593999997E+02  0.45594000000E+02  0.51100000000E-03 0.  1.
         11   -1    0    0    0    0 -0.00000000000E+00 -0.00000000000E+00 -0.45593999997E+02  0.45594000000E+02  0.51100000000E-03 0. -1.
    9900012    2    1    2    0    0 -0.34094365080E+02 -0.21861234018E+02 -0.35813849429E+01  0.50528860792E+02  0.30000002865E+02 0.  0.
         12    1    1    2    0    0  0.34094365080E+02  0.21861234018E+02  0.35813849429E+01  0.40659139208E+02  0.00000000000E+00 0. -1.
         11    1    3    3    0    0 -0.22811055640E+02 -0.27213851190E+01 -0.47262567908E+01  0.23453948492E+02  0.51100000000E-03 0. -1.
        -11    1    3    3    0    0 -0.10888437596E+02 -0.21373500070E+02 -0.92382237327E+00  0.24004958375E+02  0.51100000000E-03 0.  1.
        -12    1    3    3    0    0 -0.39487184323E+00  0.22336511704E+01  0.20686942212E+01  0.30699539255E+01  0.00000000000E+00 0.  1.
</event>
<event>
 7    1  0.3041451E-011  0.5052895E+02  0.7816164E-02  0.1300438E+00
        -11   -1    0    0    0    0  0.00000000000E+00  0.00000000000E+00  0.45593999997E+02  0.45594000000E+02  0.51100000000E-03 0. -1.
         11   -1    0    0    0    0 -0.00000000000E+00 -0.00000000000E+00 -0.45593999997E+02  0.45594000000E+02  0.51100000000E-03 0.  1.
    9900012    2    1    2    0    0  0.22380598476E+02 -0.85392740300E+01 -0.32853426950E+02  0.50528953633E+02  0.30000285061E+02 0.  0.
         12    1    1    2    0    0 -0.22380598476E+02  0.85392740300E+01  0.32853426950E+02  0.40659046367E+02  0.00000000000E+00 0. -1.
         11    1    3    3    0    0  0.28950759836E+01 -0.66033533007E+01  0.27485692854E+01  0.77162408687E+01  0.51100000000E-03 0. -1.
        -11    1    3    3    0    0  0.21091252466E+02 -0.32255315069E+01 -0.29760055821E+02  0.36618382089E+02  0.51100000000E-03 0.  1.
        -12    1    3    3    0    0 -0.16057299737E+01  0.12896107776E+01 -0.58419404144E+01  0.61943306750E+01  0.00000000000E+00 0.  1.
</event>
<event>
 7    1  0.3041451E-011  0.5052886E+02  0.7816164E-02  0.1300439E+00
        -11   -1    0    0    0    0  0.00000000000E+00  0.00000000000E+00  0.45593999997E+02  0.45594000000E+02  0.51100000000E-03 0.  1.
         11   -1    0    0    0    0 -0.00000000000E+00 -0.00000000000E+00 -0.45593999997E+02  0.45594000000E+02  0.51100000000E-03 0. -1.
    9900012    2    1    2    0    0 -0.28914820949E+02  0.48646150794E+01  0.28167971293E+02  0.50528856413E+02  0.29999989554E+02 0.  0.
         12    1    1    2    0    0  0.28914820949E+02 -0.48646150794E+01 -0.28167971293E+02  0.40659143587E+02  0.00000000000E+00 0. -1.
         11    1    3    3    0    0  0.36069776641E+01  0.68031369736E+01  0.18789483979E+01  0.79261218697E+01  0.51100000000E-03 0. -1.
        -11    1    3    3    0    0 -0.25013918616E+02 -0.46613441048E+01  0.18613900565E+02  0.31526204147E+02  0.51100000000E-03 0.  1.
         12    1    3    3    0    0 -0.75078799975E+01  0.27228222106E+01  0.76751223308E+01  0.11076530397E+02  0.00000000000E+00 0. -1.
</event>
<event>
 7    1  0.3041451E-011  0.5052886E+02  0.7816164E-02  0.1300439E+00
        -11   -1    0    0    0    0  0.00000000000E+00  0.00000000000E+00  0.45593999997E+02  0.45594000000E+02  0.51100000000E-03 0.  1.
         11   -1    0    0    0    0 -0.00000000000E+00 -0.00000000000E+00 -0.45593999997E+02  0.45594000000E+02  0.51100000000E-03 0. -1.
    9900012    2    1    2    0    0  0.26378481770E+02 -0.30185598187E+02 -0.67949436817E+01  0.50528857141E+02  0.29999991766E+02 0.  0.
         12    1    1    2    0    0 -0.26378481770E+02  0.30185598187E+02  0.67949436817E+01  0.40659142859E+02  0.00000000000E+00 0. -1.
         11    1    3    3    0    0  0.16738350882E+02 -0.31820368508E+02 -0.12771404239E+02  0.38155170144E+02  0.51100000000E-03 0. -1.
        -11    1    3    3    0    0  0.87806821600E+01  0.66342728477E+00  0.65308028097E+01  0.10963206673E+02  0.51100000000E-03 0.  1.
         12    1    3    3    0    0  0.85944872806E+00  0.97134303644E+00 -0.55434225242E+00  0.14104803237E+01  0.00000000000E+00 0. -1.
</event>
<event>
 7    1  0.3041451E-011  0.5052886E+02  0.7816164E-02  0.1300439E+00
        -11   -1    0    0    0    0  0.00000000000E+00  0.00000000000E+00  0.45593999997E+02  0.45594000000E+02  0.51100000000E-03 0.  1.
         11   -1    0    0    0    0 -0.00000000000E+00 -0.00000000000E+00 -0.45593999997E+02  0.45594000000E+02  0.51100000000E-03 0. -1.
    9900012    2    1    2    0    0  0.27551057544E+02  0.29049259530E+02  0.70884023070E+01  0.50528859597E+02  0.29999999231E+02 0.  0.
         12    1    1    2    0    0 -0.27551057544E+02 -0.29049259530E+02 -0.70884023070E+01  0.40659140403E+02  0.00000000000E+00 0. -1.
         11    1    3    3    0    0  0.72432756775E+01  0.19551205823E+02  0.42181254689E+01  0.21272218370E+02  0.51100000000E-03 0. -1.
        -11    1    3    3    0    0  0.68522542348E+01  0.71805651438E+00 -0.74605122082E+01  0.10155207331E+02  0.51100000000E-03 0.  1.
        -12    1    3    3    0    0  0.13455527632E+02  0.87799971932E+01  0.10330789046E+02  0.19101433896E+02  0.00000000000E+00 0.  1.
</event>
<event>
 7    1  0.3041451E-011  0.5052886E+02  0.7816164E-02  0.1300439E+00
        -11   -1    0    0    0    0  0.00000000000E+00  0.00000000000E+00  0.45593999997E+02  0.45594000000E+02  0.51100000000E-03 0.  1.
         11   -1    0    0    0    0 -0.00000000000E+00 -0.00000000000E+00 -0.45593999997E+02  0.45594000000E+02  0.51100000000E-03 0. -1.
    9900012    2    1    2    0    0  0.11786824614E+02 -0.38862240456E+02 -0.19905596426E+01  0.50528864552E+02  0.30000014291E+02 0.  0.
         12    1    1    2    0    0 -0.11786824614E+02  0.38862240456E+02  0.19905596426E+01  0.40659135448E+02  0.00000000000E+00 0. -1.
         11    1    3    3    0    0  0.30788789754E+01 -0.91196064998E+01 -0.11900745962E+02  0.15306027348E+02  0.51100000000E-03 0. -1.
        -11    1    3    3    0    0  0.92414944220E+01 -0.13231829225E+02  0.36441187634E+00  0.16143708374E+02  0.51100000000E-03 0.  1.
         12    1    3    3    0    0 -0.53354878336E+00 -0.16510804731E+02  0.95457744435E+01  0.19079128829E+02  0.00000000000E+00 0. -1.
</event>
<event>
 7    1  0.3041451E-011  0.5052890E+02  0.7816164E-02  0.1300439E+00
        -11   -1    0    0    0    0  0.00000000000E+00  0.00000000000E+00  0.45593999997E+02  0.45594000000E+02  0.51100000000E-03 0.  1.
         11   -1    0    0    0    0 -0.00000000000E+00 -0.00000000000E+00 -0.45593999997E+02  0.45594000000E+02  0.51100000000E-03 0. -1.
    9900012    2    1    2    0    0  0.90204596610E+01 -0.27875322845E+02  0.28191495173E+02  0.50528896268E+02  0.30000110697E+02 0.  0.
         12    1    1    2    0    0 -0.90204596610E+01  0.27875322845E+02 -0.28191495173E+02  0.40659103732E+02  0.00000000000E+00 0. -1.
         11    1    3    3    0    0 -0.45074646432E+00 -0.30390394883E+02  0.19632204555E+02  0.36182906592E+02  0.51100000000E-03 0.  1.
        -11    1    3    3    0    0  0.33689566954E+01  0.34590474145E+01  0.58970923348E+01  0.76217174244E+01  0.51100000000E-03 0. -1.
        -12    1    3    3    0    0  0.61022494299E+01 -0.94397537650E+00  0.26621982827E+01  0.67242722515E+01  0.00000000000E+00 0.  1.
</event>
<event>
 7    1  0.3041451E-011  0.5052886E+02  0.7816164E-02  0.1300439E+00
        -11   -1    0    0    0    0  0.00000000000E+00  0.00000000000E+00  0.45593999997E+02  0.45594000000E+02  0.51100000000E-03 0.  1.
         11   -1    0    0    0    0 -0.00000000000E+00 -0.00000000000E+00 -0.45593999997E+02  0.45594000000E+02  0.51100000000E-03 0. -1.
    9900012    2    1    2    0    0  0.28020143076E+02 -0.13314615463E+02  0.26282283932E+02  0.50528857712E+02  0.29999993500E+02 0.  0.
         12    1    1    2    0    0 -0.28020143076E+02  0.13314615463E+02 -0.26282283932E+02  0.40659142288E+02  0.00000000000E+00 0. -1.
         11    1    3    3    0    0  0.20890175604E+01 -0.11325516574E+02  0.84480301373E+00  0.11547511093E+02  0.51100000000E-03 0. -1.
        -11    1    3    3    0    0  0.77580126898E+01  0.58623697614E+01  0.77584621198E+01  0.12439769887E+02  0.51100000000E-03 0.  1.
        -12    1    3    3    0    0  0.18173112826E+02 -0.78514686504E+01  0.17679018798E+02  0.26541576732E+02  0.00000000000E+00 0.  1.
</event>
<event>
 7    1  0.3041451E-011  0.5052887E+02  0.7816164E-02  0.1300439E+00
        -11   -1    0    0    0    0  0.00000000000E+00  0.00000000000E+00  0.45593999997E+02  0.45594000000E+02  0.51100000000E-03 0. -1.
         11   -1    0    0    0    0 -0.00000000000E+00 -0.00000000000E+00 -0.45593999997E+02  0.45594000000E+02  0.51100000000E-03 0.  1.
    9900012    2    1    2    0    0  0.10347534358E+02  0.37888624596E+02 -0.10514076237E+02  0.50528866460E+02  0.30000020093E+02 0.  0.
         12    1    1    2    0    0 -0.10347534358E+02 -0.37888624596E+02  0.10514076237E+02  0.40659133540E+02  0.00000000000E+00 0. -1.
         11    1    3    3    0    0  0.78375008022E+01  0.83491075775E+00  0.28294274159E+01  0.83743151697E+01  0.51100000000E-03 0. -1.
        -11    1    3    3    0    0  0.47191779292E+01  0.33561988077E+02 -0.15749961698E+02  0.37372971219E+02  0.51100000000E-03 0.  1.
         12    1    3    3    0    0 -0.22091443739E+01  0.34917257613E+01  0.24064580449E+01  0.47815800713E+01  0.00000000000E+00 0. -1.
</event>
<event>
 7    1  0.3041451E-011  0.5052882E+02  0.7816164E-02  0.1300439E+00
        -11   -1    0    0    0    0  0.00000000000E+00  0.00000000000E+00  0.45593999997E+02  0.45594000000E+02  0.51100000000E-03 0. -1.
         11   -1    0    0    0    0 -0.00000000000E+00 -0.00000000000E+00 -0.45593999997E+02  0.45594000000E+02  0.51100000000E-03 0.  1.
    9900012    2    1    2    0    0  0.30620279014E+02 -0.26595607709E+02  0.28707276809E+01  0.50528820056E+02  0.29999879042E+02 0.  0.
         12    1    1    2    0    0 -0.30620279014E+02  0.26595607709E+02 -0.28707276809E+01  0.40659179944E+02  0.00000000000E+00 0. -1.
         11    1    3    3    0    0  0.31121792266E+02 -0.24188243585E+02  0.84640172926E+01  0.40314720271E+02  0.51100000000E-03 0. -1.
        -11    1    3    3    0    0 -0.31386996800E+01  0.15759980138E+01 -0.36247481543E+01  0.50471779109E+01  0.51100000000E-03 0.  1.
        -12    1    3    3    0    0  0.26371864281E+01 -0.39833621381E+01 -0.19685414574E+01  0.51669218738E+01  0.00000000000E+00 0.  1.
</event>
<event>
 7    1  0.3041451E-011  0.5052886E+02  0.7816164E-02  0.1300439E+00
        -11   -1    0    0    0    0  0.00000000000E+00  0.00000000000E+00  0.45593999997E+02  0.45594000000E+02  0.51100000000E-03 0. -1.
         11   -1    0    0    0    0 -0.00000000000E+00 -0.00000000000E+00 -0.45593999997E+02  0.45594000000E+02  0.51100000000E-03 0.  1.
    9900012    2    1    2    0    0 -0.55525162041E+01  0.36941670983E+02 -0.16051418163E+02  0.50528861836E+02  0.30000006037E+02 0.  0.
         12    1    1    2    0    0  0.55525162041E+01 -0.36941670983E+02  0.16051418163E+02  0.40659138164E+02  0.00000000000E+00 0. -1.
         11    1    3    3    0    0  0.94443684538E+01  0.85780029996E+01 -0.90017200062E+01  0.15614390615E+02  0.51100000000E-03 0.  1.
        -11    1    3    3    0    0 -0.94773892195E+01  0.25412882535E+02 -0.86241916752E+01  0.28460713053E+02  0.51100000000E-03 0. -1.
         12    1    3    3    0    0 -0.55194954384E+01  0.29507854476E+01  0.15744935184E+01  0.64537581680E+01  0.00000000000E+00 0. -1.
</event>
<event>
 7    1  0.3041451E-011  0.5052887E+02  0.7816164E-02  0.1300439E+00
        -11   -1    0    0    0    0  0.00000000000E+00  0.00000000000E+00  0.45593999997E+02  0.45594000000E+02  0.51100000000E-03 0.  1.
         11   -1    0    0    0    0 -0.00000000000E+00 -0.00000000000E+00 -0.45593999997E+02  0.45594000000E+02  0.51100000000E-03 0. -1.
    9900012    2    1    2    0    0  0.24249551370E+02 -0.31838327626E+02  0.71725456223E+01  0.50528865007E+02  0.30000015676E+02 0.  0.
         12    1    1    2    0    0 -0.24249551370E+02  0.31838327626E+02 -0.71725456223E+01  0.40659134993E+02  0.00000000000E+00 0. -1.
         11    1    3    3    0    0 -0.16729358821E+01  0.39366463171E+01  0.10678723764E+01  0.44086562993E+01  0.51100000000E-03 0. -1.
        -11    1    3    3    0    0  0.12198366601E+02 -0.13591763621E+02  0.80583314963E+01  0.19961785813E+02  0.51100000000E-03 0.  1.
         12    1    3    3    0    0  0.13724120651E+02 -0.22183210321E+02 -0.19536582504E+01  0.26158422895E+02  0.00000000000E+00 0. -1.
</event>
<event>
 7    1  0.3041451E-011  0.5052886E+02  0.7816164E-02  0.1300439E+00
        -11   -1    0    0    0    0  0.00000000000E+00  0.00000000000E+00  0.45593999997E+02  0.45594000000E+02  0.51100000000E-03 0.  1.
         11   -1    0    0    0    0 -0.00000000000E+00 -0.00000000000E+00 -0.45593999997E+02  0.45594000000E+02  0.51100000000E-03 0. -1.
    9900012    2    1    2    0    0 -0.16316632308E+02 -0.30866764596E+02  0.20836891236E+02  0.50528859787E+02  0.29999999809E+02 0.  0.
         12    1    1    2    0    0  0.16316632308E+02  0.30866764596E+02 -0.20836891236E+02  0.40659140213E+02  0.00000000000E+00 0. -1.
         11    1    3    3    0    0  0.32630123176E+01 -0.16921162683E+02  0.17209914921E+01  0.17318626040E+02  0.51100000000E-03 0. -1.
        -11    1    3    3    0    0 -0.19787663871E+02 -0.14496024540E+02  0.14371167970E+02  0.28429154718E+02  0.51100000000E-03 0.  1.
        -12    1    3    3    0    0  0.20801924521E+00  0.55042262728E+00  0.47447317735E+01  0.47810790286E+01  0.00000000000E+00 0.  1.
</event>
<event>
 7    1  0.3041451E-011  0.5052886E+02  0.7816164E-02  0.1300439E+00
        -11   -1    0    0    0    0  0.00000000000E+00  0.00000000000E+00  0.45593999997E+02  0.45594000000E+02  0.51100000000E-03 0. -1.
         11   -1    0    0    0    0 -0.00000000000E+00 -0.00000000000E+00 -0.45593999997E+02  0.45594000000E+02  0.51100000000E-03 0.  1.
    9900012    2    1    2    0    0 -0.19811943245E+02 -0.21558813493E+02 -0.28211166609E+02  0.50528862579E+02  0.30000008295E+02 0.  0.
         12    1    1    2    0    0  0.19811943245E+02  0.21558813493E+02  0.28211166609E+02  0.40659137421E+02  0.00000000000E+00 0. -1.
         11    1    3    3    0    0  0.26171879829E+01 -0.71178160818E+00 -0.53242334738E+01  0.59752630352E+01  0.51100000000E-03 0. -1.
        -11    1    3    3    0    0 -0.18043917736E+02 -0.25795980140E+01 -0.16845912706E+02  0.24819791867E+02  0.51100000000E-03 0.  1.
         12    1    3    3    0    0 -0.43852134920E+01 -0.18267433871E+02 -0.60410204297E+01  0.19733807677E+02  0.00000000000E+00 0. -1.
</event>
<event>
 7    1  0.3041451E-011  0.5052888E+02  0.7816164E-02  0.1300439E+00
        -11   -1    0    0    0    0  0.00000000000E+00  0.00000000000E+00  0.45593999997E+02  0.45594000000E+02  0.51100000000E-03 0.  1.
         11   -1    0    0    0    0 -0.00000000000E+00 -0.00000000000E+00 -0.45593999997E+02  0.45594000000E+02  0.51100000000E-03 0. -1.
    9900012    2    1    2    0    0  0.23797695035E+02 -0.19807030830E+02  0.26353662956E+02  0.50528876664E+02  0.30000051108E+02 0.  0.
         12    1    1    2    0    0 -0.23797695035E+02  0.19807030830E+02 -0.26353662956E+02  0.40659123336E+02  0.00000000000E+00 0. -1.
         11    1    3    3    0    0  0.21830100359E+02 -0.16270670523E+02  0.15332546956E+02  0.31246999813E+02  0.51100000000E-03 0. -1.
        -11    1    3    3    0    0  0.17791541755E+00 -0.39822727289E+01  0.14665367799E+02  0.15197472254E+02  0.51100000000E-03 0.  1.
         12    1    3    3    0    0  0.17896792585E+01  0.44591242146E+00 -0.36442517987E+01  0.40844045965E+01  0.00000000000E+00 0. -1.
</event>
<event>
 7    1  0.3041451E-011  0.5052886E+02  0.7816164E-02  0.1300439E+00
        -11   -1    0    0    0    0  0.00000000000E+00  0.00000000000E+00  0.45593999997E+02  0.45594000000E+02  0.51100000000E-03 0.  1.
         11   -1    0    0    0    0 -0.00000000000E+00 -0.00000000000E+00 -0.45593999997E+02  0.45594000000E+02  0.51100000000E-03 0. -1.
    9900012    2    1    2    0    0 -0.35559185856E+01 -0.16721825343E+02  0.36890404502E+02  0.50528856574E+02  0.29999990042E+02 0.  0.
         12    1    1    2    0    0  0.35559185856E+01  0.16721825343E+02 -0.36890404502E+02  0.40659143426E+02  0.00000000000E+00 0. -1.
         11    1    3    3    0    0  0.91868382068E+01 -0.23687353422E+01  0.17996848182E+01  0.96564884438E+01  0.51100000000E-03 0. -1.
        -11    1    3    3    0    0 -0.70023507893E+01 -0.12109766027E+02  0.18640621908E+02  0.23305624539E+02  0.51100000000E-03 0.  1.
         12    1    3    3    0    0 -0.57404060031E+01 -0.22433239743E+01  0.16450097776E+02  0.17566743591E+02  0.00000000000E+00 0. -1.
</event>
<event>
 7    1  0.3041451E-011  0.5052886E+02  0.7816164E-02  0.1300439E+00
        -11   -1    0    0    0    0  0.00000000000E+00  0.00000000000E+00  0.45593999997E+02  0.45594000000E+02  0.51100000000E-03 0. -1.
         11   -1    0    0    0    0 -0.00000000000E+00 -0.00000000000E+00 -0.45593999997E+02  0.45594000000E+02  0.51100000000E-03 0.  1.
    9900012    2    1    2    0    0  0.15480948514E+02 -0.37233955559E+02  0.52094898969E+01  0.50528855906E+02  0.29999988013E+02 0.  0.
         12    1    1    2    0    0 -0.15480948514E+02  0.37233955559E+02 -0.52094898969E+01  0.40659144094E+02  0.00000000000E+00 0. -1.
         11    1    3    3    0    0  0.13225882557E+02 -0.35949732552E+02  0.84856667025E+01  0.39234089509E+02  0.51100000000E-03 0. -1.
        -11    1    3    3    0    0  0.24276794359E+01 -0.44554550970E+01  0.17346402205E+01  0.53622462197E+01  0.51100000000E-03 0.  1.
         12    1    3    3    0    0 -0.17261347866E+00  0.31712320906E+01 -0.50108170261E+01  0.59325201774E+01  0.00000000000E+00 0. -1.
</event>
<event>
 7    1  0.3041451E-011  0.5052888E+02  0.7816164E-02  0.1300439E+00
        -11   -1    0    0    0    0  0.00000000000E+00  0.00000000000E+00  0.45593999997E+02  0.45594000000E+02  0.51100000000E-03 0. -1.
         11   -1    0    0    0    0 -0.00000000000E+00 -0.00000000000E+00 -0.45593999997E+02  0.45594000000E+02  0.51100000000E-03 0.  1.
    9900012    2    1    2    0    0 -0.47105364419E+01  0.40291547574E+02  0.27506758668E+01  0.50528878303E+02  0.30000056089E+02 0.  0.
         12    1    1    2    0    0  0.47105364419E+01 -0.40291547574E+02 -0.27506758668E+01  0.40659121697E+02  0.00000000000E+00 0. -1.
         11    1    3    3    0    0 -0.48011764685E+01  0.29132256563E+02  0.57610850073E+01  0.30082050606E+02  0.51100000000E-03 0. -1.
        -11    1    3    3    0    0  0.83885126588E+01  0.43340706649E+01 -0.78515247307E+00  0.94745858919E+01  0.51100000000E-03 0.  1.
         12    1    3    3    0    0 -0.82978726322E+01  0.68252203463E+01 -0.22252566674E+01  0.10972241805E+02  0.00000000000E+00 0. -1.
</event>
<event>
 7    1  0.3041451E-011  0.5052877E+02  0.7816164E-02  0.1300439E+00
        -11   -1    0    0    0    0  0.00000000000E+00  0.00000000000E+00  0.45593999997E+02  0.45594000000E+02  0.51100000000E-03 0. -1.
         11   -1    0    0    0    0 -0.00000000000E+00 -0.00000000000E+00 -0.45593999997E+02  0.45594000000E+02  0.51100000000E-03 0.  1.
    9900012    2    1    2    0    0  0.19623671824E+02  0.34745855945E+02 -0.77980768173E+01  0.50528769766E+02  0.29999726179E+02 0.  0.
         12    1    1    2    0    0 -0.19623671824E+02 -0.34745855945E+02  0.77980768173E+01  0.40659230234E+02  0.00000000000E+00 0. -1.
         11    1    3    3    0    0 -0.15211496111E+01  0.10199650720E+02  0.32011681334E+01  0.10797881673E+02  0.51100000000E-03 0. -1.
        -11    1    3    3    0    0  0.77008819522E+01  0.20981968831E+01 -0.10968285714E+02  0.13565002940E+02  0.51100000000E-03 0.  1.
        -12    1    3    3    0    0  0.13443939483E+02  0.22448008342E+02 -0.30959236746E-01  0.26165885152E+02  0.00000000000E+00 0.  1.
</event>
<event>
 7    1  0.3041451E-011  0.5052886E+02  0.7816164E-02  0.1300439E+00
        -11   -1    0    0    0    0  0.00000000000E+00  0.00000000000E+00  0.45593999997E+02  0.45594000000E+02  0.51100000000E-03 0.  1.
         11   -1    0    0    0    0 -0.00000000000E+00 -0.00000000000E+00 -0.45593999997E+02  0.45594000000E+02  0.51100000000E-03 0. -1.
    9900012    2    1    2    0    0  0.19678524739E+02  0.47066531516E+01  0.35267105374E+02  0.50528860299E+02  0.30000001364E+02 0.  0.
         12    1    1    2    0    0 -0.19678524739E+02 -0.47066531516E+01 -0.35267105374E+02  0.40659139701E+02  0.00000000000E+00 0. -1.
         11    1    3    3    0    0 -0.15635602328E+01 -0.59492234640E+01  0.24803690534E+01  0.66325116908E+01  0.51100000000E-03 0. -1.
        -11    1    3    3    0    0  0.23718549079E+02  0.69533367123E+01  0.27236376079E+02  0.36779595485E+02  0.51100000000E-03 0.  1.
         12    1    3    3    0    0 -0.24764641070E+01  0.37025399033E+01  0.55503602411E+01  0.71167531231E+01  0.00000000000E+00 0. -1.
</event>
<event>
 7    1  0.3041451E-011  0.5052877E+02  0.7816164E-02  0.1300439E+00
        -11   -1    0    0    0    0  0.00000000000E+00  0.00000000000E+00  0.45593999997E+02  0.45594000000E+02  0.51100000000E-03 0.  1.
         11   -1    0    0    0    0 -0.00000000000E+00 -0.00000000000E+00 -0.45593999997E+02  0.45594000000E+02  0.51100000000E-03 0. -1.
    9900012    2    1    2    0    0 -0.31982421072E+02 -0.10411669049E+02  0.22845014869E+02  0.50528772088E+02  0.29999733237E+02 0.  0.
         12    1    1    2    0    0  0.31982421072E+02  0.10411669049E+02 -0.22845014869E+02  0.40659227912E+02  0.00000000000E+00 0. -1.
         11    1    3    3    0    0  0.23239864884E+01 -0.22593878209E+00  0.94636293165E+00  0.25194373561E+01  0.51100000000E-03 0. -1.
        -11    1    3    3    0    0 -0.32703278954E+02 -0.24173691554E+01  0.22924802846E+02  0.40011182359E+02  0.51100000000E-03 0.  1.
        -12    1    3    3    0    0 -0.16031286070E+01 -0.77683611119E+01 -0.10261509083E+01  0.79981523730E+01  0.00000000000E+00 0.  1.
</event>
<event>
 7    1  0.3041451E-011  0.5052886E+02  0.7816164E-02  0.1300439E+00
        -11   -1    0    0    0    0  0.00000000000E+00  0.00000000000E+00  0.45593999997E+02  0.45594000000E+02  0.51100000000E-03 0.  1.
         11   -1    0    0    0    0 -0.00000000000E+00 -0.00000000000E+00 -0.45593999997E+02  0.45594000000E+02  0.51100000000E-03 0. -1.
    9900012    2    1    2    0    0 -0.40161962709E+02  0.61681083028E+01 -0.14618050339E+01  0.50528859790E+02  0.29999999818E+02 0.  0.
         12    1    1    2    0    0  0.40161962709E+02 -0.61681083028E+01  0.14618050339E+01  0.40659140210E+02  0.00000000000E+00 0. -1.
         11    1    3    3    0    0  0.26837113057E+01  0.21645463636E+01 -0.56678033399E+01  0.66341210641E+01  0.51100000000E-03 0. -1.
        -11    1    3    3    0    0 -0.26226341574E+02  0.61403965693E+01  0.27404299212E+01  0.27074626845E+02  0.51100000000E-03 0.  1.
         12    1    3    3    0    0 -0.16619332440E+02 -0.21368346300E+01  0.14655683848E+01  0.16820111881E+02  0.00000000000E+00 0. -1.
</event>
<event>
 7    1  0.3041451E-011  0.5052886E+02  0.7816164E-02  0.1300439E+00
        -11   -1    0    0    0    0  0.00000000000E+00  0.00000000000E+00  0.45593999997E+02  0.45594000000E+02  0.51100000000E-03 0. -1.
         11   -1    0    0    0    0 -0.00000000000E+00 -0.00000000000E+00 -0.45593999997E+02  0.45594000000E+02  0.51100000000E-03 0.  1.
    9900012    2    1    2    0    0  0.37526915193E+02  0.15614387898E+02 -0.10425848918E+01  0.50528862570E+02  0.30000008268E+02 0.  0.
         12    1    1    2    0    0 -0.37526915193E+02 -0.15614387898E+02  0.10425848918E+01  0.40659137430E+02  0.00000000000E+00 0. -1.
         11    1    3    3    0    0 -0.15759818341E+01 -0.22589778947E+01  0.31255576422E+01  0.41660305695E+01  0.51100000000E-03 0. -1.
        -11    1    3    3    0    0  0.21494677580E+02  0.12977946698E+02 -0.10222682123E+02  0.27109988838E+02  0.51100000000E-03 0.  1.
        -12    1    3    3    0    0  0.17608219446E+02  0.48954190948E+01  0.60545395890E+01  0.19252843162E+02  0.00000000000E+00 0.  1.
</event>
<event>
 7    1  0.3041451E-011  0.5052886E+02  0.7816164E-02  0.1300439E+00
        -11   -1    0    0    0    0  0.00000000000E+00  0.00000000000E+00  0.45593999997E+02  0.45594000000E+02  0.51100000000E-03 0.  1.
         11   -1    0    0    0    0 -0.00000000000E+00 -0.00000000000E+00 -0.45593999997E+02  0.45594000000E+02  0.51100000000E-03 0. -1.
    9900012    2    1    2    0    0 -0.34293882472E+02  0.13602184200E+02  0.17090231588E+02  0.50528858275E+02  0.29999995214E+02 0.  0.
         12    1    1    2    0    0  0.34293882472E+02 -0.13602184200E+02 -0.17090231588E+02  0.40659141725E+02  0.00000000000E+00 0. -1.
         11    1    3    3    0    0 -0.61838032168E+01  0.15446467923E+02  0.45037004876E+01  0.17237056358E+02  0.51100000000E-03 0. -1.
        -11    1    3    3    0    0 -0.25904769434E+02  0.24218326365E+01  0.10544621747E+02  0.28073321870E+02  0.51100000000E-03 0.  1.
        -12    1    3    3    0    0 -0.22053098213E+01 -0.42661163599E+01  0.20419093539E+01  0.52184800482E+01  0.00000000000E+00 0.  1.
</event>
<event>
 7    1  0.3041451E-011  0.5052886E+02  0.7816164E-02  0.1300439E+00
        -11   -1    0    0    0    0  0.00000000000E+00  0.00000000000E+00  0.45593999997E+02  0.45594000000E+02  0.51100000000E-03 0.  1.
         11   -1    0    0    0    0 -0.00000000000E+00 -0.00000000000E+00 -0.45593999997E+02  0.45594000000E+02  0.51100000000E-03 0. -1.
    9900012    2    1    2    0    0  0.27862816649E+02  0.22964821185E+02  0.18693480364E+02  0.50528858694E+02  0.29999996485E+02 0.  0.
         12    1    1    2    0    0 -0.27862816649E+02 -0.22964821185E+02 -0.18693480364E+02  0.40659141306E+02  0.00000000000E+00 0. -1.
         11    1    3    3    0    0  0.34556897489E+01 -0.44147855937E+01 -0.42749299235E+01  0.70503297505E+01  0.51100000000E-03 0. -1.
        -11    1    3    3    0    0  0.20660234775E+02  0.21071339686E+02  0.17304033811E+02  0.34209300541E+02  0.51100000000E-03 0.  1.
         12    1    3    3    0    0  0.37468921252E+01  0.63082670927E+01  0.56643764764E+01  0.92692284025E+01  0.00000000000E+00 0. -1.
</event>
<event>
 7    1  0.3041451E-011  0.5052885E+02  0.7816164E-02  0.1300439E+00
        -11   -1    0    0    0    0  0.00000000000E+00  0.00000000000E+00  0.45593999997E+02  0.45594000000E+02  0.51100000000E-03 0.  1.
         11   -1    0    0    0    0 -0.00000000000E+00 -0.00000000000E+00 -0.45593999997E+02  0.45594000000E+02  0.51100000000E-03 0. -1.
    9900012    2    1    2    0    0 -0.28990371378E+02  0.13587495854E+02  0.25062016766E+02  0.50528851452E+02  0.29999974475E+02 0.  0.
         12    1    1    2    0    0  0.28990371378E+02 -0.13587495854E+02 -0.25062016766E+02  0.40659148548E+02  0.00000000000E+00 0. -1.
         11    1    3    3    0    0 -0.17823873457E+01  0.90350486698E+00 -0.23009576352E+01  0.30475616474E+01  0.51100000000E-03 0. -1.
        -11    1    3    3    0    0 -0.21384234926E+02  0.16145848856E+02  0.29988390055E+02  0.40215388559E+02  0.51100000000E-03 0.  1.
        -12    1    3    3    0    0 -0.58237491065E+01 -0.34618578681E+01 -0.26254156540E+01  0.72659012456E+01  0.00000000000E+00 0.  1.
</event>
<event>
 7    1  0.3041451E-011  0.5052885E+02  0.7816164E-02  0.1300439E+00
        -11   -1    0    0    0    0  0.00000000000E+00  0.00000000000E+00  0.45593999997E+02  0.45594000000E+02  0.51100000000E-03 0.  1.
         11   -1    0    0    0    0 -0.00000000000E+00 -0.00000000000E+00 -0.45593999997E+02  0.45594000000E+02  0.51100000000E-03 0. -1.
    9900012    2    1    2    0    0 -0.29182563148E+01  0.39577951193E+02  0.88450995775E+01  0.50528853094E+02  0.29999979466E+02 0.  0.
         12    1    1    2    0    0  0.29182563148E+01 -0.39577951193E+02 -0.88450995775E+01  0.40659146906E+02  0.00000000000E+00 0. -1.
         11    1    3    3    0    0  0.38588096068E+01  0.19375291071E+02  0.17859011335E+01  0.19836374639E+02  0.51100000000E-03 0. -1.
        -11    1    3    3    0    0 -0.86763801380E+01  0.19771596803E+02  0.12475540679E+02  0.24936614204E+02  0.51100000000E-03 0.  1.
        -12    1    3    3    0    0  0.18993142164E+01  0.43106331822E+00 -0.54163422353E+01  0.57558642520E+01  0.00000000000E+00 0.  1.
</event>
<event>
 7    1  0.3041451E-011  0.5052886E+02  0.7816164E-02  0.1300439E+00
        -11   -1    0    0    0    0  0.00000000000E+00  0.00000000000E+00  0.45593999997E+02  0.45594000000E+02  0.51100000000E-03 0.  1.
         11   -1    0    0    0    0 -0.00000000000E+00 -0.00000000000E+00 -0.45593999997E+02  0.45594000000E+02  0.51100000000E-03 0. -1.
    9900012    2    1    2    0    0 -0.25825251314E+02 -0.97187524552E+01  0.29862487830E+02  0.50528856697E+02  0.29999990416E+02 0.  0.
         12    1    1    2    0    0  0.25825251314E+02  0.97187524552E+01 -0.29862487830E+02  0.40659143303E+02  0.00000000000E+00 0. -1.
         11    1    3    3    0    0 -0.17114427527E+02 -0.40970253397E+01  0.14596775273E+01  0.17658423059E+02  0.51100000000E-03 0. -1.
        -11    1    3    3    0    0 -0.93598919583E+01  0.13486759028E+01  0.17973740623E+02  0.20309649342E+02  0.51100000000E-03 0.  1.
        -12    1    3    3    0    0  0.64906817074E+00 -0.69704030183E+01  0.10429069680E+02  0.12560784296E+02  0.00000000000E+00 0.  1.
</event>
<event>
 7    1  0.3041451E-011  0.5052887E+02  0.7816164E-02  0.1300439E+00
        -11   -1    0    0    0    0  0.00000000000E+00  0.00000000000E+00  0.45593999997E+02  0.45594000000E+02  0.51100000000E-03 0. -1.
         11   -1    0    0    0    0 -0.00000000000E+00 -0.00000000000E+00 -0.45593999997E+02  0.45594000000E+02  0.51100000000E-03 0.  1.
    9900012    2    1    2    0    0 -0.30564301532E+02  0.25348429260E+02 -0.87432874299E+01  0.50528874712E+02  0.30000045174E+02 0.  0.
         12    1    1    2    0    0  0.30564301532E+02 -0.25348429260E+02  0.87432874299E+01  0.40659125288E+02  0.00000000000E+00 0. -1.
         11    1    3    3    0    0 -0.76935463517E+00 -0.40434833729E+01  0.47948884971E+01  0.63192262424E+01  0.51100000000E-03 0. -1.
        -11    1    3    3    0    0 -0.69511205897E+01  0.78761385866E+01 -0.15588500597E+01  0.10619870539E+02  0.51100000000E-03 0.  1.
         12    1    3    3    0    0 -0.22843826307E+02  0.21515774047E+02 -0.11979325867E+02  0.33589777931E+02  0.00000000000E+00 0. -1.
</event>
<event>
 7    1  0.3041451E-011  0.5052886E+02  0.7816164E-02  0.1300439E+00
        -11   -1    0    0    0    0  0.00000000000E+00  0.00000000000E+00  0.45593999997E+02  0.45594000000E+02  0.51100000000E-03 0.  1.
         11   -1    0    0    0    0 -0.00000000000E+00 -0.00000000000E+00 -0.45593999997E+02  0.45594000000E+02  0.51100000000E-03 0. -1.
    9900012    2    1    2    0    0  0.27411541026E+02 -0.27101128913E+02  0.12934530787E+02  0.50528857653E+02  0.29999993322E+02 0.  0.
         12    1    1    2    0    0 -0.27411541026E+02  0.27101128913E+02 -0.12934530787E+02  0.40659142347E+02  0.00000000000E+00 0. -1.
         11    1    3    3    0    0  0.20450788305E+01  0.20989986228E+01 -0.34087340612E+01  0.44952876218E+01  0.51100000000E-03 0. -1.
        -11    1    3    3    0    0  0.27822013177E+02 -0.22494999507E+02  0.12335547242E+02  0.37845146929E+02  0.51100000000E-03 0.  1.
        -12    1    3    3    0    0 -0.24555509816E+01 -0.67051280283E+01  0.40077176055E+01  0.81884231024E+01  0.00000000000E+00 0.  1.
</event>
<event>
 7    1  0.3041451E-011  0.5052886E+02  0.7816164E-02  0.1300439E+00
        -11   -1    0    0    0    0  0.00000000000E+00  0.00000000000E+00  0.45593999997E+02  0.45594000000E+02  0.51100000000E-03 0. -1.
         11   -1    0    0    0    0 -0.00000000000E+00 -0.00000000000E+00 -0.45593999997E+02  0.45594000000E+02  0.51100000000E-03 0.  1.
    9900012    2    1    2    0    0 -0.10002084488E+02 -0.31920812721E+02 -0.23112452179E+02  0.50528862963E+02  0.30000009462E+02 0.  0.
         12    1    1    2    0    0  0.10002084488E+02  0.31920812721E+02  0.23112452179E+02  0.40659137037E+02  0.00000000000E+00 0. -1.
         11    1    3    3    0    0  0.21227477732E+01  0.57043926852E+00 -0.56061092137E+01  0.60216210313E+01  0.51100000000E-03 0. -1.
        -11    1    3    3    0    0 -0.12758706677E+02 -0.24568894308E+02 -0.22014299240E+02  0.35370107928E+02  0.51100000000E-03 0.  1.
        -12    1    3    3    0    0  0.63387441611E+00 -0.79223576822E+01  0.45079562747E+01  0.91371340033E+01  0.00000000000E+00 0.  1.
</event>
<event>
 7    1  0.3041451E-011  0.5052887E+02  0.7816164E-02  0.1300439E+00
        -11   -1    0    0    0    0  0.00000000000E+00  0.00000000000E+00  0.45593999997E+02  0.45594000000E+02  0.51100000000E-03 0.  1.
         11   -1    0    0    0    0 -0.00000000000E+00 -0.00000000000E+00 -0.45593999997E+02  0.45594000000E+02  0.51100000000E-03 0. -1.
    9900012    2    1    2    0    0 -0.32004750742E+02 -0.22845144784E+02  0.10342156531E+02  0.50528869267E+02  0.30000028624E+02 0.  0.
         12    1    1    2    0    0  0.32004750742E+02  0.22845144784E+02 -0.10342156531E+02  0.40659130733E+02  0.00000000000E+00 0. -1.
         11    1    3    3    0    0 -0.27347466777E+01 -0.16437568156E+02  0.80381168975E+01  0.18500913755E+02  0.51100000000E-03 0. -1.
        -11    1    3    3    0    0 -0.12991991685E+02  0.26460711321E+01 -0.72513091929E-02  0.13258717631E+02  0.51100000000E-03 0.  1.
         12    1    3    3    0    0 -0.16278012379E+02 -0.90536477605E+01  0.23112909425E+01  0.18769237880E+02  0.00000000000E+00 0. -1.
</event>
<event>
 7    1  0.3041451E-011  0.5052886E+02  0.7816164E-02  0.1300439E+00
        -11   -1    0    0    0    0  0.00000000000E+00  0.00000000000E+00  0.45593999997E+02  0.45594000000E+02  0.51100000000E-03 0. -1.
         11   -1    0    0    0    0 -0.00000000000E+00 -0.00000000000E+00 -0.45593999997E+02  0.45594000000E+02  0.51100000000E-03 0.  1.
    9900012    2    1    2    0    0  0.20229004814E+02  0.11707135159E+02 -0.33270041565E+02  0.50528864309E+02  0.30000013555E+02 0.  0.
         12    1    1    2    0    0 -0.20229004814E+02 -0.11707135159E+02  0.33270041565E+02  0.40659135691E+02  0.00000000000E+00 0. -1.
         11    1    3    3    0    0 -0.40908345697E-01  0.15604931086E+02 -0.12768414994E+02  0.20163034727E+02  0.51100000000E-03 0. -1.
        -11    1    3    3    0    0  0.65752444959E+01 -0.32882347306E+01 -0.25555028709E+01  0.77831178206E+01  0.51100000000E-03 0.  1.
         12    1    3    3    0    0  0.13694668663E+02 -0.60956119662E+00 -0.17946123700E+02  0.22582711761E+02  0.00000000000E+00 0. -1.
</event>
<event>
 7    1  0.3041451E-011  0.5052886E+02  0.7816164E-02  0.1300439E+00
        -11   -1    0    0    0    0  0.00000000000E+00  0.00000000000E+00  0.45593999997E+02  0.45594000000E+02  0.51100000000E-03 0. -1.
         11   -1    0    0    0    0 -0.00000000000E+00 -0.00000000000E+00 -0.45593999997E+02  0.45594000000E+02  0.51100000000E-03 0.  1.
    9900012    2    1    2    0    0 -0.22580518012E+02  0.33811119121E+02 -0.30704457210E+00  0.50528857777E+02  0.29999993700E+02 0.  0.
         12    1    1    2    0    0  0.22580518012E+02 -0.33811119121E+02  0.30704457210E+00  0.40659142223E+02  0.00000000000E+00 0. -1.
         11    1    3    3    0    0 -0.28934466169E+01  0.22949248096E+02 -0.48881316830E+01  0.23641781936E+02  0.51100000000E-03 0. -1.
        -11    1    3    3    0    0 -0.58574157734E+01  0.72905133879E+01  0.78782014472E+01  0.12228121822E+02  0.51100000000E-03 0.  1.
         12    1    3    3    0    0 -0.13829655621E+02  0.35713576375E+01 -0.32971143363E+01  0.14658954019E+02  0.00000000000E+00 0. -1.
</event>
<event>
 7    1  0.3041451E-011  0.5052886E+02  0.7816164E-02  0.1300439E+00
        -11   -1    0    0    0    0  0.00000000000E+00  0.00000000000E+00  0.45593999997E+02  0.45594000000E+02  0.51100000000E-03 0.  1.
         11   -1    0    0    0    0 -0.00000000000E+00 -0.00000000000E+00 -0.45593999997E+02  0.45594000000E+02  0.51100000000E-03 0. -1.
    9900012    2    1    2    0    0  0.18084457539E+02 -0.27746607072E+02  0.23584827962E+02  0.50528856889E+02  0.29999991001E+02 0.  0.
         12    1    1    2    0    0 -0.18084457539E+02  0.27746607072E+02 -0.23584827962E+02  0.40659143111E+02  0.00000000000E+00 0. -1.
         11    1    3    3    0    0  0.23216958251E+01  0.18805231028E+01 -0.24280699068E+01  0.38499561527E+01  0.51100000000E-03 0. -1.
        -11    1    3    3    0    0  0.68984214353E+01 -0.90002315915E+01  0.20708160500E+02  0.23609750074E+02  0.51100000000E-03 0.  1.
        -12    1    3    3    0    0  0.88643402782E+01 -0.20626898584E+02  0.53047373687E+01  0.23069150663E+02  0.00000000000E+00 0.  1.
</event>
<event>
 7    1  0.3041451E-011  0.5052884E+02  0.7816164E-02  0.1300439E+00
        -11   -1    0    0    0    0  0.00000000000E+00  0.00000000000E+00  0.45593999997E+02  0.45594000000E+02  0.51100000000E-03 0.  1.
         11   -1    0    0    0    0 -0.00000000000E+00 -0.00000000000E+00 -0.45593999997E+02  0.45594000000E+02  0.51100000000E-03 0. -1.
    9900012    2    1    2    0    0 -0.19928146949E+02 -0.17182407164E+01  0.35398923411E+02  0.50528841491E+02  0.29999944196E+02 0.  0.
         12    1    1    2    0    0  0.19928146949E+02  0.17182407164E+01 -0.35398923411E+02  0.40659158509E+02  0.00000000000E+00 0. -1.
         11    1    3    3    0    0 -0.12699851219E+02  0.73578537723E+01  0.43892132013E+01  0.15319576558E+02  0.51100000000E-03 0. -1.
        -11    1    3    3    0    0 -0.82190390442E+01 -0.97273052624E+01  0.31461024112E+02  0.33940670425E+02  0.51100000000E-03 0.  1.
        -12    1    3    3    0    0  0.99074331413E+00  0.65121077364E+00 -0.45131390252E+00  0.12685945076E+01  0.00000000000E+00 0.  1.
</event>
<event>
 7    1  0.3041451E-011  0.5052886E+02  0.7816164E-02  0.1300439E+00
        -11   -1    0    0    0    0  0.00000000000E+00  0.00000000000E+00  0.45593999997E+02  0.45594000000E+02  0.51100000000E-03 0. -1.
         11   -1    0    0    0    0 -0.00000000000E+00 -0.00000000000E+00 -0.45593999997E+02  0.45594000000E+02  0.51100000000E-03 0.  1.
    9900012    2    1    2    0    0  0.82045475518E+00 -0.16680599897E+02  0.37070882785E+02  0.50528857002E+02  0.29999991343E+02 0.  0.
         12    1    1    2    0    0 -0.82045475518E+00  0.16680599897E+02 -0.37070882785E+02  0.40659142998E+02  0.00000000000E+00 0. -1.
         11    1    3    3    0    0 -0.60030336549E+01 -0.79880138498E+01  0.14260368095E+02  0.17412721694E+02  0.51100000000E-03 0. -1.
        -11    1    3    3    0    0  0.84357359484E+01  0.34931523032E+01  0.17474359622E+02  0.19715907244E+02  0.51100000000E-03 0.  1.
        -12    1    3    3    0    0 -0.16122475382E+01 -0.12185738350E+02  0.53361550679E+01  0.13400228064E+02  0.00000000000E+00 0.  1.
</event>
<event>
 7    1  0.3041451E-011  0.5052886E+02  0.7816164E-02  0.1300439E+00
        -11   -1    0    0    0    0  0.00000000000E+00  0.00000000000E+00  0.45593999997E+02  0.45594000000E+02  0.51100000000E-03 0.  1.
         11   -1    0    0    0    0 -0.00000000000E+00 -0.00000000000E+00 -0.45593999997E+02  0.45594000000E+02  0.51100000000E-03 0. -1.
    9900012    2    1    2    0    0  0.24011755857E+02  0.10757830967E+02  0.30997904420E+02  0.50528862959E+02  0.30000009451E+02 0.  0.
         12    1    1    2    0    0 -0.24011755857E+02 -0.10757830967E+02 -0.30997904420E+02  0.40659137041E+02  0.00000000000E+00 0. -1.
         11    1    3    3    0    0  0.11833997744E+02 -0.66526673320E+01  0.54136198534E+01  0.14615360598E+02  0.51100000000E-03 0. -1.
        -11    1    3    3    0    0  0.13105790468E+02  0.14814719296E+02  0.14589150547E+02  0.24578058620E+02  0.51100000000E-03 0.  1.
         12    1    3    3    0    0 -0.92803235518E+00  0.25957790034E+01  0.10995134020E+02  0.11335443741E+02  0.00000000000E+00 0. -1.
</event>
<event>
 7    1  0.3041451E-011  0.5052886E+02  0.7816164E-02  0.1300439E+00
        -11   -1    0    0    0    0  0.00000000000E+00  0.00000000000E+00  0.45593999997E+02  0.45594000000E+02  0.51100000000E-03 0. -1.
         11   -1    0    0    0    0 -0.00000000000E+00 -0.00000000000E+00 -0.45593999997E+02  0.45594000000E+02  0.51100000000E-03 0.  1.
    9900012    2    1    2    0    0  0.20008155407E+02 -0.21132265575E+01 -0.35332332147E+02  0.50528859525E+02  0.29999999011E+02 0.  0.
         12    1    1    2    0    0 -0.20008155407E+02  0.21132265575E+01  0.35332332147E+02  0.40659140475E+02  0.00000000000E+00 0. -1.
         11    1    3    3    0    0 -0.43576622433E+01 -0.21483975952E+01 -0.15918589040E+02  0.16643506534E+02  0.51100000000E-03 0. -1.
        -11    1    3    3    0    0  0.25912332518E+02  0.83593204724E+00 -0.17402545398E+02  0.31224931473E+02  0.51100000000E-03 0.  1.
        -12    1    3    3    0    0 -0.15465148674E+01 -0.80076100960E+00 -0.20111977083E+01  0.26604215176E+01  0.00000000000E+00 0.  1.
</event>
<event>
 7    1  0.3041451E-011  0.5052886E+02  0.7816164E-02  0.1300439E+00
        -11   -1    0    0    0    0  0.00000000000E+00  0.00000000000E+00  0.45593999997E+02  0.45594000000E+02  0.51100000000E-03 0. -1.
         11   -1    0    0    0    0 -0.00000000000E+00 -0.00000000000E+00 -0.45593999997E+02  0.45594000000E+02  0.51100000000E-03 0.  1.
    9900012    2    1    2    0    0  0.15372212427E+02 -0.22785153855E+02 -0.29961597507E+02  0.50528862328E+02  0.30000007531E+02 0.  0.
         12    1    1    2    0    0 -0.15372212427E+02  0.22785153855E+02  0.29961597507E+02  0.40659137672E+02  0.00000000000E+00 0. -1.
         11    1    3    3    0    0 -0.70382267015E+01 -0.12468179869E+02 -0.10541601913E+02  0.17779693909E+02  0.51100000000E-03 0. -1.
        -11    1    3    3    0    0  0.16254237414E+02 -0.90830672520E+01 -0.92347596566E+01  0.20784203877E+02  0.51100000000E-03 0.  1.
         12    1    3    3    0    0  0.61562017144E+01 -0.12339067340E+01 -0.10185235938E+02  0.11964964542E+02  0.00000000000E+00 0. -1.
</event>
<event>
 7    1  0.3041451E-011  0.5052888E+02  0.7816164E-02  0.1300439E+00
        -11   -1    0    0    0    0  0.00000000000E+00  0.00000000000E+00  0.45593999997E+02  0.45594000000E+02  0.51100000000E-03 0.  1.
         11   -1    0    0    0    0 -0.00000000000E+00 -0.00000000000E+00 -0.45593999997E+02  0.45594000000E+02  0.51100000000E-03 0. -1.
    9900012    2    1    2    0    0 -0.37183581348E+02  0.96472597543E+01  0.13322010550E+02  0.50528876698E+02  0.30000051210E+02 0.  0.
         12    1    1    2    0    0  0.37183581348E+02 -0.96472597543E+01 -0.13322010550E+02  0.40659123302E+02  0.00000000000E+00 0. -1.
         11    1    3    3    0    0  0.21572821537E+01 -0.46154978691E+00 -0.37097529572E+01  0.43161512672E+01  0.51100000000E-03 0. -1.
        -11    1    3    3    0    0 -0.14451354406E+02  0.87812957570E+01  0.18084288745E+01  0.17006563868E+02  0.51100000000E-03 0.  1.
         12    1    3    3    0    0 -0.24889509095E+02  0.13275137842E+01  0.15223334633E+02  0.29206161562E+02  0.00000000000E+00 0. -1.
</event>
<event>
 7    1  0.3041451E-011  0.5052886E+02  0.7816164E-02  0.1300439E+00
        -11   -1    0    0    0    0  0.00000000000E+00  0.00000000000E+00  0.45593999997E+02  0.45594000000E+02  0.51100000000E-03 0.  1.
         11   -1    0    0    0    0 -0.00000000000E+00 -0.00000000000E+00 -0.45593999997E+02  0.45594000000E+02  0.51100000000E-03 0. -1.
    9900012    2    1    2    0    0  0.18565682462E+02  0.40121845431E+01  0.35949733289E+02  0.50528861868E+02  0.30000006134E+02 0.  0.
         12    1    1    2    0    0 -0.18565682462E+02 -0.40121845431E+01 -0.35949733289E+02  0.40659138132E+02  0.00000000000E+00 0. -1.
         11    1    3    3    0    0 -0.48800767506E+01  0.35185638735E+01 -0.14770843997E+01  0.61949349802E+01  0.51100000000E-03 0. -1.
        -11    1    3    3    0    0  0.18422583060E+02  0.30260181340E+00  0.32083274738E+02  0.36997562793E+02  0.51100000000E-03 0.  1.
         12    1    3    3    0    0  0.50231761523E+01  0.19101885620E+00  0.53435429511E+01  0.73363640947E+01  0.00000000000E+00 0. -1.
</event>
<event>
 7    1  0.3041451E-011  0.5052886E+02  0.7816164E-02  0.1300439E+00
        -11   -1    0    0    0    0  0.00000000000E+00  0.00000000000E+00  0.45593999997E+02  0.45594000000E+02  0.51100000000E-03 0.  1.
         11   -1    0    0    0    0 -0.00000000000E+00 -0.00000000000E+00 -0.45593999997E+02  0.45594000000E+02  0.51100000000E-03 0. -1.
    9900012    2    1    2    0    0 -0.38151756240E+01 -0.26583734953E+02 -0.30527284053E+02  0.50528860797E+02  0.30000002878E+02 0.  0.
         12    1    1    2    0    0  0.38151756240E+01  0.26583734953E+02  0.30527284053E+02  0.40659139203E+02  0.00000000000E+00 0. -1.
         11    1    3    3    0    0 -0.35632620329E+01  0.91219888827E+00 -0.97182124484E+01  0.10390986314E+02  0.51100000000E-03 0. -1.
        -11    1    3    3    0    0 -0.10917220891E+01 -0.14121990910E+02  0.13644722361E+01  0.14229696733E+02  0.51100000000E-03 0.  1.
        -12    1    3    3    0    0  0.83980849797E+00 -0.13373942931E+02 -0.22173543841E+02  0.25908177749E+02  0.00000000000E+00 0.  1.
</event>
<event>
 7    1  0.3041451E-011  0.5052885E+02  0.7816164E-02  0.1300439E+00
        -11   -1    0    0    0    0  0.00000000000E+00  0.00000000000E+00  0.45593999997E+02  0.45594000000E+02  0.51100000000E-03 0. -1.
         11   -1    0    0    0    0 -0.00000000000E+00 -0.00000000000E+00 -0.45593999997E+02  0.45594000000E+02  0.51100000000E-03 0.  1.
    9900012    2    1    2    0    0 -0.40475915145E+02  0.38156027026E+01 -0.55489636577E+00  0.50528850466E+02  0.29999971478E+02 0.  0.
         12    1    1    2    0    0  0.40475915145E+02 -0.38156027026E+01  0.55489636577E+00  0.40659149534E+02  0.00000000000E+00 0. -1.
         11    1    3    3    0    0 -0.14644783819E+02  0.10618059493E+02  0.84940256056E+01  0.19984027416E+02  0.51100000000E-03 0. -1.
        -11    1    3    3    0    0 -0.23350382557E+02 -0.78602828703E+01 -0.11229861027E+02  0.27076450863E+02  0.51100000000E-03 0.  1.
        -12    1    3    3    0    0 -0.24807487691E+01  0.10578260804E+01  0.21809390559E+01  0.34683721883E+01  0.00000000000E+00 0.  1.
</event>
<event>
 7    1  0.3041451E-011  0.5052886E+02  0.7816164E-02  0.1300439E+00
        -11   -1    0    0    0    0  0.00000000000E+00  0.00000000000E+00  0.45593999997E+02  0.45594000000E+02  0.51100000000E-03 0.  1.
         11   -1    0    0    0    0 -0.00000000000E+00 -0.00000000000E+00 -0.45593999997E+02  0.45594000000E+02  0.51100000000E-03 0. -1.
    9900012    2    1    2    0    0 -0.34245446066E+02 -0.11444079079E+02 -0.18693533001E+02  0.50528859597E+02  0.29999999232E+02 0.  0.
         12    1    1    2    0    0  0.34245446066E+02  0.11444079079E+02  0.18693533001E+02  0.40659140403E+02  0.00000000000E+00 0. -1.
         11    1    3    3    0    0 -0.11061568067E+02 -0.43243261811E+01 -0.11306621765E+02  0.16398102970E+02  0.51100000000E-03 0.  1.
        -11    1    3    3    0    0 -0.25354066495E+01  0.59147368537E+01  0.35784927965E+01  0.73632879804E+01  0.51100000000E-03 0. -1.
        -12    1    3    3    0    0 -0.20648471350E+02 -0.13034489752E+02 -0.10965404033E+02  0.26767468647E+02  0.00000000000E+00 0.  1.
</event>
<event>
 7    1  0.3041451E-011  0.5052885E+02  0.7816164E-02  0.1300439E+00
        -11   -1    0    0    0    0  0.00000000000E+00  0.00000000000E+00  0.45593999997E+02  0.45594000000E+02  0.51100000000E-03 0. -1.
         11   -1    0    0    0    0 -0.00000000000E+00 -0.00000000000E+00 -0.45593999997E+02  0.45594000000E+02  0.51100000000E-03 0.  1.
    9900012    2    1    2    0    0 -0.37001971066E+02 -0.72437504344E+01 -0.15216719554E+02  0.50528851742E+02  0.29999975354E+02 0.  0.
         12    1    1    2    0    0  0.37001971066E+02  0.72437504344E+01  0.15216719554E+02  0.40659148258E+02  0.00000000000E+00 0. -1.
         11    1    3    3    0    0 -0.72526307017E+01 -0.92050605215E+01  0.41529276499E+01  0.12433044664E+02  0.51100000000E-03 0. -1.
        -11    1    3    3    0    0 -0.21924738145E+02 -0.27164480470E+01 -0.18718929045E+02  0.28956373004E+02  0.51100000000E-03 0.  1.
         12    1    3    3    0    0 -0.78246022196E+01  0.46777581341E+01 -0.65071815918E+00  0.91394340733E+01  0.00000000000E+00 0. -1.
</event>
<event>
 7    1  0.3041451E-011  0.5052886E+02  0.7816164E-02  0.1300439E+00
        -11   -1    0    0    0    0  0.00000000000E+00  0.00000000000E+00  0.45593999997E+02  0.45594000000E+02  0.51100000000E-03 0. -1.
         11   -1    0    0    0    0 -0.00000000000E+00 -0.00000000000E+00 -0.45593999997E+02  0.45594000000E+02  0.51100000000E-03 0.  1.
    9900012    2    1    2    0    0  0.31165509119E+02 -0.30641875148E+01  0.25932363457E+02  0.50528859844E+02  0.29999999981E+02 0.  0.
         12    1    1    2    0    0 -0.31165509119E+02  0.30641875148E+01 -0.25932363457E+02  0.40659140156E+02  0.00000000000E+00 0. -1.
         11    1    3    3    0    0 -0.44501423091E-01 -0.30890734051E+01  0.11239265973E+02  0.11656133782E+02  0.51100000000E-03 0. -1.
        -11    1    3    3    0    0  0.28057259286E+02  0.22148624586E+01  0.18327945702E+02  0.33586143099E+02  0.51100000000E-03 0.  1.
        -12    1    3    3    0    0  0.31527512562E+01 -0.21899765682E+01 -0.36348482178E+01  0.52865829625E+01  0.00000000000E+00 0.  1.
</event>
<event>
 7    1  0.3041451E-011  0.5052889E+02  0.7816164E-02  0.1300439E+00
        -11   -1    0    0    0    0  0.00000000000E+00  0.00000000000E+00  0.45593999997E+02  0.45594000000E+02  0.51100000000E-03 0.  1.
         11   -1    0    0    0    0 -0.00000000000E+00 -0.00000000000E+00 -0.45593999997E+02  0.45594000000E+02  0.51100000000E-03 0. -1.
    9900012    2    1    2    0    0  0.20655595883E+02 -0.27096390765E+02  0.22187733723E+02  0.50528885874E+02  0.30000079101E+02 0.  0.
         12    1    1    2    0    0 -0.20655595883E+02  0.27096390765E+02 -0.22187733723E+02  0.40659114126E+02  0.00000000000E+00 0. -1.
         11    1    3    3    0    0 -0.67023016676E+00 -0.22353160298E+01  0.12070794140E+02  0.12294304277E+02  0.51100000000E-03 0. -1.
        -11    1    3    3    0    0  0.22979669749E+02 -0.20256153897E+02  0.47962419146E+01  0.31006143411E+02  0.51100000000E-03 0.  1.
        -12    1    3    3    0    0 -0.16538436999E+01 -0.46049208386E+01  0.53206976690E+01  0.72284381853E+01  0.00000000000E+00 0.  1.
</event>
<event>
 7    1  0.3041451E-011  0.5052886E+02  0.7816164E-02  0.1300439E+00
        -11   -1    0    0    0    0  0.00000000000E+00  0.00000000000E+00  0.45593999997E+02  0.45594000000E+02  0.51100000000E-03 0.  1.
         11   -1    0    0    0    0 -0.00000000000E+00 -0.00000000000E+00 -0.45593999997E+02  0.45594000000E+02  0.51100000000E-03 0. -1.
    9900012    2    1    2    0    0 -0.16033521698E+02 -0.37289280479E+02  0.23667191048E+01  0.50528860610E+02  0.30000002309E+02 0.  0.
         12    1    1    2    0    0  0.16033521698E+02  0.37289280479E+02 -0.23667191048E+01  0.40659139390E+02  0.00000000000E+00 0. -1.
         11    1    3    3    0    0 -0.58562649543E+00 -0.20599582883E+02 -0.45099984259E+01  0.21095636028E+02  0.51100000000E-03 0. -1.
        -11    1    3    3    0    0 -0.15396993630E+02 -0.49008538200E+01  0.70831316781E+01  0.17642463990E+02  0.51100000000E-03 0.  1.
        -12    1    3    3    0    0 -0.50901572394E-01 -0.11788843776E+02 -0.20641414735E+00  0.11790760592E+02  0.00000000000E+00 0.  1.
</event>
<event>
 7    1  0.3041451E-011  0.5052886E+02  0.7816164E-02  0.1300439E+00
        -11   -1    0    0    0    0  0.00000000000E+00  0.00000000000E+00  0.45593999997E+02  0.45594000000E+02  0.51100000000E-03 0.  1.
         11   -1    0    0    0    0 -0.00000000000E+00 -0.00000000000E+00 -0.45593999997E+02  0.45594000000E+02  0.51100000000E-03 0. -1.
    9900012    2    1    2    0    0  0.29807735626E+02  0.38538156126E+01  0.27382704519E+02  0.50528861978E+02  0.30000006468E+02 0.  0.
         12    1    1    2    0    0 -0.29807735626E+02 -0.38538156126E+01 -0.27382704519E+02  0.40659138022E+02  0.00000000000E+00 0. -1.
         11    1    3    3    0    0  0.11996122389E+02  0.70099596399E+01 -0.10914060962E+01  0.13936916949E+02  0.51100000000E-03 0. -1.
        -11    1    3    3    0    0  0.75020496907E+01  0.49215783932E-01  0.23567783155E+02  0.24733046210E+02  0.51100000000E-03 0.  1.
        -12    1    3    3    0    0  0.10309563546E+02 -0.32053598113E+01  0.49063274611E+01  0.11858898818E+02  0.00000000000E+00 0.  1.
</event>
<event>
 7    1  0.3041451E-011  0.5052884E+02  0.7816164E-02  0.1300439E+00
        -11   -1    0    0    0    0  0.00000000000E+00  0.00000000000E+00  0.45593999997E+02  0.45594000000E+02  0.51100000000E-03 0. -1.
         11   -1    0    0    0    0 -0.00000000000E+00 -0.00000000000E+00 -0.45593999997E+02  0.45594000000E+02  0.51100000000E-03 0.  1.
    9900012    2    1    2    0    0  0.17092343191E+02  0.28192823263E+02 -0.23794620767E+02  0.50528837973E+02  0.29999933503E+02 0.  0.
         12    1    1    2    0    0 -0.17092343191E+02 -0.28192823263E+02  0.23794620767E+02  0.40659162027E+02  0.00000000000E+00 0. -1.
         11    1    3    3    0    0  0.48362680251E+01 -0.44286885683E+01 -0.88810085830E+01  0.11039704913E+02  0.51100000000E-03 0. -1.
        -11    1    3    3    0    0  0.36618525497E+01  0.13849164672E+02 -0.11902387526E+02  0.18624590070E+02  0.51100000000E-03 0.  1.
         12    1    3    3    0    0  0.85942226157E+01  0.18772347159E+02 -0.30112246579E+01  0.20864542990E+02  0.00000000000E+00 0. -1.
</event>
<event>
 7    1  0.3041451E-011  0.5052886E+02  0.7816164E-02  0.1300439E+00
        -11   -1    0    0    0    0  0.00000000000E+00  0.00000000000E+00  0.45593999997E+02  0.45594000000E+02  0.51100000000E-03 0.  1.
         11   -1    0    0    0    0 -0.00000000000E+00 -0.00000000000E+00 -0.45593999997E+02  0.45594000000E+02  0.51100000000E-03 0. -1.
    9900012    2    1    2    0    0 -0.33925770429E+02 -0.59486525568E+01  0.21606055960E+02  0.50528855634E+02  0.29999987184E+02 0.  0.
         12    1    1    2    0    0  0.33925770429E+02  0.59486525568E+01 -0.21606055960E+02  0.40659144366E+02  0.00000000000E+00 0. -1.
         11    1    3    3    0    0 -0.59264395028E+01  0.23111482753E+01 -0.19036705009E+01  0.66398835207E+01  0.51100000000E-03 0. -1.
        -11    1    3    3    0    0 -0.11685083535E+02 -0.15930522765E+01  0.23468595042E+02  0.26265070841E+02  0.51100000000E-03 0.  1.
        -12    1    3    3    0    0 -0.16314247392E+02 -0.66667485556E+01  0.41131419185E-01  0.17623901272E+02  0.00000000000E+00 0.  1.
</event>
<event>
 7    1  0.3041451E-011  0.5052887E+02  0.7816164E-02  0.1300439E+00
        -11   -1    0    0    0    0  0.00000000000E+00  0.00000000000E+00  0.45593999997E+02  0.45594000000E+02  0.51100000000E-03 0.  1.
         11   -1    0    0    0    0 -0.00000000000E+00 -0.00000000000E+00 -0.45593999997E+02  0.45594000000E+02  0.51100000000E-03 0. -1.
    9900012    2    1    2    0    0  0.19343172108E+02 -0.29909234042E+02  0.19607257985E+02  0.50528866292E+02  0.30000019581E+02 0.  0.
         12    1    1    2    0    0 -0.19343172108E+02  0.29909234042E+02 -0.19607257985E+02  0.40659133708E+02  0.00000000000E+00 0. -1.
         11    1    3    3    0    0 -0.35533472282E+00 -0.21908773374E+02  0.38682985710E+01  0.22250490952E+02  0.51100000000E-03 0. -1.
        -11    1    3    3    0    0  0.48131306748E+01 -0.68278425257E+01  0.74895848059E+01  0.11219605219E+02  0.51100000000E-03 0.  1.
         12    1    3    3    0    0  0.14885376156E+02 -0.11726181427E+01  0.82493746084E+01  0.17058770121E+02  0.00000000000E+00 0. -1.
</event>
<event>
 7    1  0.3041451E-011  0.5052886E+02  0.7816164E-02  0.1300439E+00
        -11   -1    0    0    0    0  0.00000000000E+00  0.00000000000E+00  0.45593999997E+02  0.45594000000E+02  0.51100000000E-03 0. -1.
         11   -1    0    0    0    0 -0.00000000000E+00 -0.00000000000E+00 -0.45593999997E+02  0.45594000000E+02  0.51100000000E-03 0.  1.
    9900012    2    1    2    0    0  0.14660017342E+02 -0.32403663075E+02 -0.19704118657E+02  0.50528858578E+02  0.29999996133E+02 0.  0.
         12    1    1    2    0    0 -0.14660017342E+02  0.32403663075E+02  0.19704118657E+02  0.40659141422E+02  0.00000000000E+00 0. -1.
         11    1    3    3    0    0  0.10144959261E+02 -0.30723729000E+01 -0.10426790685E+02  0.14868679763E+02  0.51100000000E-03 0. -1.
        -11    1    3    3    0    0 -0.86656492993E+00 -0.28272685156E+02 -0.50450395202E+01  0.28732352579E+02  0.51100000000E-03 0.  1.
        -12    1    3    3    0    0  0.53816230109E+01 -0.10586050192E+01 -0.42322884517E+01  0.69278262360E+01  0.00000000000E+00 0.  1.
</event>
<event>
 7    1  0.3041451E-011  0.5052887E+02  0.7816164E-02  0.1300439E+00
        -11   -1    0    0    0    0  0.00000000000E+00  0.00000000000E+00  0.45593999997E+02  0.45594000000E+02  0.51100000000E-03 0. -1.
         11   -1    0    0    0    0 -0.00000000000E+00 -0.00000000000E+00 -0.45593999997E+02  0.45594000000E+02  0.51100000000E-03 0.  1.
    9900012    2    1    2    0    0  0.17408755475E+02  0.31442212102E+02  0.19012824695E+02  0.50528868530E+02  0.30000026384E+02 0.  0.
         12    1    1    2    0    0 -0.17408755475E+02 -0.31442212102E+02 -0.19012824695E+02  0.40659131470E+02  0.00000000000E+00 0. -1.
         11    1    3    3    0    0  0.75828137885E+01 -0.24747038067E+01  0.25105880251E+01  0.83621932754E+01  0.51100000000E-03 0. -1.
        -11    1    3    3    0    0  0.12122803829E+02  0.20096552024E+02  0.48990882719E+01  0.23975713589E+02  0.51100000000E-03 0.  1.
        -12    1    3    3    0    0 -0.22968621427E+01  0.13820363884E+02  0.11603148397E+02  0.18190961666E+02  0.00000000000E+00 0.  1.
</event>
<event>
 7    1  0.3041451E-011  0.5052886E+02  0.7816164E-02  0.1300439E+00
        -11   -1    0    0    0    0  0.00000000000E+00  0.00000000000E+00  0.45593999997E+02  0.45594000000E+02  0.51100000000E-03 0.  1.
         11   -1    0    0    0    0 -0.00000000000E+00 -0.00000000000E+00 -0.45593999997E+02  0.45594000000E+02  0.51100000000E-03 0. -1.
    9900012    2    1    2    0    0  0.20588922445E+00  0.15017562179E+02  0.37783546237E+02  0.50528856743E+02  0.29999990556E+02 0.  0.
         12    1    1    2    0    0 -0.20588922445E+00 -0.15017562179E+02 -0.37783546237E+02  0.40659143257E+02  0.00000000000E+00 0. -1.
         11    1    3    3    0    0 -0.44158967098E+01  0.32091596199E+01 -0.37055903029E+01  0.65977457493E+01  0.51100000000E-03 0. -1.
        -11    1    3    3    0    0  0.46844517444E+01  0.54054559158E+01  0.14187417324E+02  0.15888544691E+02  0.51100000000E-03 0.  1.
         12    1    3    3    0    0 -0.62665810119E-01  0.64029466435E+01  0.27301719216E+02  0.28042566303E+02  0.00000000000E+00 0. -1.
</event>
<event>
 7    1  0.3041451E-011  0.5052887E+02  0.7816164E-02  0.1300439E+00
        -11   -1    0    0    0    0  0.00000000000E+00  0.00000000000E+00  0.45593999997E+02  0.45594000000E+02  0.51100000000E-03 0. -1.
         11   -1    0    0    0    0 -0.00000000000E+00 -0.00000000000E+00 -0.45593999997E+02  0.45594000000E+02  0.51100000000E-03 0.  1.
    9900012    2    1    2    0    0 -0.33385322919E+02  0.64018404045E+01 -0.22306982249E+02  0.50528870595E+02  0.30000032660E+02 0.  0.
         12    1    1    2    0    0  0.33385322919E+02 -0.64018404045E+01  0.22306982249E+02  0.40659129405E+02  0.00000000000E+00 0. -1.
         11    1    3    3    0    0 -0.64624421216E+01  0.92576426200E+01 -0.13254105643E+02  0.17410870791E+02  0.51100000000E-03 0. -1.
        -11    1    3    3    0    0 -0.18958545859E+02 -0.76914526901E+01 -0.11519749288E+02  0.23479555564E+02  0.51100000000E-03 0.  1.
         12    1    3    3    0    0 -0.79643349382E+01  0.48356504746E+01  0.24668726827E+01  0.96384442393E+01  0.00000000000E+00 0. -1.
</event>
<event>
 7    1  0.3041451E-011  0.5052886E+02  0.7816164E-02  0.1300439E+00
        -11   -1    0    0    0    0  0.00000000000E+00  0.00000000000E+00  0.45593999997E+02  0.45594000000E+02  0.51100000000E-03 0. -1.
         11   -1    0    0    0    0 -0.00000000000E+00 -0.00000000000E+00 -0.45593999997E+02  0.45594000000E+02  0.51100000000E-03 0.  1.
    9900012    2    1    2    0    0 -0.27795237923E+02 -0.21674626315E+02 -0.20268221522E+02  0.50528862272E+02  0.30000007363E+02 0.  0.
         12    1    1    2    0    0  0.27795237923E+02  0.21674626315E+02  0.20268221522E+02  0.40659137728E+02  0.00000000000E+00 0. -1.
         11    1    3    3    0    0 -0.48149468256E+01  0.28644346858E+01 -0.53240473727E+01  0.77287890184E+01  0.51100000000E-03 0. -1.
        -11    1    3    3    0    0 -0.55678056789E+01 -0.11312234824E+02  0.46505839765E+01  0.13438565712E+02  0.51100000000E-03 0.  1.
        -12    1    3    3    0    0 -0.17412485418E+02 -0.13226826176E+02 -0.19594758126E+02  0.29361507542E+02  0.00000000000E+00 0.  1.
</event>
<event>
 7    1  0.3041451E-011  0.5052886E+02  0.7816164E-02  0.1300439E+00
        -11   -1    0    0    0    0  0.00000000000E+00  0.00000000000E+00  0.45593999997E+02  0.45594000000E+02  0.51100000000E-03 0.  1.
         11   -1    0    0    0    0 -0.00000000000E+00 -0.00000000000E+00 -0.45593999997E+02  0.45594000000E+02  0.51100000000E-03 0. -1.
    9900012    2    1    2    0    0  0.31918732559E+02 -0.11018356008E+02  0.22648526547E+02  0.50528863117E+02  0.30000009930E+02 0.  0.
         12    1    1    2    0    0 -0.31918732559E+02  0.11018356008E+02 -0.22648526547E+02  0.40659136883E+02  0.00000000000E+00 0. -1.
         11    1    3    3    0    0 -0.11797776504E+01  0.32916332073E-01 -0.12681517605E+01  0.17323879295E+01  0.51100000000E-03 0. -1.
        -11    1    3    3    0    0  0.28275850082E+02 -0.18357905834E+02  0.17863244731E+02  0.38152744555E+02  0.51100000000E-03 0.  1.
        -12    1    3    3    0    0  0.48226601275E+01  0.73066334935E+01  0.60534335765E+01  0.10643730633E+02  0.00000000000E+00 0.  1.
</event>
<event>
 7    1  0.3041451E-011  0.5052885E+02  0.7816164E-02  0.1300439E+00
        -11   -1    0    0    0    0  0.00000000000E+00  0.00000000000E+00  0.45593999997E+02  0.45594000000E+02  0.51100000000E-03 0. -1.
         11   -1    0    0    0    0 -0.00000000000E+00 -0.00000000000E+00 -0.45593999997E+02  0.45594000000E+02  0.51100000000E-03 0.  1.
    9900012    2    1    2    0    0 -0.27514365993E+02  0.34640608475E+01 -0.29734259350E+02  0.50528853026E+02  0.29999979257E+02 0.  0.
         12    1    1    2    0    0  0.27514365993E+02 -0.34640608475E+01  0.29734259350E+02  0.40659146974E+02  0.00000000000E+00 0. -1.
         11    1    3    3    0    0 -0.28713918131E+00  0.67898908107E+01  0.33322929361E+00  0.68041243488E+01  0.51100000000E-03 0. -1.
        -11    1    3    3    0    0 -0.17887256070E+02  0.43592803303E+01 -0.23836816220E+02  0.30118948562E+02  0.51100000000E-03 0.  1.
        -12    1    3    3    0    0 -0.93399707413E+01 -0.76851102936E+01 -0.62306724237E+01  0.13605780115E+02  0.00000000000E+00 0.  1.
</event>
<event>
 7    1  0.3041451E-011  0.5052887E+02  0.7816164E-02  0.1300439E+00
        -11   -1    0    0    0    0  0.00000000000E+00  0.00000000000E+00  0.45593999997E+02  0.45594000000E+02  0.51100000000E-03 0.  1.
         11   -1    0    0    0    0 -0.00000000000E+00 -0.00000000000E+00 -0.45593999997E+02  0.45594000000E+02  0.51100000000E-03 0. -1.
    9900012    2    1    2    0    0 -0.25769692639E+02  0.26728076860E+02  0.16574015132E+02  0.50528866599E+02  0.30000020513E+02 0.  0.
         12    1    1    2    0    0  0.25769692639E+02 -0.26728076860E+02 -0.16574015132E+02  0.40659133401E+02  0.00000000000E+00 0. -1.
         11    1    3    3    0    0 -0.39086227957E+01 -0.97692330684E+00  0.92352439803E+01  0.10075784979E+02  0.51100000000E-03 0. -1.
        -11    1    3    3    0    0 -0.10696349025E+02  0.26340588153E+02  0.39285247389E+01  0.28699682465E+02  0.51100000000E-03 0.  1.
        -12    1    3    3    0    0 -0.11164720818E+02  0.13644120139E+01  0.34102464130E+01  0.11753399155E+02  0.00000000000E+00 0.  1.
</event>
<event>
 7    1  0.3041451E-011  0.5052886E+02  0.7816164E-02  0.1300439E+00
        -11   -1    0    0    0    0  0.00000000000E+00  0.00000000000E+00  0.45593999997E+02  0.45594000000E+02  0.51100000000E-03 0. -1.
         11   -1    0    0    0    0 -0.00000000000E+00 -0.00000000000E+00 -0.45593999997E+02  0.45594000000E+02  0.51100000000E-03 0.  1.
    9900012    2    1    2    0    0 -0.14882771506E+02  0.37828724096E+02 -0.81006745627E+00  0.50528862482E+02  0.30000008000E+02 0.  0.
         12    1    1    2    0    0  0.14882771506E+02 -0.37828724096E+02  0.81006745627E+00  0.40659137518E+02  0.00000000000E+00 0. -1.
         11    1    3    3    0    0 -0.19807250002E+01 -0.28984874851E+01  0.15216261034E+01  0.38262053640E+01  0.51100000000E-03 0. -1.
        -11    1    3    3    0    0 -0.16042866693E+02  0.32097088553E+02 -0.67480216866E+01  0.36512086523E+02  0.51100000000E-03 0.  1.
        -12    1    3    3    0    0  0.31408201870E+01  0.86301230283E+01  0.44163281269E+01  0.10190570595E+02  0.00000000000E+00 0.  1.
</event>
<event>
 7    1  0.3041451E-011  0.5052887E+02  0.7816164E-02  0.1300439E+00
        -11   -1    0    0    0    0  0.00000000000E+00  0.00000000000E+00  0.45593999997E+02  0.45594000000E+02  0.51100000000E-03 0.  1.
         11   -1    0    0    0    0 -0.00000000000E+00 -0.00000000000E+00 -0.45593999997E+02  0.45594000000E+02  0.51100000000E-03 0. -1.
    9900012    2    1    2    0    0  0.17865885416E+02  0.26203573929E+02  0.25443036120E+02  0.50528865290E+02  0.30000016536E+02 0.  0.
         12    1    1    2    0    0 -0.17865885416E+02 -0.26203573929E+02 -0.25443036120E+02  0.40659134710E+02  0.00000000000E+00 0. -1.
         11    1    3    3    0    0  0.66125588378E+01  0.10100437101E+00  0.13846057070E+02  0.15344361600E+02  0.51100000000E-03 0. -1.
        -11    1    3    3    0    0  0.41013701480E+01  0.21901704011E+02  0.14281634303E+02  0.26466411814E+02  0.51100000000E-03 0.  1.
         12    1    3    3    0    0  0.71519564301E+01  0.42008655466E+01 -0.26846552536E+01  0.87180918755E+01  0.00000000000E+00 0. -1.
</event>
<event>
 7    1  0.3041451E-011  0.5052886E+02  0.7816164E-02  0.1300439E+00
        -11   -1    0    0    0    0  0.00000000000E+00  0.00000000000E+00  0.45593999997E+02  0.45594000000E+02  0.51100000000E-03 0. -1.
         11   -1    0    0    0    0 -0.00000000000E+00 -0.00000000000E+00 -0.45593999997E+02  0.45594000000E+02  0.51100000000E-03 0.  1.
    9900012    2    1    2    0    0  0.33354508129E+02 -0.15698626808E+02 -0.17152122933E+02  0.50528863053E+02  0.30000009736E+02 0.  0.
         12    1    1    2    0    0 -0.33354508129E+02  0.15698626808E+02  0.17152122933E+02  0.40659136947E+02  0.00000000000E+00 0. -1.
         11    1    3    3    0    0  0.29751416152E+01 -0.95051098100E+01  0.16149823439E+01  0.10089933021E+02  0.51100000000E-03 0. -1.
        -11    1    3    3    0    0  0.29191750213E+02  0.20815622193E+00 -0.16569826569E+02  0.33567257295E+02  0.51100000000E-03 0.  1.
        -12    1    3    3    0    0  0.11876163001E+01 -0.64016732195E+01 -0.21972787076E+01  0.68716727370E+01  0.00000000000E+00 0.  1.
</event>
<event>
 7    1  0.3041451E-011  0.5052887E+02  0.7816164E-02  0.1300439E+00
        -11   -1    0    0    0    0  0.00000000000E+00  0.00000000000E+00  0.45593999997E+02  0.45594000000E+02  0.51100000000E-03 0.  1.
         11   -1    0    0    0    0 -0.00000000000E+00 -0.00000000000E+00 -0.45593999997E+02  0.45594000000E+02  0.51100000000E-03 0. -1.
    9900012    2    1    2    0    0  0.15879733575E+02  0.11152766683E+02  0.35729749262E+02  0.50528866643E+02  0.30000020647E+02 0.  0.
         12    1    1    2    0    0 -0.15879733575E+02 -0.11152766683E+02 -0.35729749262E+02  0.40659133357E+02  0.00000000000E+00 0. -1.
         11    1    3    3    0    0  0.61201873338E+01  0.87756094523E+01 -0.82693070750E+00  0.10730882020E+02  0.51100000000E-03 0. -1.
        -11    1    3    3    0    0  0.13853405055E+01 -0.75191690550E+00  0.25638091003E+02  0.25686499525E+02  0.51100000000E-03 0.  1.
        -12    1    3    3    0    0  0.83742057354E+01  0.31290741357E+01  0.10918588967E+02  0.14111485098E+02  0.00000000000E+00 0.  1.
</event>
<event>
 7    1  0.3041451E-011  0.5052888E+02  0.7816164E-02  0.1300439E+00
        -11   -1    0    0    0    0  0.00000000000E+00  0.00000000000E+00  0.45593999997E+02  0.45594000000E+02  0.51100000000E-03 0.  1.
         11   -1    0    0    0    0 -0.00000000000E+00 -0.00000000000E+00 -0.45593999997E+02  0.45594000000E+02  0.51100000000E-03 0. -1.
    9900012    2    1    2    0    0  0.25272677746E+02  0.28558320114E+02  0.14102417910E+02  0.50528879509E+02  0.30000059756E+02 0.  0.
         12    1    1    2    0    0 -0.25272677746E+02 -0.28558320114E+02 -0.14102417910E+02  0.40659120491E+02  0.00000000000E+00 0. -1.
         11    1    3    3    0    0  0.35491577548E+01  0.22464178345E+02 -0.44840140038E+00  0.22747239251E+02  0.51100000000E-03 0. -1.
        -11    1    3    3    0    0  0.21368251782E+01  0.14605122849E+01  0.47170169513E+01  0.53804616118E+01  0.51100000000E-03 0.  1.
         12    1    3    3    0    0  0.19586694813E+02  0.46336294844E+01  0.98338023587E+01  0.22401178646E+02  0.00000000000E+00 0. -1.
</event>
<event>
 7    1  0.3041451E-011  0.5052886E+02  0.7816164E-02  0.1300439E+00
        -11   -1    0    0    0    0  0.00000000000E+00  0.00000000000E+00  0.45593999997E+02  0.45594000000E+02  0.51100000000E-03 0.  1.
         11   -1    0    0    0    0 -0.00000000000E+00 -0.00000000000E+00 -0.45593999997E+02  0.45594000000E+02  0.51100000000E-03 0. -1.
    9900012    2    1    2    0    0  0.29009794130E+02 -0.14706247726E+02  0.24399261085E+02  0.50528858111E+02  0.29999994715E+02 0.  0.
         12    1    1    2    0    0 -0.29009794130E+02  0.14706247726E+02 -0.24399261085E+02  0.40659141889E+02  0.00000000000E+00 0. -1.
         11    1    3    3    0    0  0.10389413242E+02  0.49347475332E+01  0.36586944355E+01  0.12069701155E+02  0.51100000000E-03 0. -1.
        -11    1    3    3    0    0  0.10197715811E+02 -0.14834329303E+02  0.30121469027E+01  0.18251678357E+02  0.51100000000E-03 0.  1.
        -12    1    3    3    0    0  0.84226650763E+01 -0.48066659562E+01  0.17728419747E+02  0.20207478599E+02  0.00000000000E+00 0.  1.
</event>
<event>
 7    1  0.3041451E-011  0.5052887E+02  0.7816164E-02  0.1300439E+00
        -11   -1    0    0    0    0  0.00000000000E+00  0.00000000000E+00  0.45593999997E+02  0.45594000000E+02  0.51100000000E-03 0.  1.
         11   -1    0    0    0    0 -0.00000000000E+00 -0.00000000000E+00 -0.45593999997E+02  0.45594000000E+02  0.51100000000E-03 0. -1.
    9900012    2    1    2    0    0  0.55637650404E+01  0.26579578478E+01  0.40188866182E+02  0.50528865893E+02  0.30000018368E+02 0.  0.
         12    1    1    2    0    0 -0.55637650404E+01 -0.26579578478E+01 -0.40188866182E+02  0.40659134107E+02  0.00000000000E+00 0. -1.
         11    1    3    3    0    0 -0.73577405194E+01 -0.75387320889E+01  0.12561122261E+02  0.16393615214E+02  0.51100000000E-03 0. -1.
        -11    1    3    3    0    0  0.14574463138E+02  0.64242272174E+01  0.22134712579E+02  0.27269601616E+02  0.51100000000E-03 0.  1.
        -12    1    3    3    0    0 -0.16529575785E+01  0.37724627193E+01  0.54930313426E+01  0.68656490629E+01  0.00000000000E+00 0.  1.
</event>
<event>
 7    1  0.3041451E-011  0.5052886E+02  0.7816164E-02  0.1300439E+00
        -11   -1    0    0    0    0  0.00000000000E+00  0.00000000000E+00  0.45593999997E+02  0.45594000000E+02  0.51100000000E-03 0.  1.
         11   -1    0    0    0    0 -0.00000000000E+00 -0.00000000000E+00 -0.45593999997E+02  0.45594000000E+02  0.51100000000E-03 0. -1.
    9900012    2    1    2    0    0  0.28247635495E+02  0.24489918937E+02  0.15983772050E+02  0.50528855770E+02  0.29999987598E+02 0.  0.
         12    1    1    2    0    0 -0.28247635495E+02 -0.24489918937E+02 -0.15983772050E+02  0.40659144230E+02  0.00000000000E+00 0. -1.
         11    1    3    3    0    0  0.12521601353E+02  0.77956622930E+01  0.25700170497E+01  0.14972235602E+02  0.51100000000E-03 0. -1.
        -11    1    3    3    0    0 -0.38777934145E+01  0.73173176317E+01  0.10887715173E+02  0.13679282183E+02  0.51100000000E-03 0.  1.
        -12    1    3    3    0    0  0.19603827557E+02  0.93769390123E+01  0.25260398277E+01  0.21877337985E+02  0.00000000000E+00 0.  1.
</event>
<event>
 7    1  0.3041451E-011  0.5052886E+02  0.7816164E-02  0.1300439E+00
        -11   -1    0    0    0    0  0.00000000000E+00  0.00000000000E+00  0.45593999997E+02  0.45594000000E+02  0.51100000000E-03 0.  1.
         11   -1    0    0    0    0 -0.00000000000E+00 -0.00000000000E+00 -0.45593999997E+02  0.45594000000E+02  0.51100000000E-03 0. -1.
    9900012    2    1    2    0    0 -0.11393341210E+02 -0.14030706609E+02  0.36421107969E+02  0.50528855179E+02  0.29999985804E+02 0.  0.
         12    1    1    2    0    0  0.11393341210E+02  0.14030706609E+02 -0.36421107969E+02  0.40659144821E+02  0.00000000000E+00 0. -1.
         11    1    3    3    0    0 -0.10665014416E+02 -0.35017982586E+01  0.18677070329E+02  0.21790779699E+02  0.51100000000E-03 0. -1.
        -11    1    3    3    0    0  0.55301537139E+01 -0.40439242544E+01  0.18466860584E+02  0.19696722153E+02  0.51100000000E-03 0.  1.
        -12    1    3    3    0    0 -0.62584805084E+01 -0.64849840958E+01 -0.72282294442E+00  0.90413533282E+01  0.00000000000E+00 0.  1.
</event>
<event>
 7    1  0.3816857E-011  0.5052887E+02  0.7816164E-02  0.1300439E+00
        -11   -1    0    0    0    0  0.00000000000E+00  0.00000000000E+00  0.45593999997E+02  0.45594000000E+02  0.51100000000E-03 0. -1.
         11   -1    0    0    0    0 -0.00000000000E+00 -0.00000000000E+00 -0.45593999997E+02  0.45594000000E+02  0.51100000000E-03 0.  1.
    9900012    2    1    2    0    0 -0.31440291325E+02 -0.19808430106E+02 -0.16501483223E+02  0.50528871008E+02  0.30000033916E+02 0.  0.
         12    1    1    2    0    0  0.31440291325E+02  0.19808430106E+02  0.16501483223E+02  0.40659128992E+02  0.00000000000E+00 0. -1.
         11    1    3    3    0    0 -0.20519373765E+00 -0.12778290008E+01  0.62321354059E+01  0.63650972816E+01  0.51100000000E-03 0. -1.
        -11    1    3    3    0    0 -0.16757591319E+02 -0.10065000920E+02 -0.59410715036E+01  0.20430796391E+02  0.51100000000E-03 0.  1.
         12    1    3    3    0    0 -0.14477506268E+02 -0.84656001851E+01 -0.16792547125E+02  0.23732977335E+02  0.00000000000E+00 0. -1.
</event>
<event>
 7    1  0.3041451E-011  0.5052882E+02  0.7816164E-02  0.1300439E+00
        -11   -1    0    0    0    0  0.00000000000E+00  0.00000000000E+00  0.45593999997E+02  0.45594000000E+02  0.51100000000E-03 0. -1.
         11   -1    0    0    0    0 -0.00000000000E+00 -0.00000000000E+00 -0.45593999997E+02  0.45594000000E+02  0.51100000000E-03 0.  1.
    9900012    2    1    2    0    0 -0.34173023426E+02 -0.21278393367E+02  0.57099346415E+01  0.50528820127E+02  0.29999879258E+02 0.  0.
         12    1    1    2    0    0  0.34173023426E+02  0.21278393367E+02 -0.57099346415E+01  0.40659179873E+02  0.00000000000E+00 0. -1.
         11    1    3    3    0    0 -0.72416285095E+00 -0.63139089900E+01 -0.26072219804E+01  0.68693133052E+01  0.51100000000E-03 0. -1.
        -11    1    3    3    0    0 -0.35633092252E+02 -0.14544507060E+02  0.11138803286E+02  0.40066605646E+02  0.51100000000E-03 0.  1.
        -12    1    3    3    0    0  0.21842316772E+01 -0.41997731660E+00 -0.28216466640E+01  0.35929011762E+01  0.00000000000E+00 0.  1.
</event>
<event>
 7    1  0.3041451E-011  0.5052885E+02  0.7816164E-02  0.1300439E+00
        -11   -1    0    0    0    0  0.00000000000E+00  0.00000000000E+00  0.45593999997E+02  0.45594000000E+02  0.51100000000E-03 0. -1.
         11   -1    0    0    0    0 -0.00000000000E+00 -0.00000000000E+00 -0.45593999997E+02  0.45594000000E+02  0.51100000000E-03 0.  1.
    9900012    2    1    2    0    0 -0.18292961571E+01 -0.40101641817E+02  0.64559163455E+01  0.50528845351E+02  0.29999955930E+02 0.  0.
         12    1    1    2    0    0  0.18292961571E+01  0.40101641817E+02 -0.64559163455E+01  0.40659154649E+02  0.00000000000E+00 0. -1.
         11    1    3    3    0    0  0.58982285786E+01  0.15693768210E+01 -0.24201776660E+01  0.65657675993E+01  0.51100000000E-03 0. -1.
        -11    1    3    3    0    0  0.36762946046E+00 -0.68237799996E+01 -0.85789756156E+00  0.68873153979E+01  0.51100000000E-03 0.  1.
         12    1    3    3    0    0 -0.80951541962E+01 -0.34847238639E+02  0.97339915730E+01  0.37075762354E+02  0.00000000000E+00 0. -1.
</event>
<event>
 7    1  0.3041451E-011  0.5052886E+02  0.7816164E-02  0.1300439E+00
        -11   -1    0    0    0    0  0.00000000000E+00  0.00000000000E+00  0.45593999997E+02  0.45594000000E+02  0.51100000000E-03 0.  1.
         11   -1    0    0    0    0 -0.00000000000E+00 -0.00000000000E+00 -0.45593999997E+02  0.45594000000E+02  0.51100000000E-03 0. -1.
    9900012    2    1    2    0    0 -0.71797708742E+01 -0.99417023787E+01  0.38765697868E+02  0.50528857275E+02  0.29999992172E+02 0.  0.
         12    1    1    2    0    0  0.71797708742E+01  0.99417023787E+01 -0.38765697868E+02  0.40659142725E+02  0.00000000000E+00 0. -1.
         11    1    3    3    0    0 -0.73698048904E+01 -0.19368807132E+01 -0.26992546892E+01  0.80840279043E+01  0.51100000000E-03 0. -1.
        -11    1    3    3    0    0 -0.84045635141E+00 -0.15748804634E+01  0.18148796486E+02  0.18236376545E+02  0.51100000000E-03 0.  1.
         12    1    3    3    0    0  0.10304903676E+01 -0.64299412022E+01  0.23316156071E+02  0.24208452825E+02  0.00000000000E+00 0. -1.
</event>
<event>
 7    1  0.3041451E-011  0.5052886E+02  0.7816164E-02  0.1300439E+00
        -11   -1    0    0    0    0  0.00000000000E+00  0.00000000000E+00  0.45593999997E+02  0.45594000000E+02  0.51100000000E-03 0.  1.
         11   -1    0    0    0    0 -0.00000000000E+00 -0.00000000000E+00 -0.45593999997E+02  0.45594000000E+02  0.51100000000E-03 0. -1.
    9900012    2    1    2    0    0 -0.22021151233E+02 -0.53452144669E+00  0.34175261356E+02  0.50528864452E+02  0.30000013987E+02 0.  0.
         12    1    1    2    0    0  0.22021151233E+02  0.53452144669E+00 -0.34175261356E+02  0.40659135548E+02  0.00000000000E+00 0. -1.
         11    1    3    3    0    0 -0.19583391842E+02 -0.80687944731E+01  0.23483033740E+02  0.31623844709E+02  0.51100000000E-03 0. -1.
        -11    1    3    3    0    0 -0.29102230325E+01  0.10107694561E+02  0.12018864939E+02  0.15971474639E+02  0.51100000000E-03 0.  1.
        -12    1    3    3    0    0  0.47246364148E+00 -0.25734215349E+01 -0.13266373233E+01  0.29335451039E+01  0.00000000000E+00 0.  1.
</event>
<event>
 7    1  0.3041451E-011  0.5052886E+02  0.7816164E-02  0.1300439E+00
        -11   -1    0    0    0    0  0.00000000000E+00  0.00000000000E+00  0.45593999997E+02  0.45594000000E+02  0.51100000000E-03 0.  1.
         11   -1    0    0    0    0 -0.00000000000E+00 -0.00000000000E+00 -0.45593999997E+02  0.45594000000E+02  0.51100000000E-03 0. -1.
    9900012    2    1    2    0    0  0.27362718768E+02  0.29192441547E+01  0.29932015057E+02  0.50528857237E+02  0.29999992058E+02 0.  0.
         12    1    1    2    0    0 -0.27362718768E+02 -0.29192441547E+01 -0.29932015057E+02  0.40659142763E+02  0.00000000000E+00 0. -1.
         11    1    3    3    0    0 -0.17301139349E+01  0.42053298610E+01  0.13058413199E+01  0.47311008530E+01  0.51100000000E-03 0. -1.
        -11    1    3    3    0    0  0.12272667904E+02 -0.99214252088E+01  0.75848248688E+01  0.17509500970E+02  0.51100000000E-03 0.  1.
        -12    1    3    3    0    0  0.16820164800E+02  0.86353395026E+01  0.21041348868E+02  0.28288255415E+02  0.00000000000E+00 0.  1.
</event>
<event>
 7    1  0.3041451E-011  0.5052888E+02  0.7816164E-02  0.1300439E+00
        -11   -1    0    0    0    0  0.00000000000E+00  0.00000000000E+00  0.45593999997E+02  0.45594000000E+02  0.51100000000E-03 0.  1.
         11   -1    0    0    0    0 -0.00000000000E+00 -0.00000000000E+00 -0.45593999997E+02  0.45594000000E+02  0.51100000000E-03 0. -1.
    9900012    2    1    2    0    0  0.19120885368E+01 -0.46061330645E+01  0.40352090501E+02  0.50528883530E+02  0.30000071976E+02 0.  0.
         12    1    1    2    0    0 -0.19120885368E+01  0.46061330645E+01 -0.40352090501E+02  0.40659116470E+02  0.00000000000E+00 0. -1.
         11    1    3    3    0    0  0.13135050184E+02  0.28284620005E+01  0.11564578719E+02  0.17727640053E+02  0.51100000000E-03 0. -1.
        -11    1    3    3    0    0 -0.67124620846E+01 -0.12863395594E+01  0.20159478357E+02  0.21286530591E+02  0.51100000000E-03 0.  1.
         12    1    3    3    0    0 -0.45104995630E+01 -0.61482555056E+01  0.86280334246E+01  0.11514712886E+02  0.00000000000E+00 0. -1.
</event>
<event>
 7    1  0.3041451E-011  0.5052886E+02  0.7816164E-02  0.1300439E+00
        -11   -1    0    0    0    0  0.00000000000E+00  0.00000000000E+00  0.45593999997E+02  0.45594000000E+02  0.51100000000E-03 0. -1.
         11   -1    0    0    0    0 -0.00000000000E+00 -0.00000000000E+00 -0.45593999997E+02  0.45594000000E+02  0.51100000000E-03 0.  1.
    9900012    2    1    2    0    0  0.31613918071E+02 -0.21884094623E+02 -0.13221654069E+02  0.50528861426E+02  0.30000004789E+02 0.  0.
         12    1    1    2    0    0 -0.31613918071E+02  0.21884094623E+02  0.13221654069E+02  0.40659138574E+02  0.00000000000E+00 0. -1.
         11    1    3    3    0    0  0.46314255123E+01  0.23966488780E+01 -0.95946289855E+01  0.10920207587E+02  0.51100000000E-03 0. -1.
        -11    1    3    3    0    0  0.24877485099E+02 -0.13300927821E+02 -0.35165417955E+01  0.28428331154E+02  0.51100000000E-03 0.  1.
        -12    1    3    3    0    0  0.21050074602E+01 -0.10979815680E+02 -0.11048328849E+00  0.11180322684E+02  0.00000000000E+00 0.  1.
</event>
<event>
 7    1  0.3041451E-011  0.5052886E+02  0.7816164E-02  0.1300439E+00
        -11   -1    0    0    0    0  0.00000000000E+00  0.00000000000E+00  0.45593999997E+02  0.45594000000E+02  0.51100000000E-03 0. -1.
         11   -1    0    0    0    0 -0.00000000000E+00 -0.00000000000E+00 -0.45593999997E+02  0.45594000000E+02  0.51100000000E-03 0.  1.
    9900012    2    1    2    0    0 -0.10139642082E+00 -0.60939998804E+01 -0.40199735445E+02  0.50528857785E+02  0.29999993724E+02 0.  0.
         12    1    1    2    0    0  0.10139642082E+00  0.60939998804E+01  0.40199735445E+02  0.40659142215E+02  0.00000000000E+00 0. -1.
         11    1    3    3    0    0  0.79750433813E+01 -0.13712114445E+02 -0.19691345780E+02  0.25285816150E+02  0.51100000000E-03 0. -1.
        -11    1    3    3    0    0 -0.75620187706E+01  0.17090943757E+01 -0.16045165590E+02  0.17820001979E+02  0.51100000000E-03 0.  1.
         12    1    3    3    0    0 -0.51442103151E+00  0.59090201886E+01 -0.44632240754E+01  0.74230396560E+01  0.00000000000E+00 0. -1.
</event>
<event>
 7    1  0.3041451E-011  0.5052886E+02  0.7816164E-02  0.1300439E+00
        -11   -1    0    0    0    0  0.00000000000E+00  0.00000000000E+00  0.45593999997E+02  0.45594000000E+02  0.51100000000E-03 0.  1.
         11   -1    0    0    0    0 -0.00000000000E+00 -0.00000000000E+00 -0.45593999997E+02  0.45594000000E+02  0.51100000000E-03 0. -1.
    9900012    2    1    2    0    0 -0.38653965708E+01  0.28515436873E+02  0.28724456764E+02  0.50528857767E+02  0.29999993669E+02 0.  0.
         12    1    1    2    0    0  0.38653965708E+01 -0.28515436873E+02 -0.28724456764E+02  0.40659142233E+02  0.00000000000E+00 0. -1.
         11    1    3    3    0    0  0.14615868280E+01 -0.87781641584E+00 -0.32366560649E+01  0.36582428103E+01  0.51100000000E-03 0. -1.
        -11    1    3    3    0    0 -0.10297818769E+01  0.21897058185E+02  0.31289012555E+02  0.38203977735E+02  0.51100000000E-03 0.  1.
        -12    1    3    3    0    0 -0.42972015220E+01  0.74961951037E+01  0.67210027398E+00  0.86666372216E+01  0.00000000000E+00 0.  1.
</event>
<event>
 7    1  0.3041451E-011  0.5052887E+02  0.7816164E-02  0.1300439E+00
        -11   -1    0    0    0    0  0.00000000000E+00  0.00000000000E+00  0.45593999997E+02  0.45594000000E+02  0.51100000000E-03 0.  1.
         11   -1    0    0    0    0 -0.00000000000E+00 -0.00000000000E+00 -0.45593999997E+02  0.45594000000E+02  0.51100000000E-03 0. -1.
    9900012    2    1    2    0    0  0.16669457720E+02 -0.18725054453E+02  0.32010414478E+02  0.50528866708E+02  0.30000020847E+02 0.  0.
         12    1    1    2    0    0 -0.16669457720E+02  0.18725054453E+02 -0.32010414478E+02  0.40659133292E+02  0.00000000000E+00 0. -1.
         11    1    3    3    0    0 -0.66367112522E+01 -0.13892561543E+01  0.94278615845E+01  0.11612947224E+02  0.51100000000E-03 0. -1.
        -11    1    3    3    0    0  0.72113021469E+01 -0.52047184517E+01  0.33941669939E+00  0.88998413903E+01  0.51100000000E-03 0.  1.
         12    1    3    3    0    0  0.16094866826E+02 -0.12131079847E+02  0.22243136195E+02  0.30016078094E+02  0.00000000000E+00 0. -1.
</event>
<event>
 7    1  0.3041451E-011  0.5052886E+02  0.7816164E-02  0.1300439E+00
        -11   -1    0    0    0    0  0.00000000000E+00  0.00000000000E+00  0.45593999997E+02  0.45594000000E+02  0.51100000000E-03 0.  1.
         11   -1    0    0    0    0 -0.00000000000E+00 -0.00000000000E+00 -0.45593999997E+02  0.45594000000E+02  0.51100000000E-03 0. -1.
    9900012    2    1    2    0    0  0.20847831968E+02  0.15900662491E+02  0.31075751815E+02  0.50528861835E+02  0.30000006034E+02 0.  0.
         12    1    1    2    0    0 -0.20847831968E+02 -0.15900662491E+02 -0.31075751815E+02  0.40659138165E+02  0.00000000000E+00 0. -1.
         11    1    3    3    0    0  0.30322727397E+01 -0.19602506982E+01 -0.11058134425E+01  0.37762526926E+01  0.51100000000E-03 0. -1.
        -11    1    3    3    0    0  0.21917526452E+02  0.14553578863E+02  0.18700518281E+02  0.32278382979E+02  0.51100000000E-03 0.  1.
        -12    1    3    3    0    0 -0.41019672238E+01  0.33073343265E+01  0.13481046976E+02  0.14474226163E+02  0.00000000000E+00 0.  1.
</event>
<event>
 7    1  0.3041451E-011  0.5052889E+02  0.7816164E-02  0.1300439E+00
        -11   -1    0    0    0    0  0.00000000000E+00  0.00000000000E+00  0.45593999997E+02  0.45594000000E+02  0.51100000000E-03 0.  1.
         11   -1    0    0    0    0 -0.00000000000E+00 -0.00000000000E+00 -0.45593999997E+02  0.45594000000E+02  0.51100000000E-03 0. -1.
    9900012    2    1    2    0    0 -0.22455375545E+02 -0.31682409957E+02 -0.12047592765E+02  0.50528886840E+02  0.30000082038E+02 0.  0.
         12    1    1    2    0    0  0.22455375545E+02  0.31682409957E+02  0.12047592765E+02  0.40659113160E+02  0.00000000000E+00 0. -1.
         11    1    3    3    0    0 -0.21678211310E+02 -0.85747793219E+01 -0.81286588258E+01  0.24689001207E+02  0.51100000000E-03 0. -1.
        -11    1    3    3    0    0 -0.48961498346E+01 -0.18732977200E+02 -0.17081588650E+01  0.19437451607E+02  0.51100000000E-03 0.  1.
         12    1    3    3    0    0  0.41189855991E+01 -0.43746534344E+01 -0.22107750738E+01  0.64024340265E+01  0.00000000000E+00 0. -1.
</event>
<event>
 7    1  0.3041451E-011  0.5052886E+02  0.7816164E-02  0.1300439E+00
        -11   -1    0    0    0    0  0.00000000000E+00  0.00000000000E+00  0.45593999997E+02  0.45594000000E+02  0.51100000000E-03 0.  1.
         11   -1    0    0    0    0 -0.00000000000E+00 -0.00000000000E+00 -0.45593999997E+02  0.45594000000E+02  0.51100000000E-03 0. -1.
    9900012    2    1    2    0    0 -0.15999970580E+02 -0.18043528980E+02  0.32735266649E+02  0.50528859832E+02  0.29999999944E+02 0.  0.
         12    1    1    2    0    0  0.15999970580E+02  0.18043528980E+02 -0.32735266649E+02  0.40659140168E+02  0.00000000000E+00 0. -1.
         11    1    3    3    0    0  0.51832411133E+01  0.74752173982E+00  0.34242065722E+01  0.62569935352E+01  0.51100000000E-03 0. -1.
        -11    1    3    3    0    0 -0.21224720635E+02 -0.14407753941E+02  0.15943092793E+02  0.30203548595E+02  0.51100000000E-03 0.  1.
        -12    1    3    3    0    0  0.41508941482E-01 -0.43832967793E+01  0.13367967284E+02  0.14068317701E+02  0.00000000000E+00 0.  1.
</event>
<event>
 7    1  0.3041451E-011  0.5052886E+02  0.7816164E-02  0.1300439E+00
        -11   -1    0    0    0    0  0.00000000000E+00  0.00000000000E+00  0.45593999997E+02  0.45594000000E+02  0.51100000000E-03 0.  1.
         11   -1    0    0    0    0 -0.00000000000E+00 -0.00000000000E+00 -0.45593999997E+02  0.45594000000E+02  0.51100000000E-03 0. -1.
    9900012    2    1    2    0    0  0.27115037434E+02  0.21080812970E+02  0.21760975716E+02  0.50528855953E+02  0.29999988156E+02 0.  0.
         12    1    1    2    0    0 -0.27115037434E+02 -0.21080812970E+02 -0.21760975716E+02  0.40659144047E+02  0.00000000000E+00 0. -1.
         11    1    3    3    0    0  0.12689928380E+02  0.86717737145E+01  0.25103932640E+02  0.29435376266E+02  0.51100000000E-03 0.  1.
        -11    1    3    3    0    0  0.14711691526E+02  0.86693207653E+01 -0.27076237397E+01  0.17289367156E+02  0.51100000000E-03 0. -1.
        -12    1    3    3    0    0 -0.28658247226E+00  0.37397184901E+01 -0.63533318441E+00  0.38041125317E+01  0.00000000000E+00 0.  1.
</event>
<event>
 7    1  0.3041451E-011  0.5052887E+02  0.7816164E-02  0.1300439E+00
        -11   -1    0    0    0    0  0.00000000000E+00  0.00000000000E+00  0.45593999997E+02  0.45594000000E+02  0.51100000000E-03 0.  1.
         11   -1    0    0    0    0 -0.00000000000E+00 -0.00000000000E+00 -0.45593999997E+02  0.45594000000E+02  0.51100000000E-03 0. -1.
    9900012    2    1    2    0    0  0.14608828373E+02 -0.16371805096E+02  0.34230269790E+02  0.50528865252E+02  0.30000016421E+02 0.  0.
         12    1    1    2    0    0 -0.14608828373E+02  0.16371805096E+02 -0.34230269790E+02  0.40659134748E+02  0.00000000000E+00 0. -1.
         11    1    3    3    0    0  0.13350720904E+02  0.11197996402E+01  0.37740903818E+01  0.13919032235E+02  0.51100000000E-03 0. -1.
        -11    1    3    3    0    0  0.55717288760E+01 -0.12120065285E+02  0.21642184459E+02  0.25422908835E+02  0.51100000000E-03 0.  1.
         12    1    3    3    0    0 -0.43136214066E+01 -0.53715394510E+01  0.88139949488E+01  0.11186924183E+02  0.00000000000E+00 0. -1.
</event>
<event>
 7    1  0.3041451E-011  0.5052887E+02  0.7816164E-02  0.1300439E+00
        -11   -1    0    0    0    0  0.00000000000E+00  0.00000000000E+00  0.45593999997E+02  0.45594000000E+02  0.51100000000E-03 0. -1.
         11   -1    0    0    0    0 -0.00000000000E+00 -0.00000000000E+00 -0.45593999997E+02  0.45594000000E+02  0.51100000000E-03 0.  1.
    9900012    2    1    2    0    0  0.62343343211E+01 -0.15471024221E+02 -0.37080260247E+02  0.50528865543E+02  0.30000017303E+02 0.  0.
         12    1    1    2    0    0 -0.62343343211E+01  0.15471024221E+02  0.37080260247E+02  0.40659134457E+02  0.00000000000E+00 0. -1.
         11    1    3    3    0    0 -0.55787287420E+01  0.32161811114E+01 -0.18206106563E+01  0.66918352296E+01  0.51100000000E-03 0. -1.
        -11    1    3    3    0    0  0.10471235331E+02 -0.39212784745E+01 -0.13982291754E+02  0.17903286771E+02  0.51100000000E-03 0.  1.
         12    1    3    3    0    0  0.13418277317E+01 -0.14765926857E+02 -0.21277357836E+02  0.25933743542E+02  0.00000000000E+00 0. -1.
</event>
<event>
 7    1  0.3041451E-011  0.5052887E+02  0.7816164E-02  0.1300439E+00
        -11   -1    0    0    0    0  0.00000000000E+00  0.00000000000E+00  0.45593999997E+02  0.45594000000E+02  0.51100000000E-03 0.  1.
         11   -1    0    0    0    0 -0.00000000000E+00 -0.00000000000E+00 -0.45593999997E+02  0.45594000000E+02  0.51100000000E-03 0. -1.
    9900012    2    1    2    0    0  0.15528350748E+02 -0.35022351584E+02 -0.13618728248E+02  0.50528873761E+02  0.30000042284E+02 0.  0.
         12    1    1    2    0    0 -0.15528350748E+02  0.35022351584E+02  0.13618728248E+02  0.40659126239E+02  0.00000000000E+00 0. -1.
         11    1    3    3    0    0  0.14644857196E+02 -0.18464696424E+02  0.30960728733E+01  0.23769781737E+02  0.51100000000E-03 0. -1.
        -11    1    3    3    0    0  0.56295484242E+01 -0.60518293271E+01 -0.11358240980E+02  0.14047280594E+02  0.51100000000E-03 0.  1.
         12    1    3    3    0    0 -0.47460548724E+01 -0.10505825833E+02 -0.53565601416E+01  0.12711811430E+02  0.00000000000E+00 0. -1.
</event>
<event>
 7    1  0.3041451E-011  0.5052885E+02  0.7816164E-02  0.1300439E+00
        -11   -1    0    0    0    0  0.00000000000E+00  0.00000000000E+00  0.45593999997E+02  0.45594000000E+02  0.51100000000E-03 0. -1.
         11   -1    0    0    0    0 -0.00000000000E+00 -0.00000000000E+00 -0.45593999997E+02  0.45594000000E+02  0.51100000000E-03 0.  1.
    9900012    2    1    2    0    0 -0.98298316445E+01  0.15624696157E+02 -0.36227191868E+02  0.50528854033E+02  0.29999982318E+02 0.  0.
         12    1    1    2    0    0  0.98298316445E+01 -0.15624696157E+02  0.36227191868E+02  0.40659145967E+02  0.00000000000E+00 0. -1.
         11    1    3    3    0    0  0.65805197712E+01  0.20335999430E+01 -0.19322781771E+02  0.20513621445E+02  0.51100000000E-03 0. -1.
        -11    1    3    3    0    0 -0.10790648885E+02  0.13942666652E+02 -0.16845018103E+02  0.24384230393E+02  0.51100000000E-03 0.  1.
        -12    1    3    3    0    0 -0.56197025307E+01 -0.35157043788E+00 -0.59391994558E-01  0.56310021946E+01  0.00000000000E+00 0.  1.
</event>
<event>
 7    1  0.3041451E-011  0.5052888E+02  0.7816164E-02  0.1300439E+00
        -11   -1    0    0    0    0  0.00000000000E+00  0.00000000000E+00  0.45593999997E+02  0.45594000000E+02  0.51100000000E-03 0.  1.
         11   -1    0    0    0    0 -0.00000000000E+00 -0.00000000000E+00 -0.45593999997E+02  0.45594000000E+02  0.51100000000E-03 0. -1.
    9900012    2    1    2    0    0  0.24337345892E+01 -0.11134966477E+02  0.39028879141E+02  0.50528881102E+02  0.30000064599E+02 0.  0.
         12    1    1    2    0    0 -0.24337345892E+01  0.11134966477E+02 -0.39028879141E+02  0.40659118898E+02  0.00000000000E+00 0. -1.
         11    1    3    3    0    0  0.62305966970E+01  0.27672308359E+01  0.28896523537E+02  0.29689846320E+02  0.51100000000E-03 0. -1.
        -11    1    3    3    0    0  0.30004637964E+01 -0.29093137106E+01 -0.35552175580E+00  0.41944350323E+01  0.51100000000E-03 0.  1.
         12    1    3    3    0    0 -0.67973259042E+01 -0.10992883602E+02  0.10487877360E+02  0.16644599751E+02  0.00000000000E+00 0. -1.
</event>
<event>
 7    1  0.3041451E-011  0.5052888E+02  0.7816164E-02  0.1300439E+00
        -11   -1    0    0    0    0  0.00000000000E+00  0.00000000000E+00  0.45593999997E+02  0.45594000000E+02  0.51100000000E-03 0.  1.
         11   -1    0    0    0    0 -0.00000000000E+00 -0.00000000000E+00 -0.45593999997E+02  0.45594000000E+02  0.51100000000E-03 0. -1.
    9900012    2    1    2    0    0  0.52477639275E+01  0.26737864162E+02  0.30178004364E+02  0.50528876134E+02  0.30000049497E+02 0.  0.
         12    1    1    2    0    0 -0.52477639275E+01 -0.26737864162E+02 -0.30178004364E+02  0.40659123866E+02  0.00000000000E+00 0. -1.
         11    1    3    3    0    0  0.37157067873E+01  0.16483562957E+01 -0.42713076069E+01  0.58964077488E+01  0.51100000000E-03 0. -1.
        -11    1    3    3    0    0  0.63443070663E+01  0.15212312983E+02  0.14957884411E+02  0.22257650477E+02  0.51100000000E-03 0.  1.
         12    1    3    3    0    0 -0.48122499260E+01  0.98771948834E+01  0.19491427559E+02  0.22374817908E+02  0.00000000000E+00 0. -1.
</event>
<event>
 7    1  0.3041451E-011  0.5052886E+02  0.7816164E-02  0.1300439E+00
        -11   -1    0    0    0    0  0.00000000000E+00  0.00000000000E+00  0.45593999997E+02  0.45594000000E+02  0.51100000000E-03 0.  1.
         11   -1    0    0    0    0 -0.00000000000E+00 -0.00000000000E+00 -0.45593999997E+02  0.45594000000E+02  0.51100000000E-03 0. -1.
    9900012    2    1    2    0    0 -0.27046492208E+02  0.77894334026E+01  0.29342422552E+02  0.50528858658E+02  0.29999996375E+02 0.  0.
         12    1    1    2    0    0  0.27046492208E+02 -0.77894334026E+01 -0.29342422552E+02  0.40659141342E+02  0.00000000000E+00 0. -1.
         11    1    3    3    0    0 -0.14017152565E+02  0.70179474905E+01 -0.76283566218E+00  0.15694396182E+02  0.51100000000E-03 0. -1.
        -11    1    3    3    0    0 -0.68241085265E+01 -0.54531958385E+01  0.14969094713E+02  0.17331462685E+02  0.51100000000E-03 0.  1.
         12    1    3    3    0    0 -0.62052311161E+01  0.62246817506E+01  0.15136163502E+02  0.17502999790E+02  0.00000000000E+00 0. -1.
</event>
<event>
 7    1  0.3041451E-011  0.5052885E+02  0.7816164E-02  0.1300439E+00
        -11   -1    0    0    0    0  0.00000000000E+00  0.00000000000E+00  0.45593999997E+02  0.45594000000E+02  0.51100000000E-03 0.  1.
         11   -1    0    0    0    0 -0.00000000000E+00 -0.00000000000E+00 -0.45593999997E+02  0.45594000000E+02  0.51100000000E-03 0. -1.
    9900012    2    1    2    0    0 -0.20081979271E+02  0.53012659553E+01  0.34953923749E+02  0.50528854687E+02  0.29999984305E+02 0.  0.
         12    1    1    2    0    0  0.20081979271E+02 -0.53012659553E+01 -0.34953923749E+02  0.40659145313E+02  0.00000000000E+00 0. -1.
         11    1    3    3    0    0 -0.25625775120E+01 -0.10228354024E+02  0.55319232155E+01  0.11907485220E+02  0.51100000000E-03 0. -1.
        -11    1    3    3    0    0 -0.10268568776E+02  0.12626620046E+02  0.24420549325E+02  0.29346861299E+02  0.51100000000E-03 0.  1.
         12    1    3    3    0    0 -0.72508329828E+01  0.29029999339E+01  0.50014512084E+01  0.92745081676E+01  0.00000000000E+00 0. -1.
</event>
<event>
 7    1  0.3041451E-011  0.5052886E+02  0.7816164E-02  0.1300439E+00
        -11   -1    0    0    0    0  0.00000000000E+00  0.00000000000E+00  0.45593999997E+02  0.45594000000E+02  0.51100000000E-03 0. -1.
         11   -1    0    0    0    0 -0.00000000000E+00 -0.00000000000E+00 -0.45593999997E+02  0.45594000000E+02  0.51100000000E-03 0.  1.
    9900012    2    1    2    0    0 -0.37758129823E+02 -0.15072448347E+02  0.55697273861E+00  0.50528864673E+02  0.30000014661E+02 0.  0.
         12    1    1    2    0    0  0.37758129823E+02  0.15072448347E+02 -0.55697273861E+00  0.40659135327E+02  0.00000000000E+00 0. -1.
         11    1    3    3    0    0 -0.57664545478E+00 -0.92434288208E+01 -0.40575795580E+00  0.92702824189E+01  0.51100000000E-03 0. -1.
        -11    1    3    3    0    0 -0.14320803942E+02  0.51749555890E+01  0.38980050097E+01  0.15718143472E+02  0.51100000000E-03 0.  1.
         12    1    3    3    0    0 -0.22860680426E+02 -0.11003975115E+02 -0.29352743153E+01  0.25540438782E+02  0.00000000000E+00 0. -1.
</event>
<event>
 7    1  0.3041451E-011  0.5052887E+02  0.7816164E-02  0.1300439E+00
        -11   -1    0    0    0    0  0.00000000000E+00  0.00000000000E+00  0.45593999997E+02  0.45594000000E+02  0.51100000000E-03 0. -1.
         11   -1    0    0    0    0 -0.00000000000E+00 -0.00000000000E+00 -0.45593999997E+02  0.45594000000E+02  0.51100000000E-03 0.  1.
    9900012    2    1    2    0    0  0.18585899527E+02  0.34297214727E+02  0.11464301651E+02  0.50528870501E+02  0.30000032376E+02 0.  0.
         12    1    1    2    0    0 -0.18585899527E+02 -0.34297214727E+02 -0.11464301651E+02  0.40659129499E+02  0.00000000000E+00 0. -1.
         11    1    3    3    0    0 -0.72697560170E+01  0.62360569424E+01  0.26273088398E+01  0.99317929266E+01  0.51100000000E-03 0. -1.
        -11    1    3    3    0    0  0.89321198840E+01  0.10889360848E+02  0.85687890472E+01  0.16485905838E+02  0.51100000000E-03 0.  1.
         12    1    3    3    0    0  0.16923535660E+02  0.17171796937E+02  0.26820376411E+00  0.24111171737E+02  0.00000000000E+00 0. -1.
</event>
<event>
 7    1  0.3041451E-011  0.5052886E+02  0.7816164E-02  0.1300439E+00
        -11   -1    0    0    0    0  0.00000000000E+00  0.00000000000E+00  0.45593999997E+02  0.45594000000E+02  0.51100000000E-03 0. -1.
         11   -1    0    0    0    0 -0.00000000000E+00 -0.00000000000E+00 -0.45593999997E+02  0.45594000000E+02  0.51100000000E-03 0.  1.
    9900012    2    1    2    0    0  0.29841761344E+02  0.74082974841E+01 -0.26603609187E+02  0.50528860640E+02  0.30000002401E+02 0.  0.
         12    1    1    2    0    0 -0.29841761344E+02 -0.74082974841E+01  0.26603609187E+02  0.40659139360E+02  0.00000000000E+00 0. -1.
         11    1    3    3    0    0  0.42360007200E+01 -0.38591743807E+01 -0.22298377113E+01  0.61489109182E+01  0.51100000000E-03 0. -1.
        -11    1    3    3    0    0  0.19681664971E+02  0.14099659198E+02 -0.61075964588E+01  0.24969402482E+02  0.51100000000E-03 0.  1.
        -12    1    3    3    0    0  0.59240956527E+01 -0.28321873336E+01 -0.18266175017E+02  0.19410547239E+02  0.00000000000E+00 0.  1.
</event>
<event>
 7    1  0.3041451E-011  0.5052887E+02  0.7816164E-02  0.1300439E+00
        -11   -1    0    0    0    0  0.00000000000E+00  0.00000000000E+00  0.45593999997E+02  0.45594000000E+02  0.51100000000E-03 0. -1.
         11   -1    0    0    0    0 -0.00000000000E+00 -0.00000000000E+00 -0.45593999997E+02  0.45594000000E+02  0.51100000000E-03 0.  1.
    9900012    2    1    2    0    0  0.34415629139E+02 -0.52250529532E+01 -0.21010192798E+02  0.50528869306E+02  0.30000028741E+02 0.  0.
         12    1    1    2    0    0 -0.34415629139E+02  0.52250529532E+01  0.21010192798E+02  0.40659130694E+02  0.00000000000E+00 0. -1.
         11    1    3    3    0    0  0.48339248925E+01  0.10115510698E+02 -0.71271459304E+01  0.13284825777E+02  0.51100000000E-03 0. -1.
        -11    1    3    3    0    0  0.95872015549E+01 -0.36800440416E+01 -0.88508922418E+01  0.13557118113E+02  0.51100000000E-03 0.  1.
         12    1    3    3    0    0  0.19994502692E+02 -0.11660519610E+02 -0.50321546256E+01  0.23686925415E+02  0.00000000000E+00 0. -1.
</event>
<event>
 7    1  0.3041451E-011  0.5052884E+02  0.7816164E-02  0.1300439E+00
        -11   -1    0    0    0    0  0.00000000000E+00  0.00000000000E+00  0.45593999997E+02  0.45594000000E+02  0.51100000000E-03 0.  1.
         11   -1    0    0    0    0 -0.00000000000E+00 -0.00000000000E+00 -0.45593999997E+02  0.45594000000E+02  0.51100000000E-03 0. -1.
    9900012    2    1    2    0    0  0.29724726192E+01 -0.49224213247E+01  0.40250483419E+02  0.50528840630E+02  0.29999941580E+02 0.  0.
         12    1    1    2    0    0 -0.29724726192E+01  0.49224213247E+01 -0.40250483419E+02  0.40659159370E+02  0.00000000000E+00 0. -1.
         11    1    3    3    0    0 -0.16153131518E+01 -0.77741326715E+01  0.39587422702E+02  0.40375864224E+02  0.51100000000E-03 0. -1.
        -11    1    3    3    0    0  0.39221532803E+01  0.65286222928E+00 -0.35654978985E+01  0.53406264586E+01  0.51100000000E-03 0.  1.
        -12    1    3    3    0    0  0.66563249066E+00  0.21988491175E+01  0.42285586153E+01  0.48123499475E+01  0.00000000000E+00 0.  1.
</event>
<event>
 7    1  0.3041451E-011  0.5052886E+02  0.7816164E-02  0.1300439E+00
        -11   -1    0    0    0    0  0.00000000000E+00  0.00000000000E+00  0.45593999997E+02  0.45594000000E+02  0.51100000000E-03 0.  1.
         11   -1    0    0    0    0 -0.00000000000E+00 -0.00000000000E+00 -0.45593999997E+02  0.45594000000E+02  0.51100000000E-03 0. -1.
    9900012    2    1    2    0    0 -0.57007958394E+01 -0.28220316011E+02  0.28710288829E+02  0.50528855965E+02  0.29999988192E+02 0.  0.
         12    1    1    2    0    0  0.57007958394E+01  0.28220316011E+02 -0.28710288829E+02  0.40659144035E+02  0.00000000000E+00 0. -1.
         11    1    3    3    0    0  0.51445998852E+01 -0.21880798254E+02  0.11494878108E+02  0.25246157394E+02  0.51100000000E-03 0.  1.
        -11    1    3    3    0    0 -0.73247635933E+01  0.32959321120E+01  0.56330419682E+01  0.98105296626E+01  0.51100000000E-03 0. -1.
         12    1    3    3    0    0 -0.35206321314E+01 -0.96354498695E+01  0.11582368754E+02  0.15472168909E+02  0.00000000000E+00 0. -1.
</event>
<event>
 7    1  0.3041451E-011  0.5052886E+02  0.7816164E-02  0.1300439E+00
        -11   -1    0    0    0    0  0.00000000000E+00  0.00000000000E+00  0.45593999997E+02  0.45594000000E+02  0.51100000000E-03 0.  1.
         11   -1    0    0    0    0 -0.00000000000E+00 -0.00000000000E+00 -0.45593999997E+02  0.45594000000E+02  0.51100000000E-03 0. -1.
    9900012    2    1    2    0    0 -0.11175677124E+02  0.36778303456E+02  0.13252405852E+02  0.50528860497E+02  0.30000001966E+02 0.  0.
         12    1    1    2    0    0  0.11175677124E+02 -0.36778303456E+02 -0.13252405852E+02  0.40659139503E+02  0.00000000000E+00 0. -1.
         11    1    3    3    0    0 -0.18378334488E+02  0.14960262922E+02  0.40825371083E+01  0.24046616285E+02  0.51100000000E-03 0. -1.
        -11    1    3    3    0    0  0.15688767149E+01  0.98300313273E+01  0.87122192669E+01  0.13228516729E+02  0.51100000000E-03 0.  1.
         12    1    3    3    0    0  0.56337806494E+01  0.11988009206E+02  0.45764947714E+00  0.13253727483E+02  0.00000000000E+00 0. -1.
</event>
<event>
 7    1  0.3041451E-011  0.5052885E+02  0.7816164E-02  0.1300439E+00
        -11   -1    0    0    0    0  0.00000000000E+00  0.00000000000E+00  0.45593999997E+02  0.45594000000E+02  0.51100000000E-03 0.  1.
         11   -1    0    0    0    0 -0.00000000000E+00 -0.00000000000E+00 -0.45593999997E+02  0.45594000000E+02  0.51100000000E-03 0. -1.
    9900012    2    1    2    0    0  0.12495966275E+02 -0.37634360574E+02  0.89817784251E+01  0.50528848353E+02  0.29999965054E+02 0.  0.
         12    1    1    2    0    0 -0.12495966275E+02  0.37634360574E+02 -0.89817784251E+01  0.40659151647E+02  0.00000000000E+00 0. -1.
         11    1    3    3    0    0  0.63581910138E+01 -0.38209615628E+02  0.31530646000E+01  0.38863133379E+02  0.51100000000E-03 0. -1.
        -11    1    3    3    0    0 -0.19596557431E+01  0.35539642378E+00  0.13919143352E+01  0.24298113152E+01  0.51100000000E-03 0.  1.
         12    1    3    3    0    0  0.80974310042E+01  0.21985862980E+00  0.44367994899E+01  0.92359036590E+01  0.00000000000E+00 0. -1.
</event>
<event>
 7    1  0.3041451E-011  0.5052885E+02  0.7816164E-02  0.1300439E+00
        -11   -1    0    0    0    0  0.00000000000E+00  0.00000000000E+00  0.45593999997E+02  0.45594000000E+02  0.51100000000E-03 0.  1.
         11   -1    0    0    0    0 -0.00000000000E+00 -0.00000000000E+00 -0.45593999997E+02  0.45594000000E+02  0.51100000000E-03 0. -1.
    9900012    2    1    2    0    0 -0.80489921914E+01 -0.28781600891E+02  0.27568094818E+02  0.50528847561E+02  0.29999962647E+02 0.  0.
         12    1    1    2    0    0  0.80489921914E+01  0.28781600891E+02 -0.27568094818E+02  0.40659152439E+02  0.00000000000E+00 0. -1.
         11    1    3    3    0    0  0.27455089887E+01  0.49212766010E+01  0.37400632992E+01  0.67634944174E+01  0.51100000000E-03 0. -1.
        -11    1    3    3    0    0 -0.28974640727E+01 -0.94685620905E+01  0.12301622015E+02  0.15791734248E+02  0.51100000000E-03 0.  1.
         12    1    3    3    0    0 -0.78970371074E+01 -0.24234315401E+02  0.11526409504E+02  0.27973618895E+02  0.00000000000E+00 0. -1.
</event>
<event>
 7    1  0.3041451E-011  0.5052883E+02  0.7816164E-02  0.1300439E+00
        -11   -1    0    0    0    0  0.00000000000E+00  0.00000000000E+00  0.45593999997E+02  0.45594000000E+02  0.51100000000E-03 0.  1.
         11   -1    0    0    0    0 -0.00000000000E+00 -0.00000000000E+00 -0.45593999997E+02  0.45594000000E+02  0.51100000000E-03 0. -1.
    9900012    2    1    2    0    0  0.34244672175E+02  0.21382505138E+02  0.48227737977E+01  0.50528828274E+02  0.29999904020E+02 0.  0.
         12    1    1    2    0    0 -0.34244672175E+02 -0.21382505138E+02 -0.48227737977E+01  0.40659171726E+02  0.00000000000E+00 0. -1.
         11    1    3    3    0    0 -0.31815403767E+01  0.58479043783E+01  0.94323197463E+00  0.67238286419E+01  0.51100000000E-03 0. -1.
        -11    1    3    3    0    0  0.35849639354E+02  0.13391713787E+02  0.78107731509E+01  0.39058197827E+02  0.51100000000E-03 0.  1.
        -12    1    3    3    0    0  0.15765731978E+01  0.21428869727E+01 -0.39312313278E+01  0.47468018052E+01  0.00000000000E+00 0.  1.
</event>
<event>
 7    1  0.3041451E-011  0.5052883E+02  0.7816164E-02  0.1300439E+00
        -11   -1    0    0    0    0  0.00000000000E+00  0.00000000000E+00  0.45593999997E+02  0.45594000000E+02  0.51100000000E-03 0.  1.
         11   -1    0    0    0    0 -0.00000000000E+00 -0.00000000000E+00 -0.45593999997E+02  0.45594000000E+02  0.51100000000E-03 0. -1.
    9900012    2    1    2    0    0  0.50541607622E+01 -0.25366263451E+02  0.31371578039E+02  0.50528834107E+02  0.29999921750E+02 0.  0.
         12    1    1    2    0    0 -0.50541607622E+01  0.25366263451E+02 -0.31371578039E+02  0.40659165893E+02  0.00000000000E+00 0. -1.
         11    1    3    3    0    0  0.15714532310E+01 -0.16448581025E+01  0.17627144802E+02  0.17773329951E+02  0.51100000000E-03 0. -1.
        -11    1    3    3    0    0  0.93922326352E+01 -0.21389744868E+02  0.11274845713E+02  0.25939494319E+02  0.51100000000E-03 0.  1.
         12    1    3    3    0    0 -0.59095251040E+01 -0.23316604804E+01  0.24695875241E+01  0.68160098364E+01  0.00000000000E+00 0. -1.
</event>
<event>
 7    1  0.3041451E-011  0.5052887E+02  0.7816164E-02  0.1300439E+00
        -11   -1    0    0    0    0  0.00000000000E+00  0.00000000000E+00  0.45593999997E+02  0.45594000000E+02  0.51100000000E-03 0. -1.
         11   -1    0    0    0    0 -0.00000000000E+00 -0.00000000000E+00 -0.45593999997E+02  0.45594000000E+02  0.51100000000E-03 0.  1.
    9900012    2    1    2    0    0 -0.32836216501E+02 -0.19436051616E+02 -0.14042351854E+02  0.50528869880E+02  0.30000030487E+02 0.  0.
         12    1    1    2    0    0  0.32836216501E+02  0.19436051616E+02  0.14042351854E+02  0.40659130120E+02  0.00000000000E+00 0. -1.
         11    1    3    3    0    0 -0.29718530743E+02 -0.90565503955E+01 -0.23571246864E+01  0.31157153458E+02  0.51100000000E-03 0. -1.
        -11    1    3    3    0    0  0.21416110156E+00 -0.14639612608E+01 -0.94892397503E+01  0.96038908184E+01  0.51100000000E-03 0.  1.
         12    1    3    3    0    0 -0.33318468598E+01 -0.89155399599E+01 -0.21959874176E+01  0.97678256030E+01  0.00000000000E+00 0. -1.
</event>
<event>
 7    1  0.3041451E-011  0.5052886E+02  0.7816164E-02  0.1300439E+00
        -11   -1    0    0    0    0  0.00000000000E+00  0.00000000000E+00  0.45593999997E+02  0.45594000000E+02  0.51100000000E-03 0.  1.
         11   -1    0    0    0    0 -0.00000000000E+00 -0.00000000000E+00 -0.45593999997E+02  0.45594000000E+02  0.51100000000E-03 0. -1.
    9900012    2    1    2    0    0 -0.31850980601E+02 -0.77197630833E+01  0.24064197880E+02  0.50528864164E+02  0.30000013113E+02 0.  0.
         12    1    1    2    0    0  0.31850980601E+02  0.77197630833E+01 -0.24064197880E+02  0.40659135836E+02  0.00000000000E+00 0. -1.
         11    1    3    3    0    0 -0.70353829340E+01 -0.50469568415E+01 -0.52625865492E+01  0.10132285223E+02  0.51100000000E-03 0. -1.
        -11    1    3    3    0    0 -0.14867420920E+02  0.29956036093E+01  0.10805119556E+02  0.18621612569E+02  0.51100000000E-03 0.  1.
         12    1    3    3    0    0 -0.99481767469E+01 -0.56684098512E+01  0.18521664874E+02  0.21774966372E+02  0.00000000000E+00 0. -1.
</event>
<event>
 7    1  0.3041451E-011  0.5052888E+02  0.7816164E-02  0.1300439E+00
        -11   -1    0    0    0    0  0.00000000000E+00  0.00000000000E+00  0.45593999997E+02  0.45594000000E+02  0.51100000000E-03 0.  1.
         11   -1    0    0    0    0 -0.00000000000E+00 -0.00000000000E+00 -0.45593999997E+02  0.45594000000E+02  0.51100000000E-03 0. -1.
    9900012    2    1    2    0    0 -0.16084743824E+01 -0.15216835675E+00  0.40627005998E+02  0.50528880956E+02  0.30000064154E+02 0.  0.
         12    1    1    2    0    0  0.16084743824E+01  0.15216835675E+00 -0.40627005998E+02  0.40659119044E+02  0.00000000000E+00 0. -1.
         11    1    3    3    0    0 -0.13103691824E+02  0.29272005126E+01  0.21234430760E+02  0.25123222170E+02  0.51100000000E-03 0. -1.
        -11    1    3    3    0    0  0.98010967471E+01 -0.66349907846E+01  0.11104892622E+02  0.16229702417E+02  0.51100000000E-03 0.  1.
        -12    1    3    3    0    0  0.16941206940E+01  0.35556219152E+01  0.82876826166E+01  0.91759563689E+01  0.00000000000E+00 0.  1.
</event>
<event>
 7    1  0.3041451E-011  0.5052887E+02  0.7816164E-02  0.1300439E+00
        -11   -1    0    0    0    0  0.00000000000E+00  0.00000000000E+00  0.45593999997E+02  0.45594000000E+02  0.51100000000E-03 0.  1.
         11   -1    0    0    0    0 -0.00000000000E+00 -0.00000000000E+00 -0.45593999997E+02  0.45594000000E+02  0.51100000000E-03 0. -1.
    9900012    2    1    2    0    0  0.17074053730E+01 -0.31447545452E+02  0.25715782740E+02  0.50528870275E+02  0.30000031689E+02 0.  0.
         12    1    1    2    0    0 -0.17074053730E+01  0.31447545452E+02 -0.25715782740E+02  0.40659129725E+02  0.00000000000E+00 0. -1.
         11    1    3    3    0    0  0.95396973185E+01 -0.11618504209E+01  0.34076406943E+01  0.10196457066E+02  0.51100000000E-03 0. -1.
        -11    1    3    3    0    0 -0.55974647845E+01 -0.11354334631E+02  0.15675266104E+02  0.20148610241E+02  0.51100000000E-03 0.  1.
         12    1    3    3    0    0 -0.22348271610E+01 -0.18931360400E+02  0.66328759413E+01  0.20183802969E+02  0.00000000000E+00 0. -1.
</event>
<event>
 7    1  0.3041451E-011  0.5052886E+02  0.7816164E-02  0.1300439E+00
        -11   -1    0    0    0    0  0.00000000000E+00  0.00000000000E+00  0.45593999997E+02  0.45594000000E+02  0.51100000000E-03 0. -1.
         11   -1    0    0    0    0 -0.00000000000E+00 -0.00000000000E+00 -0.45593999997E+02  0.45594000000E+02  0.51100000000E-03 0.  1.
    9900012    2    1    2    0    0  0.25025157428E+02  0.10835853024E+02 -0.30157773342E+02  0.50528861937E+02  0.30000006344E+02 0.  0.
         12    1    1    2    0    0 -0.25025157428E+02 -0.10835853024E+02  0.30157773342E+02  0.40659138063E+02  0.00000000000E+00 0. -1.
         11    1    3    3    0    0 -0.34031600221E+01 -0.14995282024E+01  0.62076189649E+00  0.37703353378E+01  0.51100000000E-03 0. -1.
        -11    1    3    3    0    0  0.16304640529E+02  0.17168222632E+01 -0.24463375658E+02  0.29449032757E+02  0.51100000000E-03 0.  1.
        -12    1    3    3    0    0  0.12123676921E+02  0.10618558963E+02 -0.63151595804E+01  0.17309493842E+02  0.00000000000E+00 0.  1.
</event>
<event>
 7    1  0.3041451E-011  0.5052886E+02  0.7816164E-02  0.1300439E+00
        -11   -1    0    0    0    0  0.00000000000E+00  0.00000000000E+00  0.45593999997E+02  0.45594000000E+02  0.51100000000E-03 0. -1.
         11   -1    0    0    0    0 -0.00000000000E+00 -0.00000000000E+00 -0.45593999997E+02  0.45594000000E+02  0.51100000000E-03 0.  1.
    9900012    2    1    2    0    0 -0.25672465292E+01  0.36398000945E+02 -0.17937684197E+02  0.50528859061E+02  0.29999997601E+02 0.  0.
         12    1    1    2    0    0  0.25672465292E+01 -0.36398000945E+02  0.17937684197E+02  0.40659140939E+02  0.00000000000E+00 0. -1.
         11    1    3    3    0    0  0.36419060461E+01  0.17295470817E+02 -0.43229243105E+00  0.17680035843E+02  0.51100000000E-03 0. -1.
        -11    1    3    3    0    0 -0.61475842248E+01  0.40529845621E+00 -0.11781209089E+02  0.13294884223E+02  0.51100000000E-03 0.  1.
        -12    1    3    3    0    0 -0.61568350516E-01  0.18697231672E+02 -0.57241826767E+01  0.19553938994E+02  0.00000000000E+00 0.  1.
</event>
<event>
 7    1  0.3041451E-011  0.5052886E+02  0.7816164E-02  0.1300439E+00
        -11   -1    0    0    0    0  0.00000000000E+00  0.00000000000E+00  0.45593999997E+02  0.45594000000E+02  0.51100000000E-03 0.  1.
         11   -1    0    0    0    0 -0.00000000000E+00 -0.00000000000E+00 -0.45593999997E+02  0.45594000000E+02  0.51100000000E-03 0. -1.
    9900012    2    1    2    0    0 -0.19990993829E+02  0.32580966565E+02  0.13856637695E+02  0.50528860501E+02  0.30000001979E+02 0.  0.
         12    1    1    2    0    0  0.19990993829E+02 -0.32580966565E+02 -0.13856637695E+02  0.40659139499E+02  0.00000000000E+00 0. -1.
         11    1    3    3    0    0 -0.13630883639E+02  0.25099486819E+02  0.67566797832E+01  0.29350263190E+02  0.51100000000E-03 0.  1.
        -11    1    3    3    0    0 -0.59284371758E+01 -0.25720271322E+01 -0.28177237093E+01  0.70499119199E+01  0.51100000000E-03 0. -1.
        -12    1    3    3    0    0 -0.43167301350E+00  0.10053506879E+02  0.99176816211E+01  0.14128685391E+02  0.00000000000E+00 0.  1.
</event>
<event>
 7    1  0.3041451E-011  0.5052887E+02  0.7816164E-02  0.1300439E+00
        -11   -1    0    0    0    0  0.00000000000E+00  0.00000000000E+00  0.45593999997E+02  0.45594000000E+02  0.51100000000E-03 0.  1.
         11   -1    0    0    0    0 -0.00000000000E+00 -0.00000000000E+00 -0.45593999997E+02  0.45594000000E+02  0.51100000000E-03 0. -1.
    9900012    2    1    2    0    0 -0.26376282344E+02  0.15335081345E+02  0.26875492575E+02  0.50528867062E+02  0.30000021922E+02 0.  0.
         12    1    1    2    0    0  0.26376282344E+02 -0.15335081345E+02 -0.26875492575E+02  0.40659132938E+02  0.00000000000E+00 0. -1.
         11    1    3    3    0    0 -0.10243952996E+02 -0.26242878505E+00  0.28874365640E+01  0.10646348295E+02  0.51100000000E-03 0. -1.
        -11    1    3    3    0    0 -0.91246534776E+01  0.20745067420E+02  0.20343562643E+02  0.30454517968E+02  0.51100000000E-03 0.  1.
        -12    1    3    3    0    0 -0.70076758700E+01 -0.51475572907E+01  0.36444933671E+01  0.94280007989E+01  0.00000000000E+00 0.  1.
</event>
<event>
 7    1  0.3041451E-011  0.5052886E+02  0.7816164E-02  0.1300439E+00
        -11   -1    0    0    0    0  0.00000000000E+00  0.00000000000E+00  0.45593999997E+02  0.45594000000E+02  0.51100000000E-03 0. -1.
         11   -1    0    0    0    0 -0.00000000000E+00 -0.00000000000E+00 -0.45593999997E+02  0.45594000000E+02  0.51100000000E-03 0.  1.
    9900012    2    1    2    0    0 -0.32169791530E+02  0.41592724905E+01 -0.24514698961E+02  0.50528862037E+02  0.30000006647E+02 0.  0.
         12    1    1    2    0    0  0.32169791530E+02 -0.41592724905E+01  0.24514698961E+02  0.40659137963E+02  0.00000000000E+00 0. -1.
         11    1    3    3    0    0 -0.16579792129E+01 -0.45143297206E+01 -0.12955459102E+01  0.49806131513E+01  0.51100000000E-03 0. -1.
        -11    1    3    3    0    0 -0.15112343268E+02  0.15892775301E+02 -0.15592360992E+02  0.26908826570E+02  0.51100000000E-03 0.  1.
        -12    1    3    3    0    0 -0.15399469050E+02 -0.72191730903E+01 -0.76267920592E+01  0.18639422315E+02  0.00000000000E+00 0.  1.
</event>
<event>
 7    1  0.3041451E-011  0.5052886E+02  0.7816164E-02  0.1300439E+00
        -11   -1    0    0    0    0  0.00000000000E+00  0.00000000000E+00  0.45593999997E+02  0.45594000000E+02  0.51100000000E-03 0.  1.
         11   -1    0    0    0    0 -0.00000000000E+00 -0.00000000000E+00 -0.45593999997E+02  0.45594000000E+02  0.51100000000E-03 0. -1.
    9900012    2    1    2    0    0  0.17652065609E+02  0.31408558794E+02  0.18843375682E+02  0.50528858435E+02  0.29999995698E+02 0.  0.
         12    1    1    2    0    0 -0.17652065609E+02 -0.31408558794E+02 -0.18843375682E+02  0.40659141565E+02  0.00000000000E+00 0. -1.
         11    1    3    3    0    0  0.93525690550E+01  0.71516740732E+01 -0.19897228696E+01  0.11940518721E+02  0.51100000000E-03 0. -1.
        -11    1    3    3    0    0  0.85226805583E+01  0.27683240663E+02  0.19432342558E+02  0.34879991901E+02  0.51100000000E-03 0.  1.
        -12    1    3    3    0    0 -0.22318400458E+00 -0.34263559419E+01  0.14007559929E+01  0.37083478117E+01  0.00000000000E+00 0.  1.
</event>
<event>
 7    1  0.3041451E-011  0.5052886E+02  0.7816164E-02  0.1300439E+00
        -11   -1    0    0    0    0  0.00000000000E+00  0.00000000000E+00  0.45593999997E+02  0.45594000000E+02  0.51100000000E-03 0.  1.
         11   -1    0    0    0    0 -0.00000000000E+00 -0.00000000000E+00 -0.45593999997E+02  0.45594000000E+02  0.51100000000E-03 0. -1.
    9900012    2    1    2    0    0 -0.36373560260E+02  0.35428637739E+01  0.17820711665E+02  0.50528861618E+02  0.30000005374E+02 0.  0.
         12    1    1    2    0    0  0.36373560260E+02 -0.35428637739E+01 -0.17820711665E+02  0.40659138382E+02  0.00000000000E+00 0. -1.
         11    1    3    3    0    0  0.32994842351E-03  0.37989020874E+01  0.96644734791E+01  0.10384300895E+02  0.51100000000E-03 0.  1.
        -11    1    3    3    0    0 -0.32975120906E+02 -0.17720677051E+00  0.11928140221E+02  0.35066658386E+02  0.51100000000E-03 0. -1.
        -12    1    3    3    0    0 -0.33987693026E+01 -0.78831543012E-01 -0.37719020348E+01  0.50779023371E+01  0.00000000000E+00 0.  1.
</event>
<event>
 7    1  0.3041451E-011  0.5052887E+02  0.7816164E-02  0.1300439E+00
        -11   -1    0    0    0    0  0.00000000000E+00  0.00000000000E+00  0.45593999997E+02  0.45594000000E+02  0.51100000000E-03 0. -1.
         11   -1    0    0    0    0 -0.00000000000E+00 -0.00000000000E+00 -0.45593999997E+02  0.45594000000E+02  0.51100000000E-03 0.  1.
    9900012    2    1    2    0    0  0.77131590825E+01  0.14823020527E+02 -0.37066837417E+02  0.50528865766E+02  0.30000017981E+02 0.  0.
         12    1    1    2    0    0 -0.77131590825E+01 -0.14823020527E+02  0.37066837417E+02  0.40659134234E+02  0.00000000000E+00 0. -1.
         11    1    3    3    0    0  0.12251774528E+02  0.59794850908E+01 -0.22303913437E+01  0.13814299362E+02  0.51100000000E-03 0. -1.
        -11    1    3    3    0    0 -0.55068584259E+01  0.45906650548E+01 -0.23443036039E+02  0.24514804391E+02  0.51100000000E-03 0.  1.
         12    1    3    3    0    0  0.96824298020E+00  0.42528703819E+01 -0.11393410034E+02  0.12199762013E+02  0.00000000000E+00 0. -1.
</event>
<event>
 7    1  0.3041451E-011  0.5052886E+02  0.7816164E-02  0.1300439E+00
        -11   -1    0    0    0    0  0.00000000000E+00  0.00000000000E+00  0.45593999997E+02  0.45594000000E+02  0.51100000000E-03 0. -1.
         11   -1    0    0    0    0 -0.00000000000E+00 -0.00000000000E+00 -0.45593999997E+02  0.45594000000E+02  0.51100000000E-03 0.  1.
    9900012    2    1    2    0    0  0.27288822013E+02  0.28897668945E+02  0.85680108939E+01  0.50528857264E+02  0.29999992141E+02 0.  0.
         12    1    1    2    0    0 -0.27288822013E+02 -0.28897668945E+02 -0.85680108939E+01  0.40659142736E+02  0.00000000000E+00 0. -1.
         11    1    3    3    0    0 -0.42068152915E+01  0.33869256762E+01  0.22795761045E+01  0.58621692154E+01  0.51100000000E-03 0. -1.
        -11    1    3    3    0    0  0.17611758764E+02  0.14294114331E+02 -0.54191978314E+01  0.23320880272E+02  0.51100000000E-03 0.  1.
        -12    1    3    3    0    0  0.13883878541E+02  0.11216628938E+02  0.11707632621E+02  0.21345807777E+02  0.00000000000E+00 0.  1.
</event>
<event>
 7    1  0.3041451E-011  0.5052887E+02  0.7816164E-02  0.1300439E+00
        -11   -1    0    0    0    0  0.00000000000E+00  0.00000000000E+00  0.45593999997E+02  0.45594000000E+02  0.51100000000E-03 0.  1.
         11   -1    0    0    0    0 -0.00000000000E+00 -0.00000000000E+00 -0.45593999997E+02  0.45594000000E+02  0.51100000000E-03 0. -1.
    9900012    2    1    2    0    0  0.36438730172E+02  0.52380355252E+01  0.17261146495E+02  0.50528865097E+02  0.30000015948E+02 0.  0.
         12    1    1    2    0    0 -0.36438730172E+02 -0.52380355252E+01 -0.17261146495E+02  0.40659134903E+02  0.00000000000E+00 0. -1.
         11    1    3    3    0    0  0.11437156814E+02  0.39712921132E+01  0.37098335529E-01  0.12107067918E+02  0.51100000000E-03 0. -1.
        -11    1    3    3    0    0  0.39849352579E+00 -0.75571348699E+01  0.71466581043E+01  0.10408833117E+02  0.51100000000E-03 0.  1.
        -12    1    3    3    0    0  0.24603079833E+02  0.88238782819E+01  0.10077390056E+02  0.28012964062E+02  0.00000000000E+00 0.  1.
</event>
<event>
 7    1  0.3041451E-011  0.5052885E+02  0.7816164E-02  0.1300439E+00
        -11   -1    0    0    0    0  0.00000000000E+00  0.00000000000E+00  0.45593999997E+02  0.45594000000E+02  0.51100000000E-03 0. -1.
         11   -1    0    0    0    0 -0.00000000000E+00 -0.00000000000E+00 -0.45593999997E+02  0.45594000000E+02  0.51100000000E-03 0.  1.
    9900012    2    1    2    0    0 -0.32899696899E+02 -0.19936011662E+02 -0.13165545990E+02  0.50528853204E+02  0.29999979798E+02 0.  0.
         12    1    1    2    0    0  0.32899696899E+02  0.19936011662E+02  0.13165545990E+02  0.40659146796E+02  0.00000000000E+00 0. -1.
         11    1    3    3    0    0  0.67846088040E+00  0.66679134156E+00  0.63139521827E+01  0.63852104340E+01  0.51100000000E-03 0. -1.
        -11    1    3    3    0    0 -0.30997855950E+02 -0.18198983209E+02 -0.16611523602E+02  0.39598141118E+02  0.51100000000E-03 0.  1.
         12    1    3    3    0    0 -0.25803018292E+01 -0.24038197942E+01 -0.28679745698E+01  0.45455016517E+01  0.00000000000E+00 0. -1.
</event>
<event>
 7    1  0.3041451E-011  0.5052886E+02  0.7816164E-02  0.1300439E+00
        -11   -1    0    0    0    0  0.00000000000E+00  0.00000000000E+00  0.45593999997E+02  0.45594000000E+02  0.51100000000E-03 0. -1.
         11   -1    0    0    0    0 -0.00000000000E+00 -0.00000000000E+00 -0.45593999997E+02  0.45594000000E+02  0.51100000000E-03 0.  1.
    9900012    2    1    2    0    0 -0.26907785985E+02 -0.28779917162E+02 -0.10042559531E+02  0.50528861047E+02  0.30000003640E+02 0.  0.
         12    1    1    2    0    0  0.26907785985E+02  0.28779917162E+02  0.10042559531E+02  0.40659138953E+02  0.00000000000E+00 0. -1.
         11    1    3    3    0    0 -0.93081602806E+00  0.18398177782E+00  0.58197759643E+01  0.58966143089E+01  0.51100000000E-03 0. -1.
        -11    1    3    3    0    0 -0.25058779009E+02 -0.18382150438E+02 -0.12402513978E+02  0.33461443683E+02  0.51100000000E-03 0.  1.
         12    1    3    3    0    0 -0.91819094803E+00 -0.10581748502E+02 -0.34598215173E+01  0.11170803056E+02  0.00000000000E+00 0. -1.
</event>
<event>
 7    1  0.3041451E-011  0.5052887E+02  0.7816164E-02  0.1300439E+00
        -11   -1    0    0    0    0  0.00000000000E+00  0.00000000000E+00  0.45593999997E+02  0.45594000000E+02  0.51100000000E-03 0. -1.
         11   -1    0    0    0    0 -0.00000000000E+00 -0.00000000000E+00 -0.45593999997E+02  0.45594000000E+02  0.51100000000E-03 0.  1.
    9900012    2    1    2    0    0  0.39775849775E+02 -0.16097506789E+01 -0.82737935396E+01  0.50528865945E+02  0.30000018526E+02 0.  0.
         12    1    1    2    0    0 -0.39775849775E+02  0.16097506789E+01  0.82737935396E+01  0.40659134055E+02  0.00000000000E+00 0. -1.
         11    1    3    3    0    0  0.17682160024E+02  0.85114598669E+01 -0.53647894039E+00  0.19631391752E+02  0.51100000000E-03 0. -1.
        -11    1    3    3    0    0  0.89159646690E+01 -0.85305995179E+01 -0.11741623815E+02  0.17033240566E+02  0.51100000000E-03 0.  1.
        -12    1    3    3    0    0  0.13177725082E+02 -0.15906110279E+01  0.40043092158E+01  0.13864233627E+02  0.00000000000E+00 0.  1.
</event>
<event>
 7    1  0.3041451E-011  0.5052897E+02  0.7816164E-02  0.1300438E+00
        -11   -1    0    0    0    0  0.00000000000E+00  0.00000000000E+00  0.45593999997E+02  0.45594000000E+02  0.51100000000E-03 0.  1.
         11   -1    0    0    0    0 -0.00000000000E+00 -0.00000000000E+00 -0.45593999997E+02  0.45594000000E+02  0.51100000000E-03 0. -1.
    9900012    2    1    2    0    0 -0.10257175359E+02  0.32347980455E+02  0.22395428677E+02  0.50528970111E+02  0.30000335148E+02 0.  0.
         12    1    1    2    0    0  0.10257175359E+02 -0.32347980455E+02 -0.22395428677E+02  0.40659029889E+02  0.00000000000E+00 0. -1.
         11    1    3    3    0    0 -0.10617184503E+02  0.27987525771E+02  0.23191726420E+02  0.37866639410E+02  0.51100000000E-03 0. -1.
        -11    1    3    3    0    0  0.23108975083E+01  0.21973035966E+01 -0.59452944853E+01  0.67464744250E+01  0.51100000000E-03 0.  1.
        -12    1    3    3    0    0 -0.19508883641E+01  0.21631510872E+01  0.51489967421E+01  0.59158562766E+01  0.00000000000E+00 0.  1.
</event>
<event>
 7    1  0.3041451E-011  0.5052887E+02  0.7816164E-02  0.1300439E+00
        -11   -1    0    0    0    0  0.00000000000E+00  0.00000000000E+00  0.45593999997E+02  0.45594000000E+02  0.51100000000E-03 0. -1.
         11   -1    0    0    0    0 -0.00000000000E+00 -0.00000000000E+00 -0.45593999997E+02  0.45594000000E+02  0.51100000000E-03 0.  1.
    9900012    2    1    2    0    0 -0.21741359972E+02 -0.33743628918E+02 -0.64688424376E+01  0.50528866359E+02  0.30000019784E+02 0.  0.
         12    1    1    2    0    0  0.21741359972E+02  0.33743628918E+02  0.64688424376E+01  0.40659133641E+02  0.00000000000E+00 0. -1.
         11    1    3    3    0    0  0.34263830313E+01 -0.12802292852E+02 -0.63474704320E+01  0.14694529053E+02  0.51100000000E-03 0. -1.
        -11    1    3    3    0    0 -0.23005695416E+02 -0.23208717407E+02 -0.46851953287E+00  0.32682198458E+02  0.51100000000E-03 0.  1.
        -12    1    3    3    0    0 -0.21620475874E+01  0.22673813402E+01  0.34714752723E+00  0.31521388481E+01  0.00000000000E+00 0.  1.
</event>
<event>
 7    1  0.3041451E-011  0.5052887E+02  0.7816164E-02  0.1300439E+00
        -11   -1    0    0    0    0  0.00000000000E+00  0.00000000000E+00  0.45593999997E+02  0.45594000000E+02  0.51100000000E-03 0.  1.
         11   -1    0    0    0    0 -0.00000000000E+00 -0.00000000000E+00 -0.45593999997E+02  0.45594000000E+02  0.51100000000E-03 0. -1.
    9900012    2    1    2    0    0  0.21272107372E+01  0.33837314151E+02  0.22442733355E+02  0.50528866525E+02  0.30000020289E+02 0.  0.
         12    1    1    2    0    0 -0.21272107372E+01 -0.33837314151E+02 -0.22442733355E+02  0.40659133475E+02  0.00000000000E+00 0. -1.
         11    1    3    3    0    0  0.30668331152E+01  0.88337196586E+01 -0.27546324318E+01  0.97482341200E+01  0.51100000000E-03 0. -1.
        -11    1    3    3    0    0  0.30472037134E+01 -0.45858572988E+00  0.10859823205E+02  0.11288556668E+02  0.51100000000E-03 0.  1.
        -12    1    3    3    0    0 -0.39868260914E+01  0.25462180223E+02  0.14337542582E+02  0.29492075737E+02  0.00000000000E+00 0.  1.
</event>
<event>
 7    1  0.3041451E-011  0.5052886E+02  0.7816164E-02  0.1300439E+00
        -11   -1    0    0    0    0  0.00000000000E+00  0.00000000000E+00  0.45593999997E+02  0.45594000000E+02  0.51100000000E-03 0. -1.
         11   -1    0    0    0    0 -0.00000000000E+00 -0.00000000000E+00 -0.45593999997E+02  0.45594000000E+02  0.51100000000E-03 0.  1.
    9900012    2    1    2    0    0 -0.19832578257E+02 -0.33504258777E+02 -0.11717463521E+02  0.50528862431E+02  0.30000007845E+02 0.  0.
         12    1    1    2    0    0  0.19832578257E+02  0.33504258777E+02  0.11717463521E+02  0.40659137569E+02  0.00000000000E+00 0. -1.
         11    1    3    3    0    0 -0.10309889071E+02 -0.27622327119E+02 -0.60496877695E+01  0.30097931665E+02  0.51100000000E-03 0. -1.
        -11    1    3    3    0    0 -0.13160665318E+02 -0.14323337316E+01 -0.62771985710E+01  0.14651208609E+02  0.51100000000E-03 0.  1.
         12    1    3    3    0    0  0.36379761323E+01 -0.44495979256E+01  0.60942281940E+00  0.57797221570E+01  0.00000000000E+00 0. -1.
</event>
<event>
 7    1  0.3041451E-011  0.5052886E+02  0.7816164E-02  0.1300439E+00
        -11   -1    0    0    0    0  0.00000000000E+00  0.00000000000E+00  0.45593999997E+02  0.45594000000E+02  0.51100000000E-03 0.  1.
         11   -1    0    0    0    0 -0.00000000000E+00 -0.00000000000E+00 -0.45593999997E+02  0.45594000000E+02  0.51100000000E-03 0. -1.
    9900012    2    1    2    0    0 -0.33804975658E+02  0.33379663553E+01  0.22343839674E+02  0.50528861175E+02  0.30000004027E+02 0.  0.
         12    1    1    2    0    0  0.33804975658E+02 -0.33379663553E+01 -0.22343839674E+02  0.40659138825E+02  0.00000000000E+00 0. -1.
         11    1    3    3    0    0  0.10783972562E+01  0.42123759473E+01  0.11372516502E+02  0.12175433611E+02  0.51100000000E-03 0. -1.
        -11    1    3    3    0    0 -0.25876551333E+02 -0.30440600778E+01  0.12608527748E+02  0.28945417304E+02  0.51100000000E-03 0.  1.
         12    1    3    3    0    0 -0.90068215810E+01  0.21696504858E+01 -0.16372045770E+01  0.94080102599E+01  0.00000000000E+00 0. -1.
</event>
<event>
 7    1  0.3041451E-011  0.5052885E+02  0.7816164E-02  0.1300439E+00
        -11   -1    0    0    0    0  0.00000000000E+00  0.00000000000E+00  0.45593999997E+02  0.45594000000E+02  0.51100000000E-03 0.  1.
         11   -1    0    0    0    0 -0.00000000000E+00 -0.00000000000E+00 -0.45593999997E+02  0.45594000000E+02  0.51100000000E-03 0. -1.
    9900012    2    1    2    0    0  0.10352569843E+02  0.15090257506E+02  0.36308058691E+02  0.50528847280E+02  0.29999961794E+02 0.  0.
         12    1    1    2    0    0 -0.10352569843E+02 -0.15090257506E+02 -0.36308058691E+02  0.40659152720E+02  0.00000000000E+00 0. -1.
         11    1    3    3    0    0 -0.64968725279E+01  0.71680534675E+01  0.15043930270E+01  0.97904822045E+01  0.51100000000E-03 0. -1.
        -11    1    3    3    0    0  0.97889970645E+01  0.83677597591E+01  0.28452552003E+02  0.31231259704E+02  0.51100000000E-03 0.  1.
         12    1    3    3    0    0  0.70604453068E+01 -0.44555572035E+00  0.63511136606E+01  0.95071053723E+01  0.00000000000E+00 0. -1.
</event>
<event>
 7    1  0.3041451E-011  0.5052887E+02  0.7816164E-02  0.1300439E+00
        -11   -1    0    0    0    0  0.00000000000E+00  0.00000000000E+00  0.45593999997E+02  0.45594000000E+02  0.51100000000E-03 0.  1.
         11   -1    0    0    0    0 -0.00000000000E+00 -0.00000000000E+00 -0.45593999997E+02  0.45594000000E+02  0.51100000000E-03 0. -1.
    9900012    2    1    2    0    0  0.32100523567E+02 -0.11548948951E+02  0.22121103795E+02  0.50528867345E+02  0.30000022781E+02 0.  0.
         12    1    1    2    0    0 -0.32100523567E+02  0.11548948951E+02 -0.22121103795E+02  0.40659132655E+02  0.00000000000E+00 0. -1.
         11    1    3    3    0    0  0.11738161908E+02 -0.68387966749E+01 -0.18060309457E+01  0.13704573433E+02  0.51100000000E-03 0. -1.
        -11    1    3    3    0    0  0.20781603560E+02 -0.26424142992E+01  0.26316655944E+02  0.33636643414E+02  0.51100000000E-03 0.  1.
        -12    1    3    3    0    0 -0.41924190063E+00 -0.20677379771E+01 -0.23895212034E+01  0.31876504976E+01  0.00000000000E+00 0.  1.
</event>
<event>
 7    1  0.3041451E-011  0.5052887E+02  0.7816164E-02  0.1300439E+00
        -11   -1    0    0    0    0  0.00000000000E+00  0.00000000000E+00  0.45593999997E+02  0.45594000000E+02  0.51100000000E-03 0.  1.
         11   -1    0    0    0    0 -0.00000000000E+00 -0.00000000000E+00 -0.45593999997E+02  0.45594000000E+02  0.51100000000E-03 0. -1.
    9900012    2    1    2    0    0 -0.10604655991E+02 -0.14172586225E+02  0.36603880758E+02  0.50528867993E+02  0.30000024753E+02 0.  0.
         12    1    1    2    0    0  0.10604655991E+02  0.14172586225E+02 -0.36603880758E+02  0.40659132007E+02  0.00000000000E+00 0. -1.
         11    1    3    3    0    0  0.55871510775E+01  0.17281347638E+01  0.14339546475E+02  0.15486293949E+02  0.51100000000E-03 0. -1.
        -11    1    3    3    0    0 -0.14544971456E+02 -0.65302578316E+01  0.19391140322E+02  0.25104118890E+02  0.51100000000E-03 0.  1.
         12    1    3    3    0    0 -0.16468356122E+01 -0.93704631571E+01  0.28731939618E+01  0.99384551543E+01  0.00000000000E+00 0. -1.
</event>
<event>
 7    1  0.3041451E-011  0.5052886E+02  0.7816164E-02  0.1300439E+00
        -11   -1    0    0    0    0  0.00000000000E+00  0.00000000000E+00  0.45593999997E+02  0.45594000000E+02  0.51100000000E-03 0. -1.
         11   -1    0    0    0    0 -0.00000000000E+00 -0.00000000000E+00 -0.45593999997E+02  0.45594000000E+02  0.51100000000E-03 0.  1.
    9900012    2    1    2    0    0  0.26315235820E+02  0.19705143631E+02 -0.23924492077E+02  0.50528860278E+02  0.30000001301E+02 0.  0.
         12    1    1    2    0    0 -0.26315235820E+02 -0.19705143631E+02  0.23924492077E+02  0.40659139722E+02  0.00000000000E+00 0. -1.
         11    1    3    3    0    0  0.23452016655E+01 -0.52339609571E+00 -0.20577815381E+01  0.31636022892E+01  0.51100000000E-03 0. -1.
        -11    1    3    3    0    0  0.46378877191E+01 -0.49710880196E+01 -0.12538119933E+02  0.14262754653E+02  0.51100000000E-03 0.  1.
        -12    1    3    3    0    0  0.19332146436E+02  0.25199627746E+02 -0.93285906063E+01  0.33102503335E+02  0.00000000000E+00 0.  1.
</event>
<event>
 7    1  0.3041451E-011  0.5052887E+02  0.7816164E-02  0.1300439E+00
        -11   -1    0    0    0    0  0.00000000000E+00  0.00000000000E+00  0.45593999997E+02  0.45594000000E+02  0.51100000000E-03 0.  1.
         11   -1    0    0    0    0 -0.00000000000E+00 -0.00000000000E+00 -0.45593999997E+02  0.45594000000E+02  0.51100000000E-03 0. -1.
    9900012    2    1    2    0    0 -0.23530673760E+02  0.16652621792E+02  0.28673368630E+02  0.50528874472E+02  0.30000044444E+02 0.  0.
         12    1    1    2    0    0  0.23530673760E+02 -0.16652621792E+02 -0.28673368630E+02  0.40659125528E+02  0.00000000000E+00 0. -1.
         11    1    3    3    0    0  0.30953411287E+01 -0.32326896329E+01  0.16706421719E+01  0.47772863106E+01  0.51100000000E-03 0. -1.
        -11    1    3    3    0    0 -0.22546084304E+02  0.77288323609E+01  0.14830586520E+02  0.28071463515E+02  0.51100000000E-03 0.  1.
         12    1    3    3    0    0 -0.40799305846E+01  0.12156479064E+02  0.12172139938E+02  0.17680124645E+02  0.00000000000E+00 0. -1.
</event>
<event>
 7    1  0.3041451E-011  0.5052885E+02  0.7816164E-02  0.1300439E+00
        -11   -1    0    0    0    0  0.00000000000E+00  0.00000000000E+00  0.45593999997E+02  0.45594000000E+02  0.51100000000E-03 0.  1.
         11   -1    0    0    0    0 -0.00000000000E+00 -0.00000000000E+00 -0.45593999997E+02  0.45594000000E+02  0.51100000000E-03 0. -1.
    9900012    2    1    2    0    0  0.25899513121E+02 -0.29469587177E+02  0.10673589150E+02  0.50528845389E+02  0.29999956046E+02 0.  0.
         12    1    1    2    0    0 -0.25899513121E+02  0.29469587177E+02 -0.10673589150E+02  0.40659154611E+02  0.00000000000E+00 0. -1.
         11    1    3    3    0    0  0.62479577005E+01 -0.21316397517E+02  0.80423542002E+01  0.23624251097E+02  0.51100000000E-03 0. -1.
        -11    1    3    3    0    0  0.11268437518E+02  0.19334850147E+01 -0.41207959648E+01  0.12153065787E+02  0.51100000000E-03 0.  1.
        -12    1    3    3    0    0  0.83831179033E+01 -0.10086674674E+02  0.67520309151E+01  0.14751528505E+02  0.00000000000E+00 0.  1.
</event>
<event>
 7    1  0.3041451E-011  0.5052886E+02  0.7816164E-02  0.1300439E+00
        -11   -1    0    0    0    0  0.00000000000E+00  0.00000000000E+00  0.45593999997E+02  0.45594000000E+02  0.51100000000E-03 0.  1.
         11   -1    0    0    0    0 -0.00000000000E+00 -0.00000000000E+00 -0.45593999997E+02  0.45594000000E+02  0.51100000000E-03 0. -1.
    9900012    2    1    2    0    0 -0.19022070596E+02 -0.17084916093E+02  0.31613798841E+02  0.50528858287E+02  0.29999995250E+02 0.  0.
         12    1    1    2    0    0  0.19022070596E+02  0.17084916093E+02 -0.31613798841E+02  0.40659141713E+02  0.00000000000E+00 0. -1.
         11    1    3    3    0    0 -0.40187443799E+01  0.18061788385E+01 -0.45210327850E+01  0.63128698776E+01  0.51100000000E-03 0. -1.
        -11    1    3    3    0    0 -0.92538069381E+01 -0.14385625593E+02  0.18865681242E+02  0.25465527592E+02  0.51100000000E-03 0.  1.
         12    1    3    3    0    0 -0.57495192777E+01 -0.45054693381E+01  0.17269150384E+02  0.18750460818E+02  0.00000000000E+00 0. -1.
</event>
<event>
 7    1  0.3041451E-011  0.5052883E+02  0.7816164E-02  0.1300439E+00
        -11   -1    0    0    0    0  0.00000000000E+00  0.00000000000E+00  0.45593999997E+02  0.45594000000E+02  0.51100000000E-03 0.  1.
         11   -1    0    0    0    0 -0.00000000000E+00 -0.00000000000E+00 -0.45593999997E+02  0.45594000000E+02  0.51100000000E-03 0. -1.
    9900012    2    1    2    0    0  0.20507952446E+02 -0.14821058651E+02 -0.31826528659E+02  0.50528833512E+02  0.29999919942E+02 0.  0.
         12    1    1    2    0    0 -0.20507952446E+02  0.14821058651E+02  0.31826528659E+02  0.40659166488E+02  0.00000000000E+00 0. -1.
         11    1    3    3    0    0  0.54330779333E+01 -0.13790676428E+02 -0.13348250262E+02  0.19946851318E+02  0.51100000000E-03 0. -1.
        -11    1    3    3    0    0  0.13231341078E+02  0.74618229383E+01 -0.87202873120E+01  0.17515438885E+02  0.51100000000E-03 0.  1.
        -12    1    3    3    0    0  0.18435334348E+01 -0.84922051611E+01 -0.97579910846E+01  0.13066543308E+02  0.00000000000E+00 0.  1.
</event>
<event>
 7    1  0.3041451E-011  0.5052886E+02  0.7816164E-02  0.1300439E+00
        -11   -1    0    0    0    0  0.00000000000E+00  0.00000000000E+00  0.45593999997E+02  0.45594000000E+02  0.51100000000E-03 0.  1.
         11   -1    0    0    0    0 -0.00000000000E+00 -0.00000000000E+00 -0.45593999997E+02  0.45594000000E+02  0.51100000000E-03 0. -1.
    9900012    2    1    2    0    0 -0.36366707486E+02 -0.41014289168E+00  0.18178549015E+02  0.50528864804E+02  0.30000015059E+02 0.  0.
         12    1    1    2    0    0  0.36366707486E+02  0.41014289168E+00 -0.18178549015E+02  0.40659135196E+02  0.00000000000E+00 0. -1.
         11    1    3    3    0    0 -0.68929628941E+01 -0.73477384068E+01  0.15524814252E+02  0.18507351377E+02  0.51100000000E-03 0. -1.
        -11    1    3    3    0    0 -0.27916153154E+02  0.84134589304E+01  0.40864405734E+01  0.29441414621E+02  0.51100000000E-03 0.  1.
        -12    1    3    3    0    0 -0.15575914381E+01 -0.14758634153E+01 -0.14327058110E+01  0.25800988062E+01  0.00000000000E+00 0.  1.
</event>
<event>
 7    1  0.3041451E-011  0.5052886E+02  0.7816164E-02  0.1300439E+00
        -11   -1    0    0    0    0  0.00000000000E+00  0.00000000000E+00  0.45593999997E+02  0.45594000000E+02  0.51100000000E-03 0.  1.
         11   -1    0    0    0    0 -0.00000000000E+00 -0.00000000000E+00 -0.45593999997E+02  0.45594000000E+02  0.51100000000E-03 0. -1.
    9900012    2    1    2    0    0 -0.25136826762E+02 -0.31427896973E+02  0.57959533638E+01  0.50528857815E+02  0.29999993815E+02 0.  0.
         12    1    1    2    0    0  0.25136826762E+02  0.31427896973E+02 -0.57959533638E+01  0.40659142185E+02  0.00000000000E+00 0. -1.
         11    1    3    3    0    0 -0.13481578444E+02 -0.24803496402E+02  0.68027118701E+01  0.29038651487E+02  0.51100000000E-03 0. -1.
        -11    1    3    3    0    0 -0.26638989412E+01  0.23368760277E+01  0.60164459588E+01  0.69824758771E+01  0.51100000000E-03 0.  1.
         12    1    3    3    0    0 -0.89913493762E+01 -0.89612765992E+01 -0.70232044651E+01  0.14507730451E+02  0.00000000000E+00 0. -1.
</event>
<event>
 7    1  0.3041451E-011  0.5052886E+02  0.7816164E-02  0.1300439E+00
        -11   -1    0    0    0    0  0.00000000000E+00  0.00000000000E+00  0.45593999997E+02  0.45594000000E+02  0.51100000000E-03 0.  1.
         11   -1    0    0    0    0 -0.00000000000E+00 -0.00000000000E+00 -0.45593999997E+02  0.45594000000E+02  0.51100000000E-03 0. -1.
    9900012    2    1    2    0    0 -0.21459233878E+02  0.18610984171E+02  0.29091204933E+02  0.50528860131E+02  0.30000000856E+02 0.  0.
         12    1    1    2    0    0  0.21459233878E+02 -0.18610984171E+02 -0.29091204933E+02  0.40659139869E+02  0.00000000000E+00 0. -1.
         11    1    3    3    0    0  0.18401573610E+01  0.46302060008E+01  0.20311555198E+02  0.20913733803E+02  0.51100000000E-03 0. -1.
        -11    1    3    3    0    0 -0.12412874560E+02  0.77956992751E+01  0.62152343734E+00  0.14671014746E+02  0.51100000000E-03 0.  1.
        -12    1    3    3    0    0 -0.10886516679E+02  0.61850788948E+01  0.81581262968E+01  0.14944111583E+02  0.00000000000E+00 0.  1.
</event>
<event>
 7    1  0.3041451E-011  0.5052889E+02  0.7816164E-02  0.1300439E+00
        -11   -1    0    0    0    0  0.00000000000E+00  0.00000000000E+00  0.45593999997E+02  0.45594000000E+02  0.51100000000E-03 0.  1.
         11   -1    0    0    0    0 -0.00000000000E+00 -0.00000000000E+00 -0.45593999997E+02  0.45594000000E+02  0.51100000000E-03 0. -1.
    9900012    2    1    2    0    0  0.14562884818E+02  0.26536713964E+02  0.27145687545E+02  0.50528890879E+02  0.30000094315E+02 0.  0.
         12    1    1    2    0    0 -0.14562884818E+02 -0.26536713964E+02 -0.27145687545E+02  0.40659109121E+02  0.00000000000E+00 0. -1.
         11    1    3    3    0    0 -0.95129540470E+00 -0.32487891833E+01 -0.11377719361E+01  0.35712909913E+01  0.51100000000E-03 0.  1.
        -11    1    3    3    0    0  0.61614439261E+00  0.18392028671E+02  0.10917828275E+02  0.21397320558E+02  0.51100000000E-03 0. -1.
        -12    1    3    3    0    0  0.14898035830E+02  0.11393474477E+02  0.17365631205E+02  0.25560279330E+02  0.00000000000E+00 0.  1.
</event>
<event>
 7    1  0.3041451E-011  0.5052884E+02  0.7816164E-02  0.1300439E+00
        -11   -1    0    0    0    0  0.00000000000E+00  0.00000000000E+00  0.45593999997E+02  0.45594000000E+02  0.51100000000E-03 0.  1.
         11   -1    0    0    0    0 -0.00000000000E+00 -0.00000000000E+00 -0.45593999997E+02  0.45594000000E+02  0.51100000000E-03 0. -1.
    9900012    2    1    2    0    0  0.17849665857E+02  0.24268736343E+02 -0.27305401792E+02  0.50528842336E+02  0.29999946765E+02 0.  0.
         12    1    1    2    0    0 -0.17849665857E+02 -0.24268736343E+02  0.27305401792E+02  0.40659157664E+02  0.00000000000E+00 0. -1.
         11    1    3    3    0    0 -0.26910063592E+01  0.49920773406E+01 -0.72706275840E-01  0.56716521282E+01  0.51100000000E-03 0. -1.
        -11    1    3    3    0    0  0.10066193290E+02  0.70272165548E+01 -0.25927771611E+02  0.28687268271E+02  0.51100000000E-03 0.  1.
        -12    1    3    3    0    0  0.10474478926E+02  0.12249442448E+02 -0.13049239055E+01  0.16169921937E+02  0.00000000000E+00 0.  1.
</event>
<event>
 7    1  0.3041451E-011  0.5052886E+02  0.7816164E-02  0.1300439E+00
        -11   -1    0    0    0    0  0.00000000000E+00  0.00000000000E+00  0.45593999997E+02  0.45594000000E+02  0.51100000000E-03 0.  1.
         11   -1    0    0    0    0 -0.00000000000E+00 -0.00000000000E+00 -0.45593999997E+02  0.45594000000E+02  0.51100000000E-03 0. -1.
    9900012    2    1    2    0    0 -0.36701907008E+01  0.85151582868E+01  0.39587722615E+02  0.50528855859E+02  0.29999987870E+02 0.  0.
         12    1    1    2    0    0  0.36701907008E+01 -0.85151582868E+01 -0.39587722615E+02  0.40659144141E+02  0.00000000000E+00 0. -1.
         11    1    3    3    0    0 -0.60688225475E+01  0.15480660344E+01  0.19128999455E+02  0.20128232311E+02  0.51100000000E-03 0.  1.
        -11    1    3    3    0    0  0.82011696660E+01  0.48859035108E+01  0.55304577434E+00  0.95622746717E+01  0.51100000000E-03 0. -1.
         12    1    3    3    0    0 -0.58025378193E+01  0.20811887417E+01  0.19905677386E+02  0.20838348877E+02  0.00000000000E+00 0. -1.
</event>
<event>
 7    1  0.3041451E-011  0.5052885E+02  0.7816164E-02  0.1300439E+00
        -11   -1    0    0    0    0  0.00000000000E+00  0.00000000000E+00  0.45593999997E+02  0.45594000000E+02  0.51100000000E-03 0. -1.
         11   -1    0    0    0    0 -0.00000000000E+00 -0.00000000000E+00 -0.45593999997E+02  0.45594000000E+02  0.51100000000E-03 0.  1.
    9900012    2    1    2    0    0 -0.32784112301E+02 -0.21723712543E+02 -0.10317382877E+02  0.50528854713E+02  0.29999984387E+02 0.  0.
         12    1    1    2    0    0  0.32784112301E+02  0.21723712543E+02  0.10317382877E+02  0.40659145287E+02  0.00000000000E+00 0. -1.
         11    1    3    3    0    0  0.35367345730E+01  0.21860153853E+00 -0.60330461942E+01  0.69967081342E+01  0.51100000000E-03 0. -1.
        -11    1    3    3    0    0 -0.25372494693E+02 -0.17423928546E+02 -0.65624226937E+01  0.31470973369E+02  0.51100000000E-03 0.  1.
         12    1    3    3    0    0 -0.10948352181E+02 -0.45183855350E+01  0.22780860111E+01  0.12061173210E+02  0.00000000000E+00 0. -1.
</event>
<event>
 7    1  0.3041451E-011  0.5052886E+02  0.7816164E-02  0.1300439E+00
        -11   -1    0    0    0    0  0.00000000000E+00  0.00000000000E+00  0.45593999997E+02  0.45594000000E+02  0.51100000000E-03 0.  1.
         11   -1    0    0    0    0 -0.00000000000E+00 -0.00000000000E+00 -0.45593999997E+02  0.45594000000E+02  0.51100000000E-03 0. -1.
    9900012    2    1    2    0    0 -0.92214738872E+01 -0.13917810174E+02  0.37073233520E+02  0.50528860015E+02  0.30000000501E+02 0.  0.
         12    1    1    2    0    0  0.92214738872E+01  0.13917810174E+02 -0.37073233520E+02  0.40659139985E+02  0.00000000000E+00 0. -1.
         11    1    3    3    0    0 -0.17713172469E+01 -0.19279005758E+01 -0.15852711549E+01  0.30606290718E+01  0.51100000000E-03 0. -1.
        -11    1    3    3    0    0 -0.15038514452E+02 -0.13014305840E+02  0.28021611369E+02  0.34361894263E+02  0.51100000000E-03 0.  1.
        -12    1    3    3    0    0  0.75883578118E+01  0.10243962420E+01  0.10636893307E+02  0.13106336680E+02  0.00000000000E+00 0.  1.
</event>
<event>
 7    1  0.3041451E-011  0.5052887E+02  0.7816164E-02  0.1300439E+00
        -11   -1    0    0    0    0  0.00000000000E+00  0.00000000000E+00  0.45593999997E+02  0.45594000000E+02  0.51100000000E-03 0.  1.
         11   -1    0    0    0    0 -0.00000000000E+00 -0.00000000000E+00 -0.45593999997E+02  0.45594000000E+02  0.51100000000E-03 0. -1.
    9900012    2    1    2    0    0 -0.62388365172E+01  0.18511626478E+02  0.35658955029E+02  0.50528874706E+02  0.30000045156E+02 0.  0.
         12    1    1    2    0    0  0.62388365172E+01 -0.18511626478E+02 -0.35658955029E+02  0.40659125294E+02  0.00000000000E+00 0. -1.
         11    1    3    3    0    0  0.65898951030E+01  0.18310125480E+02  0.28346272971E+02  0.34383115103E+02  0.51100000000E-03 0. -1.
        -11    1    3    3    0    0 -0.57093054058E+01  0.32566248224E+01  0.25407550145E+01  0.70467871938E+01  0.51100000000E-03 0.  1.
         12    1    3    3    0    0 -0.71194262144E+01 -0.30551238239E+01  0.47719270429E+01  0.90989724093E+01  0.00000000000E+00 0. -1.
</event>
<event>
 7    1  0.3041451E-011  0.5052886E+02  0.7816164E-02  0.1300439E+00
        -11   -1    0    0    0    0  0.00000000000E+00  0.00000000000E+00  0.45593999997E+02  0.45594000000E+02  0.51100000000E-03 0.  1.
         11   -1    0    0    0    0 -0.00000000000E+00 -0.00000000000E+00 -0.45593999997E+02  0.45594000000E+02  0.51100000000E-03 0. -1.
    9900012    2    1    2    0    0 -0.24280673003E+02 -0.30439771802E+02  0.11706195765E+02  0.50528858246E+02  0.29999995126E+02 0.  0.
         12    1    1    2    0    0  0.24280673003E+02  0.30439771802E+02 -0.11706195765E+02  0.40659141754E+02  0.00000000000E+00 0. -1.
         11    1    3    3    0    0  0.51916864410E+01 -0.37557410975E+01  0.16590209831E+01  0.66190293983E+01  0.51100000000E-03 0. -1.
        -11    1    3    3    0    0 -0.25391737945E+02 -0.13122766432E+02  0.65982642606E+01  0.29334015173E+02  0.51100000000E-03 0.  1.
        -12    1    3    3    0    0 -0.40806214995E+01 -0.13561264272E+02  0.34489105217E+01  0.14575813675E+02  0.00000000000E+00 0.  1.
</event>
<event>
 7    1  0.3041451E-011  0.5052886E+02  0.7816164E-02  0.1300439E+00
        -11   -1    0    0    0    0  0.00000000000E+00  0.00000000000E+00  0.45593999997E+02  0.45594000000E+02  0.51100000000E-03 0.  1.
         11   -1    0    0    0    0 -0.00000000000E+00 -0.00000000000E+00 -0.45593999997E+02  0.45594000000E+02  0.51100000000E-03 0. -1.
    9900012    2    1    2    0    0  0.16472828746E+02  0.20311498504E+02  0.31132852095E+02  0.50528861569E+02  0.30000005227E+02 0.  0.
         12    1    1    2    0    0 -0.16472828746E+02 -0.20311498504E+02 -0.31132852095E+02  0.40659138431E+02  0.00000000000E+00 0. -1.
         11    1    3    3    0    0 -0.41573140397E+01  0.17420270691E+02  0.95295941223E+01  0.20286997199E+02  0.51100000000E-03 0. -1.
        -11    1    3    3    0    0  0.71401726107E+01 -0.19243788737E+00  0.92922101455E+01  0.11720250292E+02  0.51100000000E-03 0.  1.
         12    1    3    3    0    0  0.13489970175E+02  0.30836657001E+01  0.12311047827E+02  0.18521614078E+02  0.00000000000E+00 0. -1.
</event>
<event>
 7    1  0.3041451E-011  0.5052886E+02  0.7816164E-02  0.1300439E+00
        -11   -1    0    0    0    0  0.00000000000E+00  0.00000000000E+00  0.45593999997E+02  0.45594000000E+02  0.51100000000E-03 0.  1.
         11   -1    0    0    0    0 -0.00000000000E+00 -0.00000000000E+00 -0.45593999997E+02  0.45594000000E+02  0.51100000000E-03 0. -1.
    9900012    2    1    2    0    0 -0.34830856747E+02  0.56700839302E+01  0.20194726922E+02  0.50528862909E+02  0.30000009298E+02 0.  0.
         12    1    1    2    0    0  0.34830856747E+02 -0.56700839302E+01 -0.20194726922E+02  0.40659137091E+02  0.00000000000E+00 0. -1.
         11    1    3    3    0    0 -0.22164595973E+01  0.34123815467E+01  0.44305209276E+01  0.60155263209E+01  0.51100000000E-03 0. -1.
        -11    1    3    3    0    0 -0.13051454609E+02 -0.10144136658E+02  0.13306687298E+02  0.21220553788E+02  0.51100000000E-03 0.  1.
        -12    1    3    3    0    0 -0.19562942540E+02  0.12401839041E+02  0.24575186966E+01  0.23292782800E+02  0.00000000000E+00 0.  1.
</event>
<event>
 7    1  0.3041451E-011  0.5052886E+02  0.7816164E-02  0.1300439E+00
        -11   -1    0    0    0    0  0.00000000000E+00  0.00000000000E+00  0.45593999997E+02  0.45594000000E+02  0.51100000000E-03 0.  1.
         11   -1    0    0    0    0 -0.00000000000E+00 -0.00000000000E+00 -0.45593999997E+02  0.45594000000E+02  0.51100000000E-03 0. -1.
    9900012    2    1    2    0    0  0.11605335008E+02  0.21729200721E+01  0.38907070537E+02  0.50528861789E+02  0.30000005894E+02 0.  0.
         12    1    1    2    0    0 -0.11605335008E+02 -0.21729200721E+01 -0.38907070537E+02  0.40659138211E+02  0.00000000000E+00 0. -1.
         11    1    3    3    0    0 -0.53438925311E+01 -0.62735438327E+01  0.16950998794E+02  0.18848100700E+02  0.51100000000E-03 0. -1.
        -11    1    3    3    0    0  0.88036411246E+01  0.23631152975E+01  0.20711100523E+01  0.93476151006E+01  0.51100000000E-03 0.  1.
        -12    1    3    3    0    0  0.81455864147E+01  0.60833486073E+01  0.19884961691E+02  0.22333145989E+02  0.00000000000E+00 0.  1.
</event>
<event>
 7    1  0.3041451E-011  0.5052886E+02  0.7816164E-02  0.1300439E+00
        -11   -1    0    0    0    0  0.00000000000E+00  0.00000000000E+00  0.45593999997E+02  0.45594000000E+02  0.51100000000E-03 0. -1.
         11   -1    0    0    0    0 -0.00000000000E+00 -0.00000000000E+00 -0.45593999997E+02  0.45594000000E+02  0.51100000000E-03 0.  1.
    9900012    2    1    2    0    0  0.51412966954E+01 -0.39506888091E+02 -0.81202388086E+01  0.50528863061E+02  0.30000009760E+02 0.  0.
         12    1    1    2    0    0 -0.51412966954E+01  0.39506888091E+02  0.81202388086E+01  0.40659136939E+02  0.00000000000E+00 0. -1.
         11    1    3    3    0    0  0.33676727052E+01  0.30846121449E+01 -0.25868375008E+01  0.52485979128E+01  0.51100000000E-03 0. -1.
        -11    1    3    3    0    0 -0.18361928041E+01 -0.32199916445E+02  0.13900849876E+01  0.32282170924E+02  0.51100000000E-03 0.  1.
         12    1    3    3    0    0  0.36098167944E+01 -0.10391583791E+02 -0.69234862955E+01  0.12998094224E+02  0.00000000000E+00 0. -1.
</event>
<event>
 7    1  0.3041451E-011  0.5052886E+02  0.7816164E-02  0.1300439E+00
        -11   -1    0    0    0    0  0.00000000000E+00  0.00000000000E+00  0.45593999997E+02  0.45594000000E+02  0.51100000000E-03 0.  1.
         11   -1    0    0    0    0 -0.00000000000E+00 -0.00000000000E+00 -0.45593999997E+02  0.45594000000E+02  0.51100000000E-03 0. -1.
    9900012    2    1    2    0    0 -0.42570176843E+01  0.34096676037E+02  0.21736156221E+02  0.50528855843E+02  0.29999987820E+02 0.  0.
         12    1    1    2    0    0  0.42570176843E+01 -0.34096676037E+02 -0.21736156221E+02  0.40659144157E+02  0.00000000000E+00 0. -1.
         11    1    3    3    0    0 -0.54822777581E+01  0.41906951365E+01  0.14896559127E+02  0.16417209544E+02  0.51100000000E-03 0. -1.
        -11    1    3    3    0    0 -0.96460039309E+00  0.23975055513E+02 -0.10305455822E+01  0.24016572720E+02  0.51100000000E-03 0.  1.
        -12    1    3    3    0    0  0.21898604668E+01  0.59309253876E+01  0.78701426765E+01  0.10095073579E+02  0.00000000000E+00 0.  1.
</event>
<event>
 7    1  0.3041451E-011  0.5052886E+02  0.7816164E-02  0.1300439E+00
        -11   -1    0    0    0    0  0.00000000000E+00  0.00000000000E+00  0.45593999997E+02  0.45594000000E+02  0.51100000000E-03 0.  1.
         11   -1    0    0    0    0 -0.00000000000E+00 -0.00000000000E+00 -0.45593999997E+02  0.45594000000E+02  0.51100000000E-03 0. -1.
    9900012    2    1    2    0    0 -0.33840414059E+02  0.12710594920E+02  0.18612701905E+02  0.50528861801E+02  0.30000005930E+02 0.  0.
         12    1    1    2    0    0  0.33840414059E+02 -0.12710594920E+02 -0.18612701905E+02  0.40659138199E+02  0.00000000000E+00 0. -1.
         11    1    3    3    0    0 -0.29200752133E+02  0.16899810163E+02  0.23963696805E+02  0.41382922487E+02  0.51100000000E-03 0.  1.
        -11    1    3    3    0    0 -0.52564644076E+01 -0.34654148025E+01 -0.38838465504E+01  0.73975524405E+01  0.51100000000E-03 0. -1.
        -12    1    3    3    0    0  0.61680248195E+00 -0.72380044033E+00 -0.14671483502E+01  0.17483868739E+01  0.00000000000E+00 0.  1.
</event>
<event>
 7    1  0.3041451E-011  0.5052886E+02  0.7816164E-02  0.1300439E+00
        -11   -1    0    0    0    0  0.00000000000E+00  0.00000000000E+00  0.45593999997E+02  0.45594000000E+02  0.51100000000E-03 0.  1.
         11   -1    0    0    0    0 -0.00000000000E+00 -0.00000000000E+00 -0.45593999997E+02  0.45594000000E+02  0.51100000000E-03 0. -1.
    9900012    2    1    2    0    0  0.18959432581E+02 -0.28667996192E+02  0.21722143027E+02  0.50528860964E+02  0.30000003386E+02 0.  0.
         12    1    1    2    0    0 -0.18959432581E+02  0.28667996192E+02 -0.21722143027E+02  0.40659139036E+02  0.00000000000E+00 0. -1.
         11    1    3    3    0    0  0.13171304469E+01 -0.54670543549E+01 -0.61227132728E+01  0.83133106531E+01  0.51100000000E-03 0. -1.
        -11    1    3    3    0    0  0.13597779961E+02 -0.23180377019E+02  0.26977413114E+02  0.38079001000E+02  0.51100000000E-03 0.  1.
        -12    1    3    3    0    0  0.40445221733E+01 -0.20564818821E-01  0.86744318611E+00  0.41365493111E+01  0.00000000000E+00 0.  1.
</event>
<event>
 7    1  0.3041451E-011  0.5052894E+02  0.7816164E-02  0.1300438E+00
        -11   -1    0    0    0    0  0.00000000000E+00  0.00000000000E+00  0.45593999997E+02  0.45594000000E+02  0.51100000000E-03 0.  1.
         11   -1    0    0    0    0 -0.00000000000E+00 -0.00000000000E+00 -0.45593999997E+02  0.45594000000E+02  0.51100000000E-03 0. -1.
    9900012    2    1    2    0    0  0.30982532285E+02 -0.21925574975E+02  0.14577748939E+02  0.50528943089E+02  0.30000253011E+02 0.  0.
         12    1    1    2    0    0 -0.30982532285E+02  0.21925574975E+02 -0.14577748939E+02  0.40659056911E+02  0.00000000000E+00 0. -1.
         11    1    3    3    0    0  0.37394783994E+01 -0.27617688295E+01  0.12976654097E+02  0.13784216249E+02  0.51100000000E-03 0. -1.
        -11    1    3    3    0    0  0.24556707591E+02 -0.91487917401E+01  0.25659099045E+01  0.26330897667E+02  0.51100000000E-03 0.  1.
         12    1    3    3    0    0  0.26863462944E+01 -0.10015014405E+02 -0.96481506244E+00  0.10413829173E+02  0.00000000000E+00 0. -1.
</event>
<event>
 7    1  0.3041451E-011  0.5052886E+02  0.7816164E-02  0.1300439E+00
        -11   -1    0    0    0    0  0.00000000000E+00  0.00000000000E+00  0.45593999997E+02  0.45594000000E+02  0.51100000000E-03 0.  1.
         11   -1    0    0    0    0 -0.00000000000E+00 -0.00000000000E+00 -0.45593999997E+02  0.45594000000E+02  0.51100000000E-03 0. -1.
    9900012    2    1    2    0    0  0.17223947284E+02 -0.36815039732E+02 -0.10742044994E+01  0.50528862948E+02  0.30000009416E+02 0.  0.
         12    1    1    2    0    0 -0.17223947284E+02  0.36815039732E+02  0.10742044994E+01  0.40659137052E+02  0.00000000000E+00 0. -1.
         11    1    3    3    0    0 -0.27254855966E+01 -0.28527707921E+02 -0.73808713941E+00  0.28667109444E+02  0.51100000000E-03 0. -1.
        -11    1    3    3    0    0  0.16516687057E+02 -0.69437244424E+01  0.98972979335E+00  0.17944242135E+02  0.51100000000E-03 0.  1.
         12    1    3    3    0    0  0.34327458236E+01 -0.13436073685E+01 -0.13258471534E+01  0.39175113688E+01  0.00000000000E+00 0. -1.
</event>
<event>
 7    1  0.3041451E-011  0.5052886E+02  0.7816164E-02  0.1300439E+00
        -11   -1    0    0    0    0  0.00000000000E+00  0.00000000000E+00  0.45593999997E+02  0.45594000000E+02  0.51100000000E-03 0. -1.
         11   -1    0    0    0    0 -0.00000000000E+00 -0.00000000000E+00 -0.45593999997E+02  0.45594000000E+02  0.51100000000E-03 0.  1.
    9900012    2    1    2    0    0  0.14386657102E+02 -0.14891640664E+02 -0.34991839708E+02  0.50528859449E+02  0.29999998780E+02 0.  0.
         12    1    1    2    0    0 -0.14386657102E+02  0.14891640664E+02  0.34991839708E+02  0.40659140551E+02  0.00000000000E+00 0. -1.
         11    1    3    3    0    0  0.54668992693E+00 -0.13264680161E+02 -0.60712069340E+01  0.14598293172E+02  0.51100000000E-03 0. -1.
        -11    1    3    3    0    0  0.12987980825E+02 -0.40264235389E+01 -0.30171186599E+02  0.33093809594E+02  0.51100000000E-03 0.  1.
         12    1    3    3    0    0  0.85198635063E+00  0.23994630361E+01  0.12505538253E+01  0.28367566820E+01  0.00000000000E+00 0. -1.
</event>
<event>
 7    1  0.3041451E-011  0.5052886E+02  0.7816164E-02  0.1300439E+00
        -11   -1    0    0    0    0  0.00000000000E+00  0.00000000000E+00  0.45593999997E+02  0.45594000000E+02  0.51100000000E-03 0.  1.
         11   -1    0    0    0    0 -0.00000000000E+00 -0.00000000000E+00 -0.45593999997E+02  0.45594000000E+02  0.51100000000E-03 0. -1.
    9900012    2    1    2    0    0  0.24719116915E+02 -0.28749110467E+02 -0.14683995150E+02  0.50528858257E+02  0.29999995159E+02 0.  0.
         12    1    1    2    0    0 -0.24719116915E+02  0.28749110467E+02  0.14683995150E+02  0.40659141743E+02  0.00000000000E+00 0. -1.
         11    1    3    3    0    0  0.17588295156E+02 -0.30177526742E+02 -0.11480233898E+02  0.36767200293E+02  0.51100000000E-03 0. -1.
        -11    1    3    3    0    0  0.66115135948E+01 -0.84287356173E+00  0.28697504759E+01  0.72565843142E+01  0.51100000000E-03 0.  1.
         12    1    3    3    0    0  0.51930816497E+00  0.22712898372E+01 -0.60735117272E+01  0.65050736503E+01  0.00000000000E+00 0. -1.
</event>
<event>
 7    1  0.3041451E-011  0.5052885E+02  0.7816164E-02  0.1300439E+00
        -11   -1    0    0    0    0  0.00000000000E+00  0.00000000000E+00  0.45593999997E+02  0.45594000000E+02  0.51100000000E-03 0.  1.
         11   -1    0    0    0    0 -0.00000000000E+00 -0.00000000000E+00 -0.45593999997E+02  0.45594000000E+02  0.51100000000E-03 0. -1.
    9900012    2    1    2    0    0  0.20550592073E+02  0.67266030961E+01  0.34432434389E+02  0.50528848980E+02  0.29999966959E+02 0.  0.
         12    1    1    2    0    0 -0.20550592073E+02 -0.67266030961E+01 -0.34432434389E+02  0.40659151020E+02  0.00000000000E+00 0. -1.
         11    1    3    3    0    0  0.17947028871E+02 -0.35165064949E+01  0.32060068258E+02  0.36909479002E+02  0.51100000000E-03 0. -1.
        -11    1    3    3    0    0 -0.99282229660E+00 -0.11144191577E+01  0.38537666532E+00  0.15414738424E+01  0.51100000000E-03 0.  1.
         12    1    3    3    0    0  0.35963854980E+01  0.11357528749E+02  0.19869894656E+01  0.12077896136E+02  0.00000000000E+00 0. -1.
</event>
<event>
 7    1  0.3041451E-011  0.5052886E+02  0.7816164E-02  0.1300439E+00
        -11   -1    0    0    0    0  0.00000000000E+00  0.00000000000E+00  0.45593999997E+02  0.45594000000E+02  0.51100000000E-03 0.  1.
         11   -1    0    0    0    0 -0.00000000000E+00 -0.00000000000E+00 -0.45593999997E+02  0.45594000000E+02  0.51100000000E-03 0. -1.
    9900012    2    1    2    0    0  0.26490618183E+02 -0.10433441977E+02  0.29026815862E+02  0.50528860778E+02  0.30000002822E+02 0.  0.
         12    1    1    2    0    0 -0.26490618183E+02  0.10433441977E+02 -0.29026815862E+02  0.40659139222E+02  0.00000000000E+00 0. -1.
         11    1    3    3    0    0 -0.11507686181E+00 -0.46143002065E+01  0.51486373545E+01  0.69147289136E+01  0.51100000000E-03 0. -1.
        -11    1    3    3    0    0  0.25949831819E+02  0.42363748624E+01  0.18851808872E+02  0.32353227681E+02  0.51100000000E-03 0.  1.
        -12    1    3    3    0    0  0.65586322565E+00 -0.10055516632E+02  0.50263696356E+01  0.11260904183E+02  0.00000000000E+00 0.  1.
</event>
<event>
 7    1  0.3041451E-011  0.5052888E+02  0.7816164E-02  0.1300439E+00
        -11   -1    0    0    0    0  0.00000000000E+00  0.00000000000E+00  0.45593999997E+02  0.45594000000E+02  0.51100000000E-03 0.  1.
         11   -1    0    0    0    0 -0.00000000000E+00 -0.00000000000E+00 -0.45593999997E+02  0.45594000000E+02  0.51100000000E-03 0. -1.
    9900012    2    1    2    0    0  0.22583380414E+02  0.23848241527E+02  0.23966992646E+02  0.50528875177E+02  0.30000046588E+02 0.  0.
         12    1    1    2    0    0 -0.22583380414E+02 -0.23848241527E+02 -0.23966992646E+02  0.40659124823E+02  0.00000000000E+00 0. -1.
         11    1    3    3    0    0  0.23732509500E+02  0.12684182644E+02  0.41912889247E+01  0.27233938379E+02  0.51100000000E-03 0. -1.
        -11    1    3    3    0    0 -0.18970589773E+00  0.37757017305E+01  0.11754262097E+02  0.12347250284E+02  0.51100000000E-03 0.  1.
         12    1    3    3    0    0 -0.95942318806E+00  0.73883571525E+01  0.80214416251E+01  0.10947686514E+02  0.00000000000E+00 0. -1.
</event>
<event>
 7    1  0.3041451E-011  0.5052887E+02  0.7816164E-02  0.1300439E+00
        -11   -1    0    0    0    0  0.00000000000E+00  0.00000000000E+00  0.45593999997E+02  0.45594000000E+02  0.51100000000E-03 0.  1.
         11   -1    0    0    0    0 -0.00000000000E+00 -0.00000000000E+00 -0.45593999997E+02  0.45594000000E+02  0.51100000000E-03 0. -1.
    9900012    2    1    2    0    0 -0.31678979456E+02 -0.25416264546E+02 -0.19028376861E+01  0.50528867765E+02  0.30000024058E+02 0.  0.
         12    1    1    2    0    0  0.31678979456E+02  0.25416264546E+02  0.19028376861E+01  0.40659132235E+02  0.00000000000E+00 0. -1.
         11    1    3    3    0    0 -0.21440587770E+02 -0.16276479620E+02 -0.49908853322E+01  0.27377573475E+02  0.51100000000E-03 0. -1.
        -11    1    3    3    0    0  0.45883116763E+01 -0.60281799172E+01 -0.46690330843E+00  0.75900959225E+01  0.51100000000E-03 0.  1.
        -12    1    3    3    0    0 -0.14826703363E+02 -0.31116050088E+01  0.35549509546E+01  0.15561198367E+02  0.00000000000E+00 0.  1.
</event>
<event>
 7    1  0.3041451E-011  0.5052887E+02  0.7816164E-02  0.1300439E+00
        -11   -1    0    0    0    0  0.00000000000E+00  0.00000000000E+00  0.45593999997E+02  0.45594000000E+02  0.51100000000E-03 0. -1.
         11   -1    0    0    0    0 -0.00000000000E+00 -0.00000000000E+00 -0.45593999997E+02  0.45594000000E+02  0.51100000000E-03 0.  1.
    9900012    2    1    2    0    0 -0.13253690688E+02 -0.24753183171E+02 -0.29407220470E+02  0.50528868065E+02  0.30000024970E+02 0.  0.
         12    1    1    2    0    0  0.13253690688E+02  0.24753183171E+02  0.29407220470E+02  0.40659131935E+02  0.00000000000E+00 0. -1.
         11    1    3    3    0    0 -0.14149734104E+02 -0.74110284812E+01 -0.87202385256E+01  0.18198375712E+02  0.51100000000E-03 0. -1.
        -11    1    3    3    0    0  0.51391090068E+01 -0.78725350648E+01 -0.19796619362E+02  0.21915596915E+02  0.51100000000E-03 0.  1.
        -12    1    3    3    0    0 -0.42430655905E+01 -0.94696196248E+01 -0.89036258300E+00  0.10414895437E+02  0.00000000000E+00 0.  1.
</event>
<event>
 7    1  0.3041451E-011  0.5052890E+02  0.7816164E-02  0.1300439E+00
        -11   -1    0    0    0    0  0.00000000000E+00  0.00000000000E+00  0.45593999997E+02  0.45594000000E+02  0.51100000000E-03 0.  1.
         11   -1    0    0    0    0 -0.00000000000E+00 -0.00000000000E+00 -0.45593999997E+02  0.45594000000E+02  0.51100000000E-03 0. -1.
    9900012    2    1    2    0    0  0.27361571505E+02 -0.23235508333E+02  0.19094980388E+02  0.50528896238E+02  0.30000110604E+02 0.  0.
         12    1    1    2    0    0 -0.27361571505E+02  0.23235508333E+02 -0.19094980388E+02  0.40659103762E+02  0.00000000000E+00 0. -1.
         11    1    3    3    0    0 -0.35152612023E+01 -0.89361882027E+00  0.24542345093E+01  0.43793701835E+01  0.51100000000E-03 0.  1.
        -11    1    3    3    0    0  0.28724091182E+02 -0.12468202092E+02  0.67983267401E+01  0.32042888827E+02  0.51100000000E-03 0. -1.
         12    1    3    3    0    0  0.21527415255E+01 -0.98736874213E+01  0.98424191389E+01  0.14106637228E+02  0.00000000000E+00 0. -1.
</event>
<event>
 7    1  0.3041451E-011  0.5052888E+02  0.7816164E-02  0.1300439E+00
        -11   -1    0    0    0    0  0.00000000000E+00  0.00000000000E+00  0.45593999997E+02  0.45594000000E+02  0.51100000000E-03 0.  1.
         11   -1    0    0    0    0 -0.00000000000E+00 -0.00000000000E+00 -0.45593999997E+02  0.45594000000E+02  0.51100000000E-03 0. -1.
    9900012    2    1    2    0    0  0.46296867792E+01  0.19461452929E+02  0.35397479711E+02  0.50528883929E+02  0.30000073191E+02 0.  0.
         12    1    1    2    0    0 -0.46296867792E+01 -0.19461452929E+02 -0.35397479711E+02  0.40659116071E+02  0.00000000000E+00 0. -1.
         11    1    3    3    0    0  0.40590402684E+01  0.14768577598E+02  0.39457177781E+02  0.42325590024E+02  0.51100000000E-03 0.  1.
        -11    1    3    3    0    0  0.25626287318E+01  0.27687956696E+01 -0.39045840066E+01  0.54294633255E+01  0.51100000000E-03 0. -1.
        -12    1    3    3    0    0 -0.19919822210E+01  0.19240796610E+01 -0.15511406394E+00  0.27738305795E+01  0.00000000000E+00 0.  1.
</event>
<event>
 7    1  0.3041451E-011  0.5052886E+02  0.7816164E-02  0.1300439E+00
        -11   -1    0    0    0    0  0.00000000000E+00  0.00000000000E+00  0.45593999997E+02  0.45594000000E+02  0.51100000000E-03 0.  1.
         11   -1    0    0    0    0 -0.00000000000E+00 -0.00000000000E+00 -0.45593999997E+02  0.45594000000E+02  0.51100000000E-03 0. -1.
    9900012    2    1    2    0    0 -0.33169956180E+02 -0.14152009098E+02  0.18778712740E+02  0.50528863184E+02  0.30000010134E+02 0.  0.
         12    1    1    2    0    0  0.33169956180E+02  0.14152009098E+02 -0.18778712740E+02  0.40659136816E+02  0.00000000000E+00 0. -1.
         11    1    3    3    0    0 -0.13546524163E+02 -0.13399205616E+02  0.12083522911E+02  0.22562325994E+02  0.51100000000E-03 0.  1.
        -11    1    3    3    0    0 -0.45875682789E+01 -0.44936241195E+01 -0.53362908686E+01  0.83495174074E+01  0.51100000000E-03 0. -1.
         12    1    3    3    0    0 -0.15035863738E+02  0.37408206382E+01  0.12031480697E+02  0.19617019783E+02  0.00000000000E+00 0. -1.
</event>
<event>
 7    1  0.3041451E-011  0.5052893E+02  0.7816164E-02  0.1300439E+00
        -11   -1    0    0    0    0  0.00000000000E+00  0.00000000000E+00  0.45593999997E+02  0.45594000000E+02  0.51100000000E-03 0. -1.
         11   -1    0    0    0    0 -0.00000000000E+00 -0.00000000000E+00 -0.45593999997E+02  0.45594000000E+02  0.51100000000E-03 0.  1.
    9900012    2    1    2    0    0 -0.46021556782E+01 -0.11347245915E+02 -0.38771381180E+02  0.50528931819E+02  0.30000218756E+02 0.  0.
         12    1    1    2    0    0  0.46021556782E+01  0.11347245915E+02  0.38771381180E+02  0.40659068181E+02  0.00000000000E+00 0. -1.
         11    1    3    3    0    0  0.24568979615E+01 -0.12979726736E+02 -0.29870111901E+02  0.32660882398E+02  0.51100000000E-03 0. -1.
        -11    1    3    3    0    0  0.35337567048E+01  0.29511152332E+01 -0.13678292937E+01  0.48028611063E+01  0.51100000000E-03 0.  1.
         12    1    3    3    0    0 -0.10592810344E+02 -0.13186344122E+01 -0.75334399848E+01  0.13065188315E+02  0.00000000000E+00 0. -1.
</event>
<event>
 7    1  0.3041451E-011  0.5052887E+02  0.7816164E-02  0.1300439E+00
        -11   -1    0    0    0    0  0.00000000000E+00  0.00000000000E+00  0.45593999997E+02  0.45594000000E+02  0.51100000000E-03 0.  1.
         11   -1    0    0    0    0 -0.00000000000E+00 -0.00000000000E+00 -0.45593999997E+02  0.45594000000E+02  0.51100000000E-03 0. -1.
    9900012    2    1    2    0    0  0.12679015818E+02 -0.38144660798E+02  0.61149073362E+01  0.50528872104E+02  0.30000037248E+02 0.  0.
         12    1    1    2    0    0 -0.12679015818E+02  0.38144660798E+02 -0.61149073362E+01  0.40659127896E+02  0.00000000000E+00 0. -1.
         11    1    3    3    0    0  0.37622481124E+00  0.42629253948E+01  0.11615162343E+01  0.44343204951E+01  0.51100000000E-03 0. -1.
        -11    1    3    3    0    0  0.13482393513E+02 -0.32184131123E+02  0.70317828940E+01  0.35595494123E+02  0.51100000000E-03 0.  1.
        -12    1    3    3    0    0 -0.11796025060E+01 -0.10223455070E+02 -0.20783917921E+01  0.10499057486E+02  0.00000000000E+00 0.  1.
</event>
<event>
 7    1  0.3041451E-011  0.5052885E+02  0.7816164E-02  0.1300439E+00
        -11   -1    0    0    0    0  0.00000000000E+00  0.00000000000E+00  0.45593999997E+02  0.45594000000E+02  0.51100000000E-03 0.  1.
         11   -1    0    0    0    0 -0.00000000000E+00 -0.00000000000E+00 -0.45593999997E+02  0.45594000000E+02  0.51100000000E-03 0. -1.
    9900012    2    1    2    0    0  0.72740457578E+01  0.35934981537E+02  0.17576447923E+02  0.50528853903E+02  0.29999981923E+02 0.  0.
         12    1    1    2    0    0 -0.72740457578E+01 -0.35934981537E+02 -0.17576447923E+02  0.40659146097E+02  0.00000000000E+00 0. -1.
         11    1    3    3    0    0  0.69513588457E+01  0.92802187554E+01 -0.62132682271E+01  0.13154791989E+02  0.51100000000E-03 0. -1.
        -11    1    3    3    0    0 -0.41418406836E+01  0.21825356026E+02  0.19092322780E+02  0.29291940860E+02  0.51100000000E-03 0.  1.
        -12    1    3    3    0    0  0.44645275958E+01  0.48294067556E+01  0.46973933697E+01  0.80821210542E+01  0.00000000000E+00 0.  1.
</event>
<event>
 7    1  0.3041451E-011  0.5052886E+02  0.7816164E-02  0.1300439E+00
        -11   -1    0    0    0    0  0.00000000000E+00  0.00000000000E+00  0.45593999997E+02  0.45594000000E+02  0.51100000000E-03 0. -1.
         11   -1    0    0    0    0 -0.00000000000E+00 -0.00000000000E+00 -0.45593999997E+02  0.45594000000E+02  0.51100000000E-03 0.  1.
    9900012    2    1    2    0    0 -0.13613304830E+02  0.38276792629E+02 -0.16525099882E+01  0.50528859434E+02  0.29999998735E+02 0.  0.
         12    1    1    2    0    0  0.13613304830E+02 -0.38276792629E+02  0.16525099882E+01  0.40659140566E+02  0.00000000000E+00 0. -1.
         11    1    3    3    0    0 -0.60553943046E+01  0.31523378968E+02  0.21569508302E+00  0.32100432183E+02  0.51100000000E-03 0. -1.
        -11    1    3    3    0    0  0.27877113605E+01 -0.29765339219E+01  0.16457509090E+00  0.40814426420E+01  0.51100000000E-03 0.  1.
        -12    1    3    3    0    0 -0.10345621886E+02  0.97299475828E+01 -0.20327801621E+01  0.14346984608E+02  0.00000000000E+00 0.  1.
</event>
<event>
 7    1  0.3041451E-011  0.5052886E+02  0.7816164E-02  0.1300439E+00
        -11   -1    0    0    0    0  0.00000000000E+00  0.00000000000E+00  0.45593999997E+02  0.45594000000E+02  0.51100000000E-03 0. -1.
         11   -1    0    0    0    0 -0.00000000000E+00 -0.00000000000E+00 -0.45593999997E+02  0.45594000000E+02  0.51100000000E-03 0.  1.
    9900012    2    1    2    0    0  0.18017815372E+00 -0.40524708711E+02  0.32986036025E+01  0.50528864913E+02  0.30000015391E+02 0.  0.
         12    1    1    2    0    0 -0.18017815372E+00  0.40524708711E+02 -0.32986036025E+01  0.40659135087E+02  0.00000000000E+00 0. -1.
         11    1    3    3    0    0 -0.33863431988E+01 -0.25204212436E+02  0.78226591629E+01  0.26606646565E+02  0.51100000000E-03 0. -1.
        -11    1    3    3    0    0  0.44575565378E+01 -0.16399682764E+01 -0.84222980365E+01  0.96692507834E+01  0.51100000000E-03 0.  1.
        -12    1    3    3    0    0 -0.89103518527E+00 -0.13680527998E+02  0.38982424761E+01  0.14252967565E+02  0.00000000000E+00 0.  1.
</event>
<event>
 7    1  0.3041451E-011  0.5052886E+02  0.7816164E-02  0.1300439E+00
        -11   -1    0    0    0    0  0.00000000000E+00  0.00000000000E+00  0.45593999997E+02  0.45594000000E+02  0.51100000000E-03 0. -1.
         11   -1    0    0    0    0 -0.00000000000E+00 -0.00000000000E+00 -0.45593999997E+02  0.45594000000E+02  0.51100000000E-03 0.  1.
    9900012    2    1    2    0    0  0.22813191007E+02  0.22891483069E+02 -0.24671932161E+02  0.50528856900E+02  0.29999991035E+02 0.  0.
         12    1    1    2    0    0 -0.22813191007E+02 -0.22891483069E+02  0.24671932161E+02  0.40659143100E+02  0.00000000000E+00 0. -1.
         11    1    3    3    0    0  0.45177999926E+01 -0.42147174628E+01 -0.13508678927E+02  0.14854587395E+02  0.51100000000E-03 0. -1.
        -11    1    3    3    0    0  0.79595029136E+01  0.19357222531E+02 -0.61148753951E+01  0.21804757556E+02  0.51100000000E-03 0.  1.
         12    1    3    3    0    0  0.10335888101E+02  0.77489780017E+01 -0.50483778388E+01  0.13869511949E+02  0.00000000000E+00 0. -1.
</event>
<event>
 7    1  0.3041451E-011  0.5052886E+02  0.7816164E-02  0.1300439E+00
        -11   -1    0    0    0    0  0.00000000000E+00  0.00000000000E+00  0.45593999997E+02  0.45594000000E+02  0.51100000000E-03 0. -1.
         11   -1    0    0    0    0 -0.00000000000E+00 -0.00000000000E+00 -0.45593999997E+02  0.45594000000E+02  0.51100000000E-03 0.  1.
    9900012    2    1    2    0    0 -0.13765905740E+02  0.10808377064E+02 -0.36699382734E+02  0.50528857503E+02  0.29999992865E+02 0.  0.
         12    1    1    2    0    0  0.13765905740E+02 -0.10808377064E+02  0.36699382734E+02  0.40659142497E+02  0.00000000000E+00 0. -1.
         11    1    3    3    0    0  0.41836618087E+01  0.15274602099E+01 -0.93092867252E+01  0.10319834321E+02  0.51100000000E-03 0. -1.
        -11    1    3    3    0    0 -0.59641985683E+01 -0.51393487588E+01 -0.11480376774E+01  0.79562906556E+01  0.51100000000E-03 0.  1.
        -12    1    3    3    0    0 -0.11985368980E+02  0.14420265613E+02 -0.26242058331E+02  0.32252732526E+02  0.00000000000E+00 0.  1.
</event>
<event>
 7    1  0.3041451E-011  0.5052883E+02  0.7816164E-02  0.1300439E+00
        -11   -1    0    0    0    0  0.00000000000E+00  0.00000000000E+00  0.45593999997E+02  0.45594000000E+02  0.51100000000E-03 0.  1.
         11   -1    0    0    0    0 -0.00000000000E+00 -0.00000000000E+00 -0.45593999997E+02  0.45594000000E+02  0.51100000000E-03 0. -1.
    9900012    2    1    2    0    0  0.52591839992E+01 -0.26762841241E+02  0.30153922427E+02  0.50528834670E+02  0.29999923462E+02 0.  0.
         12    1    1    2    0    0 -0.52591839992E+01  0.26762841241E+02 -0.30153922427E+02  0.40659165330E+02  0.00000000000E+00 0. -1.
         11    1    3    3    0    0  0.82401706308E+01 -0.57717473319E+01  0.75177794130E+01  0.12559079857E+02  0.51100000000E-03 0. -1.
        -11    1    3    3    0    0 -0.91208882640E+01 -0.18889091964E+02  0.89160219328E+01  0.22792188252E+02  0.51100000000E-03 0.  1.
        -12    1    3    3    0    0  0.61399016323E+01 -0.21020019450E+01  0.13720121081E+02  0.15177566561E+02  0.00000000000E+00 0.  1.
</event>
<event>
 7    1  0.3041451E-011  0.5052886E+02  0.7816164E-02  0.1300439E+00
        -11   -1    0    0    0    0  0.00000000000E+00  0.00000000000E+00  0.45593999997E+02  0.45594000000E+02  0.51100000000E-03 0.  1.
         11   -1    0    0    0    0 -0.00000000000E+00 -0.00000000000E+00 -0.45593999997E+02  0.45594000000E+02  0.51100000000E-03 0. -1.
    9900012    2    1    2    0    0  0.26859889619E+02 -0.11326199533E+02  0.28344822521E+02  0.50528862897E+02  0.30000009261E+02 0.  0.
         12    1    1    2    0    0 -0.26859889619E+02  0.11326199533E+02 -0.28344822521E+02  0.40659137103E+02  0.00000000000E+00 0. -1.
         11    1    3    3    0    0  0.10094260820E+02 -0.15921298172E+02  0.26122258928E+01  0.19031698857E+02  0.51100000000E-03 0.  1.
        -11    1    3    3    0    0  0.14093491453E+02  0.24680776995E+01  0.17638379149E+02  0.22711898382E+02  0.51100000000E-03 0. -1.
        -12    1    3    3    0    0  0.26721373461E+01  0.21270209399E+01  0.80942174795E+01  0.87852656580E+01  0.00000000000E+00 0.  1.
</event>
<event>
 7    1  0.3041451E-011  0.5052887E+02  0.7816164E-02  0.1300439E+00
        -11   -1    0    0    0    0  0.00000000000E+00  0.00000000000E+00  0.45593999997E+02  0.45594000000E+02  0.51100000000E-03 0. -1.
         11   -1    0    0    0    0 -0.00000000000E+00 -0.00000000000E+00 -0.45593999997E+02  0.45594000000E+02  0.51100000000E-03 0.  1.
    9900012    2    1    2    0    0  0.17004935733E+02 -0.25580807862E+01 -0.36843634904E+02  0.50528867575E+02  0.30000023481E+02 0.  0.
         12    1    1    2    0    0 -0.17004935733E+02  0.25580807862E+01  0.36843634904E+02  0.40659132425E+02  0.00000000000E+00 0. -1.
         11    1    3    3    0    0  0.18711906281E+02 -0.91767485499E+01 -0.35169688645E+02  0.40880987638E+02  0.51100000000E-03 0. -1.
        -11    1    3    3    0    0  0.11685686813E+01  0.61353974558E+01  0.77995729846E-01  0.62461778953E+01  0.51100000000E-03 0.  1.
         12    1    3    3    0    0 -0.28755392291E+01  0.48327030792E+00 -0.17519419895E+01  0.34017020421E+01  0.00000000000E+00 0. -1.
</event>
<event>
 7    1  0.3041451E-011  0.5052885E+02  0.7816164E-02  0.1300439E+00
        -11   -1    0    0    0    0  0.00000000000E+00  0.00000000000E+00  0.45593999997E+02  0.45594000000E+02  0.51100000000E-03 0.  1.
         11   -1    0    0    0    0 -0.00000000000E+00 -0.00000000000E+00 -0.45593999997E+02  0.45594000000E+02  0.51100000000E-03 0. -1.
    9900012    2    1    2    0    0  0.14079342991E+02  0.23671477683E+02  0.29909855523E+02  0.50528853278E+02  0.29999980023E+02 0.  0.
         12    1    1    2    0    0 -0.14079342991E+02 -0.23671477683E+02 -0.29909855523E+02  0.40659146722E+02  0.00000000000E+00 0. -1.
         11    1    3    3    0    0  0.96002122498E+01  0.12862662156E+02  0.19703218015E+02  0.25413164962E+02  0.51100000000E-03 0.  1.
        -11    1    3    3    0    0 -0.20971171483E+01  0.83172764683E+01 -0.38469819275E+01  0.94007583946E+01  0.51100000000E-03 0. -1.
         12    1    3    3    0    0  0.65762478895E+01  0.24915390592E+01  0.14053619436E+02  0.15714929921E+02  0.00000000000E+00 0. -1.
</event>
<event>
 7    1  0.3041451E-011  0.5052886E+02  0.7816164E-02  0.1300439E+00
        -11   -1    0    0    0    0  0.00000000000E+00  0.00000000000E+00  0.45593999997E+02  0.45594000000E+02  0.51100000000E-03 0.  1.
         11   -1    0    0    0    0 -0.00000000000E+00 -0.00000000000E+00 -0.45593999997E+02  0.45594000000E+02  0.51100000000E-03 0. -1.
    9900012    2    1    2    0    0 -0.18676580617E+02 -0.26415827363E+02  0.24628341170E+02  0.50528858499E+02  0.29999995892E+02 0.  0.
         12    1    1    2    0    0  0.18676580617E+02  0.26415827363E+02 -0.24628341170E+02  0.40659141501E+02  0.00000000000E+00 0. -1.
         11    1    3    3    0    0 -0.11204479263E+02 -0.30071630336E+02  0.21015682800E+02  0.38360164630E+02  0.51100000000E-03 0. -1.
        -11    1    3    3    0    0 -0.41032170539E+01  0.89333735874E+00  0.59048572102E+01  0.72458112563E+01  0.51100000000E-03 0.  1.
         12    1    3    3    0    0 -0.33688843000E+01  0.27624656140E+01 -0.22921988396E+01  0.49228826124E+01  0.00000000000E+00 0. -1.
</event>
<event>
 7    1  0.3041451E-011  0.5052884E+02  0.7816164E-02  0.1300439E+00
        -11   -1    0    0    0    0  0.00000000000E+00  0.00000000000E+00  0.45593999997E+02  0.45594000000E+02  0.51100000000E-03 0.  1.
         11   -1    0    0    0    0 -0.00000000000E+00 -0.00000000000E+00 -0.45593999997E+02  0.45594000000E+02  0.51100000000E-03 0. -1.
    9900012    2    1    2    0    0 -0.28955710117E+01 -0.11281290992E+02  0.38955296165E+02  0.50528844116E+02  0.29999952175E+02 0.  0.
         12    1    1    2    0    0  0.28955710117E+01  0.11281290992E+02 -0.38955296165E+02  0.40659155884E+02  0.00000000000E+00 0. -1.
         11    1    3    3    0    0 -0.22041914267E+01 -0.12351810446E+02  0.54511776286E+01  0.13679949522E+02  0.51100000000E-03 0. -1.
        -11    1    3    3    0    0  0.51809230370E+01 -0.39258702211E+01  0.22445116455E+02  0.23367449015E+02  0.51100000000E-03 0.  1.
         12    1    3    3    0    0 -0.58723026220E+01  0.49963896752E+01  0.11059002081E+02  0.13481445579E+02  0.00000000000E+00 0. -1.
</event>
<event>
 7    1  0.3041451E-011  0.5052886E+02  0.7816164E-02  0.1300439E+00
        -11   -1    0    0    0    0  0.00000000000E+00  0.00000000000E+00  0.45593999997E+02  0.45594000000E+02  0.51100000000E-03 0.  1.
         11   -1    0    0    0    0 -0.00000000000E+00 -0.00000000000E+00 -0.45593999997E+02  0.45594000000E+02  0.51100000000E-03 0. -1.
    9900012    2    1    2    0    0  0.16598329230E+02 -0.33630509709E+02  0.15705084941E+02  0.50528863148E+02  0.30000010026E+02 0.  0.
         12    1    1    2    0    0 -0.16598329230E+02  0.33630509709E+02 -0.15705084941E+02  0.40659136852E+02  0.00000000000E+00 0. -1.
         11    1    3    3    0    0  0.80200159939E+01 -0.74400827909E+01 -0.22773301346E+01  0.11174154164E+02  0.51100000000E-03 0. -1.
        -11    1    3    3    0    0  0.49947201488E+01 -0.20417569116E+02  0.22811186417E+02  0.31018939118E+02  0.51100000000E-03 0.  1.
        -12    1    3    3    0    0  0.35835930876E+01 -0.57728578014E+01 -0.48287713408E+01  0.83357698669E+01  0.00000000000E+00 0.  1.
</event>
<event>
 7    1  0.3041451E-011  0.5052886E+02  0.7816164E-02  0.1300439E+00
        -11   -1    0    0    0    0  0.00000000000E+00  0.00000000000E+00  0.45593999997E+02  0.45594000000E+02  0.51100000000E-03 0.  1.
         11   -1    0    0    0    0 -0.00000000000E+00 -0.00000000000E+00 -0.45593999997E+02  0.45594000000E+02  0.51100000000E-03 0. -1.
    9900012    2    1    2    0    0 -0.31849128211E+01  0.15631173157E+02  0.37399042839E+02  0.50528860201E+02  0.30000001067E+02 0.  0.
         12    1    1    2    0    0  0.31849128211E+01 -0.15631173157E+02 -0.37399042839E+02  0.40659139799E+02  0.00000000000E+00 0. -1.
         11    1    3    3    0    0 -0.37391039533E+01 -0.81311726517E+01  0.64505648613E+01  0.11032073892E+02  0.51100000000E-03 0. -1.
        -11    1    3    3    0    0 -0.22350740320E+01  0.16424285495E+02  0.19177230964E+02  0.25347956479E+02  0.51100000000E-03 0.  1.
         12    1    3    3    0    0  0.27892651641E+01  0.73380603129E+01  0.11771247013E+02  0.14148829830E+02  0.00000000000E+00 0. -1.
</event>
<event>
 7    1  0.3041451E-011  0.5052886E+02  0.7816164E-02  0.1300439E+00
        -11   -1    0    0    0    0  0.00000000000E+00  0.00000000000E+00  0.45593999997E+02  0.45594000000E+02  0.51100000000E-03 0.  1.
         11   -1    0    0    0    0 -0.00000000000E+00 -0.00000000000E+00 -0.45593999997E+02  0.45594000000E+02  0.51100000000E-03 0. -1.
    9900012    2    1    2    0    0  0.33666875146E+02  0.22717654366E+02 -0.19015082806E+01  0.50528855447E+02  0.29999986617E+02 0.  0.
         12    1    1    2    0    0 -0.33666875146E+02 -0.22717654366E+02  0.19015082806E+01  0.40659144553E+02  0.00000000000E+00 0. -1.
         11    1    3    3    0    0 -0.96847375470E+00  0.85001941827E+01 -0.37161898965E+01  0.93274492851E+01  0.51100000000E-03 0. -1.
        -11    1    3    3    0    0  0.25416640117E+02  0.16287080619E+02 -0.34527078330E+01  0.30384137006E+02  0.51100000000E-03 0.  1.
        -12    1    3    3    0    0  0.92187087839E+01 -0.20696204358E+01  0.52673894489E+01  0.10817269156E+02  0.00000000000E+00 0.  1.
</event>
<event>
 7    1  0.3041451E-011  0.5052887E+02  0.7816164E-02  0.1300439E+00
        -11   -1    0    0    0    0  0.00000000000E+00  0.00000000000E+00  0.45593999997E+02  0.45594000000E+02  0.51100000000E-03 0.  1.
         11   -1    0    0    0    0 -0.00000000000E+00 -0.00000000000E+00 -0.45593999997E+02  0.45594000000E+02  0.51100000000E-03 0. -1.
    9900012    2    1    2    0    0 -0.36273829516E+02 -0.86195517414E+01 -0.16219674700E+02  0.50528865389E+02  0.30000016835E+02 0.  0.
         12    1    1    2    0    0  0.36273829516E+02  0.86195517414E+01  0.16219674700E+02  0.40659134611E+02  0.00000000000E+00 0. -1.
         11    1    3    3    0    0 -0.21062007474E+02 -0.84024840681E+01 -0.57140000149E+01  0.23385031405E+02  0.51100000000E-03 0. -1.
        -11    1    3    3    0    0 -0.20501261347E+01  0.79828167024E+01 -0.79053452459E+01  0.11420282982E+02  0.51100000000E-03 0.  1.
        -12    1    3    3    0    0 -0.13161695907E+02 -0.81998843757E+01 -0.26003294389E+01  0.15723551002E+02  0.00000000000E+00 0.  1.
</event>
<event>
 7    1  0.3041451E-011  0.5052886E+02  0.7816164E-02  0.1300439E+00
        -11   -1    0    0    0    0  0.00000000000E+00  0.00000000000E+00  0.45593999997E+02  0.45594000000E+02  0.51100000000E-03 0.  1.
         11   -1    0    0    0    0 -0.00000000000E+00 -0.00000000000E+00 -0.45593999997E+02  0.45594000000E+02  0.51100000000E-03 0. -1.
    9900012    2    1    2    0    0  0.30504566768E+02 -0.26426803953E+02  0.49255782654E+01  0.50528857336E+02  0.29999992360E+02 0.  0.
         12    1    1    2    0    0 -0.30504566768E+02  0.26426803953E+02 -0.49255782654E+01  0.40659142664E+02  0.00000000000E+00 0. -1.
         11    1    3    3    0    0 -0.42927847163E+01 -0.86600732548E+01  0.19602944591E+01  0.98624349948E+01  0.51100000000E-03 0. -1.
        -11    1    3    3    0    0  0.16962366444E+02 -0.29370742116E+01  0.29839621904E+01  0.17471471344E+02  0.51100000000E-03 0.  1.
         12    1    3    3    0    0  0.17834985040E+02 -0.14829656487E+02 -0.18678383970E-01  0.23194950998E+02  0.00000000000E+00 0. -1.
</event>
<event>
 7    1  0.3041451E-011  0.5052886E+02  0.7816164E-02  0.1300439E+00
        -11   -1    0    0    0    0  0.00000000000E+00  0.00000000000E+00  0.45593999997E+02  0.45594000000E+02  0.51100000000E-03 0.  1.
         11   -1    0    0    0    0 -0.00000000000E+00 -0.00000000000E+00 -0.45593999997E+02  0.45594000000E+02  0.51100000000E-03 0. -1.
    9900012    2    1    2    0    0  0.77167359647E+01 -0.34322196758E+02  0.20386377930E+02  0.50528860691E+02  0.30000002556E+02 0.  0.
         12    1    1    2    0    0 -0.77167359647E+01  0.34322196758E+02 -0.20386377930E+02  0.40659139309E+02  0.00000000000E+00 0. -1.
         11    1    3    3    0    0 -0.44060241800E+01 -0.10966474837E+02 -0.13180750850E+01  0.11891759399E+02  0.51100000000E-03 0. -1.
        -11    1    3    3    0    0  0.76514600243E+01 -0.25458697322E+02  0.15748367336E+02  0.30898239171E+02  0.51100000000E-03 0.  1.
        -12    1    3    3    0    0  0.44713001203E+01  0.21029754008E+01  0.59560856794E+01  0.77388621207E+01  0.00000000000E+00 0.  1.
</event>
<event>
 7    1  0.3041451E-011  0.5052889E+02  0.7816164E-02  0.1300439E+00
        -11   -1    0    0    0    0  0.00000000000E+00  0.00000000000E+00  0.45593999997E+02  0.45594000000E+02  0.51100000000E-03 0.  1.
         11   -1    0    0    0    0 -0.00000000000E+00 -0.00000000000E+00 -0.45593999997E+02  0.45594000000E+02  0.51100000000E-03 0. -1.
    9900012    2    1    2    0    0 -0.36081421558E+01 -0.64055737218E+01  0.39988914171E+02  0.50528888830E+02  0.30000088088E+02 0.  0.
         12    1    1    2    0    0  0.36081421558E+01  0.64055737218E+01 -0.39988914171E+02  0.40659111170E+02  0.00000000000E+00 0. -1.
         11    1    3    3    0    0  0.10693691850E+01 -0.13775176372E+02  0.76896001320E+01  0.15812304860E+02  0.51100000000E-03 0. -1.
        -11    1    3    3    0    0 -0.47011613177E+01 -0.14371876736E+00  0.17476467600E+02  0.18098300827E+02  0.51100000000E-03 0.  1.
         12    1    3    3    0    0  0.23649976827E-01  0.75133214175E+01  0.14822846440E+02  0.16618283143E+02  0.00000000000E+00 0. -1.
</event>
<event>
 7    1  0.3041451E-011  0.5052887E+02  0.7816164E-02  0.1300439E+00
        -11   -1    0    0    0    0  0.00000000000E+00  0.00000000000E+00  0.45593999997E+02  0.45594000000E+02  0.51100000000E-03 0. -1.
         11   -1    0    0    0    0 -0.00000000000E+00 -0.00000000000E+00 -0.45593999997E+02  0.45594000000E+02  0.51100000000E-03 0.  1.
    9900012    2    1    2    0    0  0.10247580101E+02  0.36576623053E+02 -0.14501824817E+02  0.50528866034E+02  0.30000018795E+02 0.  0.
         12    1    1    2    0    0 -0.10247580101E+02 -0.36576623053E+02  0.14501824817E+02  0.40659133966E+02  0.00000000000E+00 0. -1.
         11    1    3    3    0    0  0.17103845288E+01 -0.12737970442E+01 -0.31123043616E+01  0.37728520839E+01  0.51100000000E-03 0. -1.
        -11    1    3    3    0    0  0.95651947111E+01  0.35790083739E+02 -0.16948448438E+02  0.40739083797E+02  0.51100000000E-03 0.  1.
        -12    1    3    3    0    0 -0.10279991388E+01  0.20603363582E+01  0.55589279831E+01  0.60169301524E+01  0.00000000000E+00 0.  1.
</event>
<event>
 7    1  0.3041451E-011  0.5052884E+02  0.7816164E-02  0.1300439E+00
        -11   -1    0    0    0    0  0.00000000000E+00  0.00000000000E+00  0.45593999997E+02  0.45594000000E+02  0.51100000000E-03 0.  1.
         11   -1    0    0    0    0 -0.00000000000E+00 -0.00000000000E+00 -0.45593999997E+02  0.45594000000E+02  0.51100000000E-03 0. -1.
    9900012    2    1    2    0    0  0.44089759587E+00 -0.10401144848E+02  0.39303801850E+02  0.50528843040E+02  0.29999948904E+02 0.  0.
         12    1    1    2    0    0 -0.44089759587E+00  0.10401144848E+02 -0.39303801850E+02  0.40659156960E+02  0.00000000000E+00 0. -1.
         11    1    3    3    0    0  0.60691505240E+01 -0.44275842396E+01  0.17093078435E+02  0.18671138715E+02  0.51100000000E-03 0. -1.
        -11    1    3    3    0    0 -0.10504371176E+02 -0.63196290187E+01  0.23754643393E+02  0.26731303891E+02  0.51100000000E-03 0.  1.
        -12    1    3    3    0    0  0.48761182474E+01  0.34606841070E+00 -0.15439199779E+01  0.51264004336E+01  0.00000000000E+00 0.  1.
</event>
<event>
 7    1  0.3041451E-011  0.5052887E+02  0.7816164E-02  0.1300439E+00
        -11   -1    0    0    0    0  0.00000000000E+00  0.00000000000E+00  0.45593999997E+02  0.45594000000E+02  0.51100000000E-03 0. -1.
         11   -1    0    0    0    0 -0.00000000000E+00 -0.00000000000E+00 -0.45593999997E+02  0.45594000000E+02  0.51100000000E-03 0.  1.
    9900012    2    1    2    0    0  0.14312377329E+01 -0.33661878930E+02 -0.22759488734E+02  0.50528869881E+02  0.30000030491E+02 0.  0.
         12    1    1    2    0    0 -0.14312377329E+01  0.33661878930E+02  0.22759488734E+02  0.40659130119E+02  0.00000000000E+00 0. -1.
         11    1    3    3    0    0  0.48466863486E+01 -0.11238140500E+01 -0.22731221824E+01  0.54699553288E+01  0.51100000000E-03 0. -1.
        -11    1    3    3    0    0 -0.71125364307E+01 -0.21510366585E+02 -0.23905684388E+02  0.32935782842E+02  0.51100000000E-03 0.  1.
        -12    1    3    3    0    0  0.36970878150E+01 -0.11027698295E+02  0.34193178362E+01  0.12123131710E+02  0.00000000000E+00 0.  1.
</event>
<event>
 7    1  0.3041451E-011  0.5052886E+02  0.7816164E-02  0.1300439E+00
        -11   -1    0    0    0    0  0.00000000000E+00  0.00000000000E+00  0.45593999997E+02  0.45594000000E+02  0.51100000000E-03 0.  1.
         11   -1    0    0    0    0 -0.00000000000E+00 -0.00000000000E+00 -0.45593999997E+02  0.45594000000E+02  0.51100000000E-03 0. -1.
    9900012    2    1    2    0    0 -0.23017151253E+02 -0.10486347904E+02  0.31834148183E+02  0.50528859149E+02  0.29999997870E+02 0.  0.
         12    1    1    2    0    0  0.23017151253E+02  0.10486347904E+02 -0.31834148183E+02  0.40659140851E+02  0.00000000000E+00 0. -1.
         11    1    3    3    0    0 -0.25530968286E+01  0.78364517280E+01  0.14989255519E+02  0.17105731799E+02  0.51100000000E-03 0. -1.
        -11    1    3    3    0    0 -0.20467046893E+02 -0.17075622742E+02  0.17622349813E+02  0.31953467945E+02  0.51100000000E-03 0.  1.
         12    1    3    3    0    0  0.29924683508E-02 -0.12471768899E+01 -0.77745714843E+00  0.14696594052E+01  0.00000000000E+00 0. -1.
</event>
<event>
 7    1  0.3041451E-011  0.5052884E+02  0.7816164E-02  0.1300439E+00
        -11   -1    0    0    0    0  0.00000000000E+00  0.00000000000E+00  0.45593999997E+02  0.45594000000E+02  0.51100000000E-03 0.  1.
         11   -1    0    0    0    0 -0.00000000000E+00 -0.00000000000E+00 -0.45593999997E+02  0.45594000000E+02  0.51100000000E-03 0. -1.
    9900012    2    1    2    0    0 -0.13352304417E+02 -0.38400527540E+02  0.53179932905E+00  0.50528839174E+02  0.29999937153E+02 0.  0.
         12    1    1    2    0    0  0.13352304417E+02  0.38400527540E+02 -0.53179932905E+00  0.40659160826E+02  0.00000000000E+00 0. -1.
         11    1    3    3    0    0  0.33431308652E+01 -0.57007287704E+01  0.98161138580E+01  0.11833466273E+02  0.51100000000E-03 0. -1.
        -11    1    3    3    0    0 -0.25657042678E+01 -0.20093747149E+01  0.94641542126E+00  0.33935420353E+01  0.51100000000E-03 0.  1.
         12    1    3    3    0    0 -0.14129731014E+02 -0.30690424054E+02 -0.10230729950E+02  0.35301830866E+02  0.00000000000E+00 0. -1.
</event>
<event>
 7    1  0.3041451E-011  0.5052886E+02  0.7816164E-02  0.1300439E+00
        -11   -1    0    0    0    0  0.00000000000E+00  0.00000000000E+00  0.45593999997E+02  0.45594000000E+02  0.51100000000E-03 0.  1.
         11   -1    0    0    0    0 -0.00000000000E+00 -0.00000000000E+00 -0.45593999997E+02  0.45594000000E+02  0.51100000000E-03 0. -1.
    9900012    2    1    2    0    0  0.20559473955E+02 -0.17699216739E+01  0.35033424873E+02  0.50528862646E+02  0.30000008498E+02 0.  0.
         12    1    1    2    0    0 -0.20559473955E+02  0.17699216739E+01 -0.35033424873E+02  0.40659137354E+02  0.00000000000E+00 0. -1.
         11    1    3    3    0    0  0.63166168724E+01  0.61103041867E+01  0.63142442152E+01  0.10821513121E+02  0.51100000000E-03 0. -1.
        -11    1    3    3    0    0  0.19034651052E+02 -0.97451530744E+01  0.26639887244E+02  0.34160935903E+02  0.51100000000E-03 0.  1.
        -12    1    3    3    0    0 -0.47917939697E+01  0.18649272138E+01  0.20792934144E+01  0.55464136218E+01  0.00000000000E+00 0.  1.
</event>
<event>
 7    1  0.3041451E-011  0.5052886E+02  0.7816164E-02  0.1300439E+00
        -11   -1    0    0    0    0  0.00000000000E+00  0.00000000000E+00  0.45593999997E+02  0.45594000000E+02  0.51100000000E-03 0.  1.
         11   -1    0    0    0    0 -0.00000000000E+00 -0.00000000000E+00 -0.45593999997E+02  0.45594000000E+02  0.51100000000E-03 0. -1.
    9900012    2    1    2    0    0 -0.36169930578E+01  0.15729214315E+02  0.37318563096E+02  0.50528856215E+02  0.29999988952E+02 0.  0.
         12    1    1    2    0    0  0.36169930578E+01 -0.15729214315E+02 -0.37318563096E+02  0.40659143785E+02  0.00000000000E+00 0. -1.
         11    1    3    3    0    0 -0.42395963641E+01 -0.59683756655E+01  0.18139859479E+01  0.75422961156E+01  0.51100000000E-03 0. -1.
        -11    1    3    3    0    0 -0.18343886122E+01  0.68388693159E+01  0.41617064619E+01  0.82130941817E+01  0.51100000000E-03 0.  1.
         12    1    3    3    0    0  0.24569919186E+01  0.14858720665E+02  0.31342870686E+02  0.34773465918E+02  0.00000000000E+00 0. -1.
</event>
<event>
 7    1  0.3041451E-011  0.5052885E+02  0.7816164E-02  0.1300439E+00
        -11   -1    0    0    0    0  0.00000000000E+00  0.00000000000E+00  0.45593999997E+02  0.45594000000E+02  0.51100000000E-03 0.  1.
         11   -1    0    0    0    0 -0.00000000000E+00 -0.00000000000E+00 -0.45593999997E+02  0.45594000000E+02  0.51100000000E-03 0. -1.
    9900012    2    1    2    0    0 -0.19078216875E+02 -0.17388598401E+02  0.31413769683E+02  0.50528848027E+02  0.29999964062E+02 0.  0.
         12    1    1    2    0    0  0.19078216875E+02  0.17388598401E+02 -0.31413769683E+02  0.40659151973E+02  0.00000000000E+00 0. -1.
         11    1    3    3    0    0 -0.12662363453E+02 -0.94700418314E+01  0.37133544356E+01  0.16242110144E+02  0.51100000000E-03 0. -1.
        -11    1    3    3    0    0  0.31515843804E+01  0.11591746158E+01  0.16927751704E+02  0.17257605509E+02  0.51100000000E-03 0.  1.
         12    1    3    3    0    0 -0.95674378021E+01 -0.90777311850E+01  0.10772663543E+02  0.17029132373E+02  0.00000000000E+00 0. -1.
</event>
<event>
 7    1  0.3041451E-011  0.5052885E+02  0.7816164E-02  0.1300439E+00
        -11   -1    0    0    0    0  0.00000000000E+00  0.00000000000E+00  0.45593999997E+02  0.45594000000E+02  0.51100000000E-03 0.  1.
         11   -1    0    0    0    0 -0.00000000000E+00 -0.00000000000E+00 -0.45593999997E+02  0.45594000000E+02  0.51100000000E-03 0. -1.
    9900012    2    1    2    0    0  0.23606399762E+02 -0.28394654250E+02  0.17019045291E+02  0.50528850940E+02  0.29999972918E+02 0.  0.
         12    1    1    2    0    0 -0.23606399762E+02  0.28394654250E+02 -0.17019045291E+02  0.40659149060E+02  0.00000000000E+00 0. -1.
         11    1    3    3    0    0  0.19145091748E+02 -0.27086146533E+02  0.94817878070E+01  0.34497799528E+02  0.51100000000E-03 0. -1.
        -11    1    3    3    0    0 -0.11961500375E+01 -0.29283592693E+01  0.93522546046E+01  0.98727265420E+01  0.51100000000E-03 0.  1.
         12    1    3    3    0    0  0.56574580515E+01  0.16198515522E+01 -0.18149971210E+01  0.61583248700E+01  0.00000000000E+00 0. -1.
</event>
<event>
 7    1  0.3041451E-011  0.5052888E+02  0.7816164E-02  0.1300439E+00
        -11   -1    0    0    0    0  0.00000000000E+00  0.00000000000E+00  0.45593999997E+02  0.45594000000E+02  0.51100000000E-03 0.  1.
         11   -1    0    0    0    0 -0.00000000000E+00 -0.00000000000E+00 -0.45593999997E+02  0.45594000000E+02  0.51100000000E-03 0. -1.
    9900012    2    1    2    0    0  0.20341746618E+02  0.42265884145E+01  0.34950150342E+02  0.50528883999E+02  0.30000073402E+02 0.  0.
         12    1    1    2    0    0 -0.20341746618E+02 -0.42265884145E+01 -0.34950150342E+02  0.40659116001E+02  0.00000000000E+00 0. -1.
         11    1    3    3    0    0  0.73767770342E+01 -0.38701086155E+01  0.58794963983E+01  0.10196227649E+02  0.51100000000E-03 0. -1.
        -11    1    3    3    0    0 -0.29328706573E+01  0.63949560970E+01  0.21538926230E+02  0.22658829122E+02  0.51100000000E-03 0.  1.
        -12    1    3    3    0    0  0.15897840241E+02  0.17017409330E+01  0.75317277133E+01  0.17673827228E+02  0.00000000000E+00 0.  1.
</event>
<event>
 7    1  0.3041451E-011  0.5052886E+02  0.7816164E-02  0.1300439E+00
        -11   -1    0    0    0    0  0.00000000000E+00  0.00000000000E+00  0.45593999997E+02  0.45594000000E+02  0.51100000000E-03 0. -1.
         11   -1    0    0    0    0 -0.00000000000E+00 -0.00000000000E+00 -0.45593999997E+02  0.45594000000E+02  0.51100000000E-03 0.  1.
    9900012    2    1    2    0    0 -0.14129884073E+02  0.36727119605E+02  0.10228898638E+02  0.50528864424E+02  0.30000013904E+02 0.  0.
         12    1    1    2    0    0  0.14129884073E+02 -0.36727119605E+02 -0.10228898638E+02  0.40659135576E+02  0.00000000000E+00 0. -1.
         11    1    3    3    0    0  0.48787974725E+01  0.80463292819E+01  0.10074462123E+02  0.13785531075E+02  0.51100000000E-03 0. -1.
        -11    1    3    3    0    0 -0.22951484719E+01  0.14442321726E+02  0.17568210799E+01  0.14728706119E+02  0.51100000000E-03 0.  1.
         12    1    3    3    0    0 -0.16713533074E+02  0.14238468597E+02 -0.16023845648E+01  0.22014627230E+02  0.00000000000E+00 0. -1.
</event>
<event>
 7    1  0.3041451E-011  0.5052887E+02  0.7816164E-02  0.1300439E+00
        -11   -1    0    0    0    0  0.00000000000E+00  0.00000000000E+00  0.45593999997E+02  0.45594000000E+02  0.51100000000E-03 0. -1.
         11   -1    0    0    0    0 -0.00000000000E+00 -0.00000000000E+00 -0.45593999997E+02  0.45594000000E+02  0.51100000000E-03 0.  1.
    9900012    2    1    2    0    0 -0.13526807722E+02 -0.34948771383E+02 -0.15772560955E+02  0.50528870307E+02  0.30000031785E+02 0.  0.
         12    1    1    2    0    0  0.13526807722E+02  0.34948771383E+02  0.15772560955E+02  0.40659129693E+02  0.00000000000E+00 0. -1.
         11    1    3    3    0    0  0.10967125550E+01 -0.10443505480E+02  0.29086660974E+00  0.10504960200E+02  0.51100000000E-03 0. -1.
        -11    1    3    3    0    0 -0.16508638921E+02 -0.52831762383E+01 -0.80928349033E+01  0.19129586698E+02  0.51100000000E-03 0.  1.
        -12    1    3    3    0    0  0.18851186442E+01 -0.19222089664E+02 -0.79705926613E+01  0.20894323409E+02  0.00000000000E+00 0.  1.
</event>
<event>
 7    1  0.3041451E-011  0.5052889E+02  0.7816164E-02  0.1300439E+00
        -11   -1    0    0    0    0  0.00000000000E+00  0.00000000000E+00  0.45593999997E+02  0.45594000000E+02  0.51100000000E-03 0. -1.
         11   -1    0    0    0    0 -0.00000000000E+00 -0.00000000000E+00 -0.45593999997E+02  0.45594000000E+02  0.51100000000E-03 0.  1.
    9900012    2    1    2    0    0 -0.32950791967E+02  0.93583346945E+01 -0.21905024601E+02  0.50528890045E+02  0.30000091782E+02 0.  0.
         12    1    1    2    0    0  0.32950791967E+02 -0.93583346945E+01  0.21905024601E+02  0.40659109955E+02  0.00000000000E+00 0. -1.
         11    1    3    3    0    0 -0.27841219717E+02  0.10089808530E+02 -0.26146065912E+01  0.29728335295E+02  0.51100000000E-03 0. -1.
        -11    1    3    3    0    0 -0.54482933221E+01  0.10749594485E+01 -0.11164533468E+02  0.12469412406E+02  0.51100000000E-03 0.  1.
         12    1    3    3    0    0  0.33872107206E+00 -0.18064332837E+01 -0.81258845419E+01  0.83311423443E+01  0.00000000000E+00 0. -1.
</event>
<event>
 7    1  0.3041451E-011  0.5052886E+02  0.7816164E-02  0.1300439E+00
        -11   -1    0    0    0    0  0.00000000000E+00  0.00000000000E+00  0.45593999997E+02  0.45594000000E+02  0.51100000000E-03 0. -1.
         11   -1    0    0    0    0 -0.00000000000E+00 -0.00000000000E+00 -0.45593999997E+02  0.45594000000E+02  0.51100000000E-03 0.  1.
    9900012    2    1    2    0    0  0.36073515940E+02  0.53249448310E+01 -0.17986441948E+02  0.50528859777E+02  0.29999999777E+02 0.  0.
         12    1    1    2    0    0 -0.36073515940E+02 -0.53249448310E+01  0.17986441948E+02  0.40659140223E+02  0.00000000000E+00 0. -1.
         11    1    3    3    0    0  0.18733954121E+02  0.39761916258E+01 -0.78211150892E+00  0.19167233382E+02  0.51100000000E-03 0. -1.
        -11    1    3    3    0    0  0.69794602544E+01 -0.78791700769E+01 -0.13275647737E+02  0.16942166616E+02  0.51100000000E-03 0.  1.
        -12    1    3    3    0    0  0.10360101565E+02  0.92279232821E+01 -0.39286827023E+01  0.14419459779E+02  0.00000000000E+00 0.  1.
</event>
<event>
 7    1  0.3041451E-011  0.5052884E+02  0.7816164E-02  0.1300439E+00
        -11   -1    0    0    0    0  0.00000000000E+00  0.00000000000E+00  0.45593999997E+02  0.45594000000E+02  0.51100000000E-03 0.  1.
         11   -1    0    0    0    0 -0.00000000000E+00 -0.00000000000E+00 -0.45593999997E+02  0.45594000000E+02  0.51100000000E-03 0. -1.
    9900012    2    1    2    0    0  0.51452676190E+01  0.34573001767E+02  0.20770193466E+02  0.50528841540E+02  0.29999944345E+02 0.  0.
         12    1    1    2    0    0 -0.51452676190E+01 -0.34573001767E+02 -0.20770193466E+02  0.40659158460E+02  0.00000000000E+00 0. -1.
         11    1    3    3    0    0  0.11041153146E+02  0.50238839015E+01  0.11397104214E+02  0.16644532345E+02  0.51100000000E-03 0. -1.
        -11    1    3    3    0    0 -0.79762401033E+01  0.10729996752E+02  0.17928907884E+01  0.13489540175E+02  0.51100000000E-03 0.  1.
         12    1    3    3    0    0  0.20803545762E+01  0.18819121114E+02  0.75801984642E+01  0.20394769021E+02  0.00000000000E+00 0. -1.
</event>
<event>
 7    1  0.3041451E-011  0.5052886E+02  0.7816164E-02  0.1300439E+00
        -11   -1    0    0    0    0  0.00000000000E+00  0.00000000000E+00  0.45593999997E+02  0.45594000000E+02  0.51100000000E-03 0. -1.
         11   -1    0    0    0    0 -0.00000000000E+00 -0.00000000000E+00 -0.45593999997E+02  0.45594000000E+02  0.51100000000E-03 0.  1.
    9900012    2    1    2    0    0  0.28483803785E+02  0.28035487721E+02 -0.74733120636E+01  0.50528855359E+02  0.29999986348E+02 0.  0.
         12    1    1    2    0    0 -0.28483803785E+02 -0.28035487721E+02  0.74733120636E+01  0.40659144641E+02  0.00000000000E+00 0. -1.
         11    1    3    3    0    0 -0.76462412299E-01  0.16482516838E+01 -0.11216474360E+02  0.11337190015E+02  0.51100000000E-03 0. -1.
        -11    1    3    3    0    0  0.97772611542E+01  0.78827797231E+01 -0.82167609369E-02  0.12559184672E+02  0.51100000000E-03 0.  1.
         12    1    3    3    0    0  0.18783005043E+02  0.18504456314E+02  0.37513790573E+01  0.26632480672E+02  0.00000000000E+00 0. -1.
</event>
<event>
 7    1  0.3041451E-011  0.5052885E+02  0.7816164E-02  0.1300439E+00
        -11   -1    0    0    0    0  0.00000000000E+00  0.00000000000E+00  0.45593999997E+02  0.45594000000E+02  0.51100000000E-03 0.  1.
         11   -1    0    0    0    0 -0.00000000000E+00 -0.00000000000E+00 -0.45593999997E+02  0.45594000000E+02  0.51100000000E-03 0. -1.
    9900012    2    1    2    0    0  0.26442419331E+02 -0.48819084546E+01  0.30498066055E+02  0.50528848468E+02  0.29999965404E+02 0.  0.
         12    1    1    2    0    0 -0.26442419331E+02  0.48819084546E+01 -0.30498066055E+02  0.40659151532E+02  0.00000000000E+00 0. -1.
         11    1    3    3    0    0  0.82141340908E+01 -0.61628414702E+01 -0.30510047664E+01  0.10712667464E+02  0.51100000000E-03 0. -1.
        -11    1    3    3    0    0  0.15109434447E+02  0.16963860859E+01  0.33363115818E+02  0.36664290971E+02  0.51100000000E-03 0.  1.
        -12    1    3    3    0    0  0.31188507924E+01 -0.41545307025E+00  0.18595500357E+00  0.31518900333E+01  0.00000000000E+00 0.  1.
</event>
<event>
 7    1  0.3041451E-011  0.5052885E+02  0.7816164E-02  0.1300439E+00
        -11   -1    0    0    0    0  0.00000000000E+00  0.00000000000E+00  0.45593999997E+02  0.45594000000E+02  0.51100000000E-03 0. -1.
         11   -1    0    0    0    0 -0.00000000000E+00 -0.00000000000E+00 -0.45593999997E+02  0.45594000000E+02  0.51100000000E-03 0.  1.
    9900012    2    1    2    0    0 -0.28947974989E+02  0.27105463573E+02  0.89707772757E+01  0.50528852734E+02  0.29999978371E+02 0.  0.
         12    1    1    2    0    0  0.28947974989E+02 -0.27105463573E+02 -0.89707772757E+01  0.40659147266E+02  0.00000000000E+00 0. -1.
         11    1    3    3    0    0 -0.61905416183E+00  0.11437050972E+02  0.13143102823E+02  0.17433603043E+02  0.51100000000E-03 0. -1.
        -11    1    3    3    0    0 -0.22412161468E+02  0.14289139214E+02 -0.20456131400E+01  0.26658376067E+02  0.51100000000E-03 0.  1.
         12    1    3    3    0    0 -0.59167593593E+01  0.13792733868E+01 -0.21267124074E+01  0.64368736243E+01  0.00000000000E+00 0. -1.
</event>
<event>
 7    1  0.3041451E-011  0.5052886E+02  0.7816164E-02  0.1300439E+00
        -11   -1    0    0    0    0  0.00000000000E+00  0.00000000000E+00  0.45593999997E+02  0.45594000000E+02  0.51100000000E-03 0.  1.
         11   -1    0    0    0    0 -0.00000000000E+00 -0.00000000000E+00 -0.45593999997E+02  0.45594000000E+02  0.51100000000E-03 0. -1.
    9900012    2    1    2    0    0 -0.41826346388E+01  0.40243373480E+02  0.40176906491E+01  0.50528863514E+02  0.30000011138E+02 0.  0.
         12    1    1    2    0    0  0.41826346388E+01 -0.40243373480E+02 -0.40176906491E+01  0.40659136486E+02  0.00000000000E+00 0. -1.
         11    1    3    3    0    0 -0.10605983993E+02  0.20547622749E+02  0.13429770022E+02  0.26740426702E+02  0.51100000000E-03 0. -1.
        -11    1    3    3    0    0  0.66454951897E+01  0.10565873074E+02 -0.71306591140E+01  0.14375207122E+02  0.51100000000E-03 0.  1.
        -12    1    3    3    0    0 -0.22214583575E+00  0.91298776566E+01 -0.22814202593E+01  0.94132296900E+01  0.00000000000E+00 0.  1.
</event>
<event>
 7    1  0.3041451E-011  0.5052885E+02  0.7816164E-02  0.1300439E+00
        -11   -1    0    0    0    0  0.00000000000E+00  0.00000000000E+00  0.45593999997E+02  0.45594000000E+02  0.51100000000E-03 0.  1.
         11   -1    0    0    0    0 -0.00000000000E+00 -0.00000000000E+00 -0.45593999997E+02  0.45594000000E+02  0.51100000000E-03 0. -1.
    9900012    2    1    2    0    0  0.14823454701E+02  0.14825104125E+02  0.34837451599E+02  0.50528849056E+02  0.29999967190E+02 0.  0.
         12    1    1    2    0    0 -0.14823454701E+02 -0.14825104125E+02 -0.34837451599E+02  0.40659150944E+02  0.00000000000E+00 0. -1.
         11    1    3    3    0    0 -0.58337562407E+01 -0.59964835776E+00  0.13167653833E+01  0.60105042521E+01  0.51100000000E-03 0. -1.
        -11    1    3    3    0    0  0.20975260603E+02  0.89583774834E+01  0.26660760430E+02  0.35085755392E+02  0.51100000000E-03 0.  1.
         12    1    3    3    0    0 -0.31804966134E+00  0.64663749993E+01  0.68599257858E+01  0.94325894115E+01  0.00000000000E+00 0. -1.
</event>
<event>
 7    1  0.3041451E-011  0.5052887E+02  0.7816164E-02  0.1300439E+00
        -11   -1    0    0    0    0  0.00000000000E+00  0.00000000000E+00  0.45593999997E+02  0.45594000000E+02  0.51100000000E-03 0. -1.
         11   -1    0    0    0    0 -0.00000000000E+00 -0.00000000000E+00 -0.45593999997E+02  0.45594000000E+02  0.51100000000E-03 0.  1.
    9900012    2    1    2    0    0 -0.27067312397E+02  0.28970658588E+02 -0.90125727340E+01  0.50528869086E+02  0.30000028073E+02 0.  0.
         12    1    1    2    0    0  0.27067312397E+02 -0.28970658588E+02  0.90125727340E+01  0.40659130914E+02  0.00000000000E+00 0. -1.
         11    1    3    3    0    0 -0.57806477403E+01  0.26340560812E+02 -0.63142771408E+00  0.26974798116E+02  0.51100000000E-03 0. -1.
        -11    1    3    3    0    0 -0.15449257860E+02 -0.34496566945E+00 -0.61672814570E+01  0.16638327156E+02  0.51100000000E-03 0.  1.
        -12    1    3    3    0    0 -0.58374067966E+01  0.29750634453E+01 -0.22138635629E+01  0.69157438131E+01  0.00000000000E+00 0.  1.
</event>
<event>
 7    1  0.3041451E-011  0.5052886E+02  0.7816164E-02  0.1300439E+00
        -11   -1    0    0    0    0  0.00000000000E+00  0.00000000000E+00  0.45593999997E+02  0.45594000000E+02  0.51100000000E-03 0.  1.
         11   -1    0    0    0    0 -0.00000000000E+00 -0.00000000000E+00 -0.45593999997E+02  0.45594000000E+02  0.51100000000E-03 0. -1.
    9900012    2    1    2    0    0  0.14034198747E+02 -0.53197205925E+01  0.37787667238E+02  0.50528856417E+02  0.29999989564E+02 0.  0.
         12    1    1    2    0    0 -0.14034198747E+02  0.53197205925E+01 -0.37787667238E+02  0.40659143583E+02  0.00000000000E+00 0. -1.
         11    1    3    3    0    0 -0.33737733869E+01  0.39906289795E+01  0.56117063106E+01  0.76680319832E+01  0.51100000000E-03 0. -1.
        -11    1    3    3    0    0  0.15280008587E+02 -0.11319398862E+02  0.34317871036E+02  0.39234216262E+02  0.51100000000E-03 0.  1.
        -12    1    3    3    0    0  0.21279635475E+01  0.20090492902E+01 -0.21419101091E+01  0.36266081709E+01  0.00000000000E+00 0.  1.
</event>
<event>
 7    1  0.3041451E-011  0.5052886E+02  0.7816164E-02  0.1300439E+00
        -11   -1    0    0    0    0  0.00000000000E+00  0.00000000000E+00  0.45593999997E+02  0.45594000000E+02  0.51100000000E-03 0.  1.
         11   -1    0    0    0    0 -0.00000000000E+00 -0.00000000000E+00 -0.45593999997E+02  0.45594000000E+02  0.51100000000E-03 0. -1.
    9900012    2    1    2    0    0  0.24071007248E+02 -0.12742080828E+00  0.32767908329E+02  0.50528862746E+02  0.30000008801E+02 0.  0.
         12    1    1    2    0    0 -0.24071007248E+02  0.12742080828E+00 -0.32767908329E+02  0.40659137254E+02  0.00000000000E+00 0. -1.
         11    1    3    3    0    0  0.77206688864E+01  0.84108871605E+01  0.93019376394E+01  0.14726771370E+02  0.51100000000E-03 0. -1.
        -11    1    3    3    0    0  0.20929705187E+02 -0.80506350305E+01  0.19102832894E+02  0.29458165395E+02  0.51100000000E-03 0.  1.
        -12    1    3    3    0    0 -0.45793668255E+01 -0.48767293823E+00  0.43631377961E+01  0.63439259804E+01  0.00000000000E+00 0.  1.
</event>
<event>
 7    1  0.3041451E-011  0.5052886E+02  0.7816164E-02  0.1300439E+00
        -11   -1    0    0    0    0  0.00000000000E+00  0.00000000000E+00  0.45593999997E+02  0.45594000000E+02  0.51100000000E-03 0. -1.
         11   -1    0    0    0    0 -0.00000000000E+00 -0.00000000000E+00 -0.45593999997E+02  0.45594000000E+02  0.51100000000E-03 0.  1.
    9900012    2    1    2    0    0 -0.16997157822E+02 -0.14232072171E+02 -0.34083869395E+02  0.50528863201E+02  0.30000010185E+02 0.  0.
         12    1    1    2    0    0  0.16997157822E+02  0.14232072171E+02  0.34083869395E+02  0.40659136799E+02  0.00000000000E+00 0. -1.
         11    1    3    3    0    0 -0.19277058003E+01 -0.28460697204E+01  0.19159817614E+01  0.39353715043E+01  0.51100000000E-03 0. -1.
        -11    1    3    3    0    0 -0.10646814614E+02  0.73533695569E+00 -0.30948637892E+02  0.32737036663E+02  0.51100000000E-03 0.  1.
        -12    1    3    3    0    0 -0.44226374082E+01 -0.12121339407E+02 -0.50512132645E+01  0.13856455034E+02  0.00000000000E+00 0.  1.
</event>
<event>
 7    1  0.3041451E-011  0.5052886E+02  0.7816164E-02  0.1300439E+00
        -11   -1    0    0    0    0  0.00000000000E+00  0.00000000000E+00  0.45593999997E+02  0.45594000000E+02  0.51100000000E-03 0. -1.
         11   -1    0    0    0    0 -0.00000000000E+00 -0.00000000000E+00 -0.45593999997E+02  0.45594000000E+02  0.51100000000E-03 0.  1.
    9900012    2    1    2    0    0  0.40193460826E+02  0.31540197227E+01 -0.52634504933E+01  0.50528855338E+02  0.29999986284E+02 0.  0.
         12    1    1    2    0    0 -0.40193460826E+02 -0.31540197227E+01  0.52634504933E+01  0.40659144662E+02  0.00000000000E+00 0. -1.
         11    1    3    3    0    0  0.20293096800E+02  0.23244162331E+01  0.10091425652E+02  0.22782659206E+02  0.51100000000E-03 0. -1.
        -11    1    3    3    0    0  0.11194315601E+02  0.60605759016E+01 -0.66096840383E+01  0.14343333133E+02  0.51100000000E-03 0.  1.
         12    1    3    3    0    0  0.87060484255E+01 -0.52309724120E+01 -0.87451921069E+01  0.13402862998E+02  0.00000000000E+00 0. -1.
</event>
<event>
 7    1  0.3041451E-011  0.5052885E+02  0.7816164E-02  0.1300439E+00
        -11   -1    0    0    0    0  0.00000000000E+00  0.00000000000E+00  0.45593999997E+02  0.45594000000E+02  0.51100000000E-03 0.  1.
         11   -1    0    0    0    0 -0.00000000000E+00 -0.00000000000E+00 -0.45593999997E+02  0.45594000000E+02  0.51100000000E-03 0. -1.
    9900012    2    1    2    0    0 -0.22507892461E+02 -0.12940121322E+02  0.31290809703E+02  0.50528846852E+02  0.29999960490E+02 0.  0.
         12    1    1    2    0    0  0.22507892461E+02  0.12940121322E+02 -0.31290809703E+02  0.40659153148E+02  0.00000000000E+00 0. -1.
         11    1    3    3    0    0 -0.24233091543E+01 -0.64408852825E+01  0.29958779607E+01  0.75055123407E+01  0.51100000000E-03 0. -1.
        -11    1    3    3    0    0 -0.24435924165E+02 -0.47616888624E+00  0.18123857240E+02  0.30427213611E+02  0.51100000000E-03 0.  1.
        -12    1    3    3    0    0  0.43513408583E+01 -0.60230671529E+01  0.10171074502E+02  0.12596120900E+02  0.00000000000E+00 0.  1.
</event>
<event>
 7    1  0.3041451E-011  0.5052886E+02  0.7816164E-02  0.1300439E+00
        -11   -1    0    0    0    0  0.00000000000E+00  0.00000000000E+00  0.45593999997E+02  0.45594000000E+02  0.51100000000E-03 0.  1.
         11   -1    0    0    0    0 -0.00000000000E+00 -0.00000000000E+00 -0.45593999997E+02  0.45594000000E+02  0.51100000000E-03 0. -1.
    9900012    2    1    2    0    0  0.70382616992E+01  0.33771153601E+02 -0.21520629103E+02  0.50528863016E+02  0.30000009625E+02 0.  0.
         12    1    1    2    0    0 -0.70382616992E+01 -0.33771153601E+02  0.21520629103E+02  0.40659136984E+02  0.00000000000E+00 0. -1.
         11    1    3    3    0    0  0.78417470033E+01  0.33630351597E+02 -0.10593131798E+02  0.36120741771E+02  0.51100000000E-03 0. -1.
        -11    1    3    3    0    0  0.80928272711E+00  0.38291874591E+01 -0.15617159138E+01  0.42138547657E+01  0.51100000000E-03 0.  1.
         12    1    3    3    0    0 -0.16127680313E+01 -0.36883854548E+01 -0.93657813911E+01  0.10194266479E+02  0.00000000000E+00 0. -1.
</event>
<event>
 7    1  0.3041451E-011  0.5052886E+02  0.7816164E-02  0.1300439E+00
        -11   -1    0    0    0    0  0.00000000000E+00  0.00000000000E+00  0.45593999997E+02  0.45594000000E+02  0.51100000000E-03 0.  1.
         11   -1    0    0    0    0 -0.00000000000E+00 -0.00000000000E+00 -0.45593999997E+02  0.45594000000E+02  0.51100000000E-03 0. -1.
    9900012    2    1    2    0    0 -0.34731198530E+02  0.14415773608E+02 -0.15462690994E+02  0.50528862124E+02  0.30000006912E+02 0.  0.
         12    1    1    2    0    0  0.34731198530E+02 -0.14415773608E+02  0.15462690994E+02  0.40659137876E+02  0.00000000000E+00 0. -1.
         11    1    3    3    0    0 -0.44954156187E+01 -0.35845808597E+01  0.53080860889E+01  0.78252002986E+01  0.51100000000E-03 0. -1.
        -11    1    3    3    0    0 -0.30828877557E+02  0.18385837830E+02 -0.18615098211E+02  0.40434893419E+02  0.51100000000E-03 0.  1.
        -12    1    3    3    0    0  0.59309464636E+00 -0.38548336231E+00 -0.21556788718E+01  0.22687684061E+01  0.00000000000E+00 0.  1.
</event>
<event>
 7    1  0.3041451E-011  0.5052885E+02  0.7816164E-02  0.1300439E+00
        -11   -1    0    0    0    0  0.00000000000E+00  0.00000000000E+00  0.45593999997E+02  0.45594000000E+02  0.51100000000E-03 0. -1.
         11   -1    0    0    0    0 -0.00000000000E+00 -0.00000000000E+00 -0.45593999997E+02  0.45594000000E+02  0.51100000000E-03 0.  1.
    9900012    2    1    2    0    0  0.31219998120E+02 -0.95021040375E+01 -0.24252585853E+02  0.50528853621E+02  0.29999981065E+02 0.  0.
         12    1    1    2    0    0 -0.31219998120E+02  0.95021040375E+01  0.24252585853E+02  0.40659146379E+02  0.00000000000E+00 0. -1.
         11    1    3    3    0    0  0.92217719478E+01 -0.49878701956E+01 -0.24084991312E+02  0.26267979246E+02  0.51100000000E-03 0. -1.
        -11    1    3    3    0    0  0.10627606233E+02  0.14050982116E+01  0.28477805246E+01  0.11091896565E+02  0.51100000000E-03 0.  1.
         12    1    3    3    0    0  0.11370619939E+02 -0.59193320536E+01 -0.30153750660E+01  0.13168977810E+02  0.00000000000E+00 0. -1.
</event>
<event>
 7    1  0.3041451E-011  0.5052886E+02  0.7816164E-02  0.1300439E+00
        -11   -1    0    0    0    0  0.00000000000E+00  0.00000000000E+00  0.45593999997E+02  0.45594000000E+02  0.51100000000E-03 0.  1.
         11   -1    0    0    0    0 -0.00000000000E+00 -0.00000000000E+00 -0.45593999997E+02  0.45594000000E+02  0.51100000000E-03 0. -1.
    9900012    2    1    2    0    0  0.11685782672E+02  0.36782438262E+02  0.12792972438E+02  0.50528862958E+02  0.30000009448E+02 0.  0.
         12    1    1    2    0    0 -0.11685782672E+02 -0.36782438262E+02 -0.12792972438E+02  0.40659137042E+02  0.00000000000E+00 0. -1.
         11    1    3    3    0    0  0.70815174084E+01  0.12109176869E+02  0.15144733086E+02  0.20643231185E+02  0.51100000000E-03 0. -1.
        -11    1    3    3    0    0  0.80956042298E+01  0.14738567693E+02 -0.72007914914E+01  0.18292500754E+02  0.51100000000E-03 0.  1.
        -12    1    3    3    0    0 -0.34913389658E+01  0.99346937008E+01  0.48490308427E+01  0.11593131019E+02  0.00000000000E+00 0.  1.
</event>
<event>
 7    1  0.3041451E-011  0.5052883E+02  0.7816164E-02  0.1300439E+00
        -11   -1    0    0    0    0  0.00000000000E+00  0.00000000000E+00  0.45593999997E+02  0.45594000000E+02  0.51100000000E-03 0. -1.
         11   -1    0    0    0    0 -0.00000000000E+00 -0.00000000000E+00 -0.45593999997E+02  0.45594000000E+02  0.51100000000E-03 0.  1.
    9900012    2    1    2    0    0 -0.23552498679E+02 -0.24943688486E+02 -0.21823385578E+02  0.50528831939E+02  0.29999915162E+02 0.  0.
         12    1    1    2    0    0  0.23552498679E+02  0.24943688486E+02  0.21823385578E+02  0.40659168061E+02  0.00000000000E+00 0. -1.
         11    1    3    3    0    0 -0.15865374696E+02  0.18460906466E+01 -0.39288833707E+01  0.16448534577E+02  0.51100000000E-03 0. -1.
        -11    1    3    3    0    0  0.67415591576E+00 -0.85112960957E+01 -0.79015055131E+01  0.11633161095E+02  0.51100000000E-03 0.  1.
        -12    1    3    3    0    0 -0.83612798988E+01 -0.18278483037E+02 -0.99929966943E+01  0.22447136268E+02  0.00000000000E+00 0.  1.
</event>
<event>
 7    1  0.3041451E-011  0.5052886E+02  0.7816164E-02  0.1300439E+00
        -11   -1    0    0    0    0  0.00000000000E+00  0.00000000000E+00  0.45593999997E+02  0.45594000000E+02  0.51100000000E-03 0.  1.
         11   -1    0    0    0    0 -0.00000000000E+00 -0.00000000000E+00 -0.45593999997E+02  0.45594000000E+02  0.51100000000E-03 0. -1.
    9900012    2    1    2    0    0  0.36683378943E+02  0.12174123581E+01  0.17493242617E+02  0.50528856861E+02  0.29999990915E+02 0.  0.
         12    1    1    2    0    0 -0.36683378943E+02 -0.12174123581E+01 -0.17493242617E+02  0.40659143139E+02  0.00000000000E+00 0. -1.
         11    1    3    3    0    0  0.83787752923E+01 -0.63327859513E+01  0.10510881488E+02  0.14858892396E+02  0.51100000000E-03 0. -1.
        -11    1    3    3    0    0  0.30290368111E+02  0.35454455399E+01  0.64088440709E+01  0.31163277539E+02  0.51100000000E-03 0.  1.
        -12    1    3    3    0    0 -0.19857644602E+01  0.40047527695E+01  0.57351705754E+00  0.45066869263E+01  0.00000000000E+00 0.  1.
</event>
<event>
 7    1  0.3041451E-011  0.5052886E+02  0.7816164E-02  0.1300439E+00
        -11   -1    0    0    0    0  0.00000000000E+00  0.00000000000E+00  0.45593999997E+02  0.45594000000E+02  0.51100000000E-03 0. -1.
         11   -1    0    0    0    0 -0.00000000000E+00 -0.00000000000E+00 -0.45593999997E+02  0.45594000000E+02  0.51100000000E-03 0.  1.
    9900012    2    1    2    0    0  0.17782847551E+02 -0.25524890154E+02 -0.26180454294E+02  0.50528857468E+02  0.29999992759E+02 0.  0.
         12    1    1    2    0    0 -0.17782847551E+02  0.25524890154E+02  0.26180454294E+02  0.40659142532E+02  0.00000000000E+00 0. -1.
         11    1    3    3    0    0  0.47438630367E+01  0.25715237250E+01 -0.15703823828E+02  0.16605030980E+02  0.51100000000E-03 0. -1.
        -11    1    3    3    0    0  0.28517658429E+01 -0.15602051617E+02 -0.74417223257E+01  0.17519583743E+02  0.51100000000E-03 0.  1.
        -12    1    3    3    0    0  0.10187218672E+02 -0.12494362263E+02 -0.30349081405E+01  0.16404242745E+02  0.00000000000E+00 0.  1.
</event>
<event>
 7    1  0.3041451E-011  0.5052885E+02  0.7816164E-02  0.1300439E+00
        -11   -1    0    0    0    0  0.00000000000E+00  0.00000000000E+00  0.45593999997E+02  0.45594000000E+02  0.51100000000E-03 0. -1.
         11   -1    0    0    0    0 -0.00000000000E+00 -0.00000000000E+00 -0.45593999997E+02  0.45594000000E+02  0.51100000000E-03 0.  1.
    9900012    2    1    2    0    0 -0.28131621251E+02  0.19545900455E+02  0.21902877009E+02  0.50528851459E+02  0.29999974496E+02 0.  0.
         12    1    1    2    0    0  0.28131621251E+02 -0.19545900455E+02 -0.21902877009E+02  0.40659148541E+02  0.00000000000E+00 0. -1.
         11    1    3    3    0    0  0.25087534783E+01  0.76686329454E+01  0.14883417776E+01  0.82046899255E+01  0.51100000000E-03 0. -1.
        -11    1    3    3    0    0 -0.28247002175E+02  0.53548914579E+01  0.20609168881E+02  0.35373801558E+02  0.51100000000E-03 0.  1.
         12    1    3    3    0    0 -0.23933725543E+01  0.65223760516E+01 -0.19463365017E+00  0.69503599763E+01  0.00000000000E+00 0. -1.
</event>
<event>
 7    1  0.3041451E-011  0.5052886E+02  0.7816164E-02  0.1300439E+00
        -11   -1    0    0    0    0  0.00000000000E+00  0.00000000000E+00  0.45593999997E+02  0.45594000000E+02  0.51100000000E-03 0.  1.
         11   -1    0    0    0    0 -0.00000000000E+00 -0.00000000000E+00 -0.45593999997E+02  0.45594000000E+02  0.51100000000E-03 0. -1.
    9900012    2    1    2    0    0  0.37116838616E+02 -0.10664068198E+02  0.12719428420E+02  0.50528856887E+02  0.29999990994E+02 0.  0.
         12    1    1    2    0    0 -0.37116838616E+02  0.10664068198E+02 -0.12719428420E+02  0.40659143113E+02  0.00000000000E+00 0. -1.
         11    1    3    3    0    0  0.25526866075E+01 -0.89347973729E+01 -0.58329878028E+01  0.10971351784E+02  0.51100000000E-03 0. -1.
        -11    1    3    3    0    0  0.20208267894E+02  0.80114879863E+00  0.12489085183E+02  0.23769585180E+02  0.51100000000E-03 0.  1.
         12    1    3    3    0    0  0.14355884114E+02 -0.25304196241E+01  0.60633310401E+01  0.15787919922E+02  0.00000000000E+00 0. -1.
</event>
<event>
 7    1  0.3041451E-011  0.5052885E+02  0.7816164E-02  0.1300439E+00
        -11   -1    0    0    0    0  0.00000000000E+00  0.00000000000E+00  0.45593999997E+02  0.45594000000E+02  0.51100000000E-03 0.  1.
         11   -1    0    0    0    0 -0.00000000000E+00 -0.00000000000E+00 -0.45593999997E+02  0.45594000000E+02  0.51100000000E-03 0. -1.
    9900012    2    1    2    0    0  0.86041968714E+01 -0.36250495136E+02  0.16279920881E+02  0.50528850657E+02  0.29999972058E+02 0.  0.
         12    1    1    2    0    0 -0.86041968714E+01  0.36250495136E+02 -0.16279920881E+02  0.40659149343E+02  0.00000000000E+00 0. -1.
         11    1    3    3    0    0  0.26978142814E+00  0.31324829198E+01  0.40061432803E+00  0.31694989135E+01  0.51100000000E-03 0. -1.
        -11    1    3    3    0    0  0.79643659915E+01 -0.26481705647E+02  0.19637535235E+02  0.33916731122E+02  0.51100000000E-03 0.  1.
        -12    1    3    3    0    0  0.37004945183E+00 -0.12901272409E+02 -0.37582286821E+01  0.13442620622E+02  0.00000000000E+00 0.  1.
</event>
<event>
 7    1  0.3041451E-011  0.5052886E+02  0.7816164E-02  0.1300439E+00
        -11   -1    0    0    0    0  0.00000000000E+00  0.00000000000E+00  0.45593999997E+02  0.45594000000E+02  0.51100000000E-03 0. -1.
         11   -1    0    0    0    0 -0.00000000000E+00 -0.00000000000E+00 -0.45593999997E+02  0.45594000000E+02  0.51100000000E-03 0.  1.
    9900012    2    1    2    0    0  0.15798477900E+02 -0.36002524288E+02 -0.10363014822E+02  0.50528859142E+02  0.29999997849E+02 0.  0.
         12    1    1    2    0    0 -0.15798477900E+02  0.36002524288E+02  0.10363014822E+02  0.40659140858E+02  0.00000000000E+00 0. -1.
         11    1    3    3    0    0  0.54770542695E+01 -0.64769462704E+01 -0.62939869611E+01  0.10562349577E+02  0.51100000000E-03 0. -1.
        -11    1    3    3    0    0  0.32692316897E+01  0.79637494912E+00  0.63096547011E+01  0.71507923763E+01  0.51100000000E-03 0.  1.
        -12    1    3    3    0    0  0.70521919404E+01 -0.30321952967E+02 -0.10378682562E+02  0.32815717189E+02  0.00000000000E+00 0.  1.
</event>
<event>
 7    1  0.3041451E-011  0.5052897E+02  0.7816164E-02  0.1300438E+00
        -11   -1    0    0    0    0  0.00000000000E+00  0.00000000000E+00  0.45593999997E+02  0.45594000000E+02  0.51100000000E-03 0.  1.
         11   -1    0    0    0    0 -0.00000000000E+00 -0.00000000000E+00 -0.45593999997E+02  0.45594000000E+02  0.51100000000E-03 0. -1.
    9900012    2    1    2    0    0 -0.24869522885E+02 -0.25063185611E+02  0.20161860224E+02  0.50528965958E+02  0.30000322525E+02 0.  0.
         12    1    1    2    0    0  0.24869522885E+02  0.25063185611E+02 -0.20161860224E+02  0.40659034042E+02  0.00000000000E+00 0. -1.
         11    1    3    3    0    0 -0.38845136661E+01 -0.56776630648E+01 -0.73314812542E+01  0.10053652169E+02  0.51100000000E-03 0. -1.
        -11    1    3    3    0    0 -0.10578027811E+02 -0.14796129366E+02  0.18810316059E+02  0.26165781225E+02  0.51100000000E-03 0.  1.
         12    1    3    3    0    0 -0.10406981408E+02 -0.45893931801E+01  0.86830254187E+01  0.14309532564E+02  0.00000000000E+00 0. -1.
</event>
<event>
 7    1  0.3041451E-011  0.5052885E+02  0.7816164E-02  0.1300439E+00
        -11   -1    0    0    0    0  0.00000000000E+00  0.00000000000E+00  0.45593999997E+02  0.45594000000E+02  0.51100000000E-03 0.  1.
         11   -1    0    0    0    0 -0.00000000000E+00 -0.00000000000E+00 -0.45593999997E+02  0.45594000000E+02  0.51100000000E-03 0. -1.
    9900012    2    1    2    0    0 -0.30253183941E+02  0.19835774562E+02  0.18559457695E+02  0.50528848988E+02  0.29999966985E+02 0.  0.
         12    1    1    2    0    0  0.30253183941E+02 -0.19835774562E+02 -0.18559457695E+02  0.40659151012E+02  0.00000000000E+00 0. -1.
         11    1    3    3    0    0 -0.59082374577E+01 -0.90342447820E-01  0.12598479211E+02  0.13915355199E+02  0.51100000000E-03 0. -1.
        -11    1    3    3    0    0 -0.20302027049E+02  0.18598951602E+02 -0.19796820816E+01  0.27604572889E+02  0.51100000000E-03 0.  1.
        -12    1    3    3    0    0 -0.40429194338E+01  0.13271654083E+01  0.79406605659E+01  0.90089209005E+01  0.00000000000E+00 0.  1.
</event>
<event>
 7    1  0.3041451E-011  0.5052885E+02  0.7816164E-02  0.1300439E+00
        -11   -1    0    0    0    0  0.00000000000E+00  0.00000000000E+00  0.45593999997E+02  0.45594000000E+02  0.51100000000E-03 0.  1.
         11   -1    0    0    0    0 -0.00000000000E+00 -0.00000000000E+00 -0.45593999997E+02  0.45594000000E+02  0.51100000000E-03 0. -1.
    9900012    2    1    2    0    0  0.38954795714E+02 -0.75092361309E+01  0.89051363412E+01  0.50528853555E+02  0.29999980867E+02 0.  0.
         12    1    1    2    0    0 -0.38954795714E+02  0.75092361309E+01 -0.89051363412E+01  0.40659146445E+02  0.00000000000E+00 0. -1.
         11    1    3    3    0    0  0.13245395079E+02 -0.65381979678E+01 -0.38380155904E+01  0.15261680360E+02  0.51100000000E-03 0. -1.
        -11    1    3    3    0    0  0.21136877351E+02  0.59252381974E+01  0.15123653022E+02  0.26657098732E+02  0.51100000000E-03 0.  1.
        -12    1    3    3    0    0  0.45725232834E+01 -0.68962763605E+01 -0.23805010903E+01  0.86100744630E+01  0.00000000000E+00 0.  1.
</event>
<event>
 7    1  0.3041451E-011  0.5052886E+02  0.7816164E-02  0.1300439E+00
        -11   -1    0    0    0    0  0.00000000000E+00  0.00000000000E+00  0.45593999997E+02  0.45594000000E+02  0.51100000000E-03 0.  1.
         11   -1    0    0    0    0 -0.00000000000E+00 -0.00000000000E+00 -0.45593999997E+02  0.45594000000E+02  0.51100000000E-03 0. -1.
    9900012    2    1    2    0    0  0.24786184088E+02  0.16769218848E+02  0.27524612170E+02  0.50528857147E+02  0.29999991785E+02 0.  0.
         12    1    1    2    0    0 -0.24786184088E+02 -0.16769218848E+02 -0.27524612170E+02  0.40659142853E+02  0.00000000000E+00 0. -1.
         11    1    3    3    0    0  0.21858821377E+01  0.22656122469E+01  0.21379419828E+02  0.21609966961E+02  0.51100000000E-03 0. -1.
        -11    1    3    3    0    0  0.18222309068E+02  0.15197036164E+02  0.42834264397E+01  0.24111204828E+02  0.51100000000E-03 0.  1.
        -12    1    3    3    0    0  0.43779928825E+01 -0.69342956288E+00  0.18617659016E+01  0.48076853589E+01  0.00000000000E+00 0.  1.
</event>
<event>
 7    1  0.3041451E-011  0.5052885E+02  0.7816164E-02  0.1300439E+00
        -11   -1    0    0    0    0  0.00000000000E+00  0.00000000000E+00  0.45593999997E+02  0.45594000000E+02  0.51100000000E-03 0.  1.
         11   -1    0    0    0    0 -0.00000000000E+00 -0.00000000000E+00 -0.45593999997E+02  0.45594000000E+02  0.51100000000E-03 0. -1.
    9900012    2    1    2    0    0 -0.64952147355E+00  0.24769671390E+02  0.32236743357E+02  0.50528854397E+02  0.29999983426E+02 0.  0.
         12    1    1    2    0    0  0.64952147355E+00 -0.24769671390E+02 -0.32236743357E+02  0.40659145603E+02  0.00000000000E+00 0. -1.
         11    1    3    3    0    0 -0.12358242504E+02  0.44882683082E+01  0.64645389503E+01  0.14651313057E+02  0.51100000000E-03 0. -1.
        -11    1    3    3    0    0  0.67189146872E+01  0.12536021697E+02  0.21359736733E+02  0.25661917468E+02  0.51100000000E-03 0.  1.
        -12    1    3    3    0    0  0.49898063432E+01  0.77453813849E+01  0.44124676734E+01  0.10215623873E+02  0.00000000000E+00 0.  1.
</event>
<event>
 7    1  0.3041451E-011  0.5052886E+02  0.7816164E-02  0.1300439E+00
        -11   -1    0    0    0    0  0.00000000000E+00  0.00000000000E+00  0.45593999997E+02  0.45594000000E+02  0.51100000000E-03 0.  1.
         11   -1    0    0    0    0 -0.00000000000E+00 -0.00000000000E+00 -0.45593999997E+02  0.45594000000E+02  0.51100000000E-03 0. -1.
    9900012    2    1    2    0    0 -0.46189941490E+01 -0.34753554051E+02  0.20591769298E+02  0.50528860942E+02  0.30000003318E+02 0.  0.
         12    1    1    2    0    0  0.46189941490E+01  0.34753554051E+02 -0.20591769298E+02  0.40659139058E+02  0.00000000000E+00 0. -1.
         11    1    3    3    0    0  0.20477221468E+01  0.16265274078E+01  0.10280455707E+01  0.28099173218E+01  0.51100000000E-03 0. -1.
        -11    1    3    3    0    0 -0.62120581585E+01 -0.38405986238E+02  0.13293004409E+02  0.41113421312E+02  0.51100000000E-03 0.  1.
        -12    1    3    3    0    0 -0.45465813727E+00  0.20259047788E+01  0.62707193181E+01  0.66055223080E+01  0.00000000000E+00 0.  1.
</event>
<event>
 7    1  0.3041451E-011  0.5052887E+02  0.7816164E-02  0.1300439E+00
        -11   -1    0    0    0    0  0.00000000000E+00  0.00000000000E+00  0.45593999997E+02  0.45594000000E+02  0.51100000000E-03 0. -1.
         11   -1    0    0    0    0 -0.00000000000E+00 -0.00000000000E+00 -0.45593999997E+02  0.45594000000E+02  0.51100000000E-03 0.  1.
    9900012    2    1    2    0    0  0.38183134073E+02  0.12986912423E+02  0.51530190213E+01  0.50528865393E+02  0.30000016849E+02 0.  0.
         12    1    1    2    0    0 -0.38183134073E+02 -0.12986912423E+02 -0.51530190213E+01  0.40659134607E+02  0.00000000000E+00 0. -1.
         11    1    3    3    0    0  0.20147886981E+02  0.16285123841E+02  0.22999374158E+01  0.26008312531E+02  0.51100000000E-03 0. -1.
        -11    1    3    3    0    0  0.52519228589E+01 -0.51612738409E+01  0.77637254250E+01  0.10700321215E+02  0.51100000000E-03 0.  1.
        -12    1    3    3    0    0  0.12783324233E+02  0.18630624225E+01 -0.49106438195E+01  0.13820231647E+02  0.00000000000E+00 0.  1.
</event>
<event>
 7    1  0.3041451E-011  0.5052885E+02  0.7816164E-02  0.1300439E+00
        -11   -1    0    0    0    0  0.00000000000E+00  0.00000000000E+00  0.45593999997E+02  0.45594000000E+02  0.51100000000E-03 0.  1.
         11   -1    0    0    0    0 -0.00000000000E+00 -0.00000000000E+00 -0.45593999997E+02  0.45594000000E+02  0.51100000000E-03 0. -1.
    9900012    2    1    2    0    0 -0.86149101100E+01 -0.16543984771E+02  0.36128191169E+02  0.50528852131E+02  0.29999976537E+02 0.  0.
         12    1    1    2    0    0  0.86149101100E+01  0.16543984771E+02 -0.36128191169E+02  0.40659147869E+02  0.00000000000E+00 0. -1.
         11    1    3    3    0    0  0.33690047187E+00  0.17599378837E+01  0.37692570143E+01  0.41735095523E+01  0.51100000000E-03 0. -1.
        -11    1    3    3    0    0  0.85979066417E+01 -0.89770746894E+01  0.17836766370E+02  0.21740793532E+02  0.51100000000E-03 0.  1.
        -12    1    3    3    0    0 -0.17549717224E+02 -0.93268479654E+01  0.14522167784E+02  0.24614549046E+02  0.00000000000E+00 0.  1.
</event>
<event>
 7    1  0.3041451E-011  0.5052886E+02  0.7816164E-02  0.1300439E+00
        -11   -1    0    0    0    0  0.00000000000E+00  0.00000000000E+00  0.45593999997E+02  0.45594000000E+02  0.51100000000E-03 0.  1.
         11   -1    0    0    0    0 -0.00000000000E+00 -0.00000000000E+00 -0.45593999997E+02  0.45594000000E+02  0.51100000000E-03 0. -1.
    9900012    2    1    2    0    0  0.25500660264E+02 -0.30936628582E+02  0.67680751919E+01  0.50528861990E+02  0.30000006505E+02 0.  0.
         12    1    1    2    0    0 -0.25500660264E+02  0.30936628582E+02 -0.67680751919E+01  0.40659138010E+02  0.00000000000E+00 0. -1.
         11    1    3    3    0    0  0.29959497318E+02 -0.25195397915E+02  0.17652083656E+01  0.39185399277E+02  0.51100000000E-03 0. -1.
        -11    1    3    3    0    0 -0.38115680495E+00 -0.44015605810E+00  0.46071550034E+01  0.46438018209E+01  0.51100000000E-03 0.  1.
         12    1    3    3    0    0 -0.40776802495E+01 -0.53010746091E+01  0.39571182289E+00  0.66996608926E+01  0.00000000000E+00 0. -1.
</event>
<event>
 7    1  0.3041451E-011  0.5052889E+02  0.7816164E-02  0.1300439E+00
        -11   -1    0    0    0    0  0.00000000000E+00  0.00000000000E+00  0.45593999997E+02  0.45594000000E+02  0.51100000000E-03 0.  1.
         11   -1    0    0    0    0 -0.00000000000E+00 -0.00000000000E+00 -0.45593999997E+02  0.45594000000E+02  0.51100000000E-03 0. -1.
    9900012    2    1    2    0    0 -0.16183243602E+02 -0.20246286678E+01  0.37244688682E+02  0.50528888724E+02  0.30000087765E+02 0.  0.
         12    1    1    2    0    0  0.16183243602E+02  0.20246286678E+01 -0.37244688682E+02  0.40659111276E+02  0.00000000000E+00 0. -1.
         11    1    3    3    0    0 -0.11295715503E+02 -0.90258784653E+01  0.36075334639E+02  0.38865015636E+02  0.51100000000E-03 0.  1.
        -11    1    3    3    0    0 -0.54503072848E+01  0.55025382952E+01 -0.20991673117E+01  0.80243554789E+01  0.51100000000E-03 0. -1.
        -12    1    3    3    0    0  0.56277918593E+00  0.14987115023E+01  0.32685213547E+01  0.36395176089E+01  0.00000000000E+00 0.  1.
</event>
<event>
 7    1  0.3041451E-011  0.5052886E+02  0.7816164E-02  0.1300439E+00
        -11   -1    0    0    0    0  0.00000000000E+00  0.00000000000E+00  0.45593999997E+02  0.45594000000E+02  0.51100000000E-03 0.  1.
         11   -1    0    0    0    0 -0.00000000000E+00 -0.00000000000E+00 -0.45593999997E+02  0.45594000000E+02  0.51100000000E-03 0. -1.
    9900012    2    1    2    0    0  0.86971046728E+01 -0.13691346367E+02  0.37283681283E+02  0.50528862220E+02  0.30000007204E+02 0.  0.
         12    1    1    2    0    0 -0.86971046728E+01  0.13691346367E+02 -0.37283681283E+02  0.40659137780E+02  0.00000000000E+00 0. -1.
         11    1    3    3    0    0  0.47504233468E+01  0.74628835045E+01  0.55144343927E+01  0.10424497067E+02  0.51100000000E-03 0. -1.
        -11    1    3    3    0    0  0.37783293133E+01 -0.13841262813E+02  0.28864613726E+02  0.32233868128E+02  0.51100000000E-03 0.  1.
         12    1    3    3    0    0  0.16835201272E+00 -0.73129670585E+01  0.29046331639E+01  0.78704970247E+01  0.00000000000E+00 0. -1.
</event>
<event>
 7    1  0.3041451E-011  0.5052885E+02  0.7816164E-02  0.1300439E+00
        -11   -1    0    0    0    0  0.00000000000E+00  0.00000000000E+00  0.45593999997E+02  0.45594000000E+02  0.51100000000E-03 0.  1.
         11   -1    0    0    0    0 -0.00000000000E+00 -0.00000000000E+00 -0.45593999997E+02  0.45594000000E+02  0.51100000000E-03 0. -1.
    9900012    2    1    2    0    0 -0.29872422278E+02 -0.24126342969E+02  0.13368796847E+02  0.50528846455E+02  0.29999959286E+02 0.  0.
         12    1    1    2    0    0  0.29872422278E+02  0.24126342969E+02 -0.13368796847E+02  0.40659153545E+02  0.00000000000E+00 0. -1.
         11    1    3    3    0    0 -0.12723819315E+02 -0.85441428500E+01 -0.40952651013E+01  0.15864083696E+02  0.51100000000E-03 0. -1.
        -11    1    3    3    0    0  0.35379484479E+01 -0.58887930195E+01  0.59197473792E+01  0.90685374643E+01  0.51100000000E-03 0.  1.
        -12    1    3    3    0    0 -0.20686551411E+02 -0.96934070998E+01  0.11544314570E+02  0.25596225295E+02  0.00000000000E+00 0.  1.
</event>
<event>
 7    1  0.3041451E-011  0.5052885E+02  0.7816164E-02  0.1300439E+00
        -11   -1    0    0    0    0  0.00000000000E+00  0.00000000000E+00  0.45593999997E+02  0.45594000000E+02  0.51100000000E-03 0. -1.
         11   -1    0    0    0    0 -0.00000000000E+00 -0.00000000000E+00 -0.45593999997E+02  0.45594000000E+02  0.51100000000E-03 0.  1.
    9900012    2    1    2    0    0  0.26152809118E+02 -0.23033892924E+02 -0.20943665127E+02  0.50528846579E+02  0.29999959660E+02 0.  0.
         12    1    1    2    0    0 -0.26152809118E+02  0.23033892924E+02  0.20943665127E+02  0.40659153421E+02  0.00000000000E+00 0. -1.
         11    1    3    3    0    0 -0.21261249043E+01 -0.36394154353E+01 -0.58681561773E+01  0.72250265745E+01  0.51100000000E-03 0. -1.
        -11    1    3    3    0    0  0.22974309044E+02 -0.22935345270E+02 -0.16996080755E+02  0.36643085295E+02  0.51100000000E-03 0.  1.
        -12    1    3    3    0    0  0.53046249785E+01  0.35408677809E+01  0.19205718049E+01  0.66607347088E+01  0.00000000000E+00 0.  1.
</event>
<event>
 7    1  0.3041451E-011  0.5052885E+02  0.7816164E-02  0.1300439E+00
        -11   -1    0    0    0    0  0.00000000000E+00  0.00000000000E+00  0.45593999997E+02  0.45594000000E+02  0.51100000000E-03 0.  1.
         11   -1    0    0    0    0 -0.00000000000E+00 -0.00000000000E+00 -0.45593999997E+02  0.45594000000E+02  0.51100000000E-03 0. -1.
    9900012    2    1    2    0    0 -0.94962625327E+01  0.51698525123E+01  0.39195150647E+02  0.50528853288E+02  0.29999980054E+02 0.  0.
         12    1    1    2    0    0  0.94962625327E+01 -0.51698525123E+01 -0.39195150647E+02  0.40659146712E+02  0.00000000000E+00 0. -1.
         11    1    3    3    0    0 -0.96910340595E-01  0.15826862647E+02  0.17586643183E+02  0.23659860346E+02  0.51100000000E-03 0. -1.
        -11    1    3    3    0    0 -0.43477266133E+01 -0.26038420868E+01  0.13338458922E+02  0.14268749315E+02  0.51100000000E-03 0.  1.
         12    1    3    3    0    0 -0.50516255788E+01 -0.80531680479E+01  0.82700485417E+01  0.12600243628E+02  0.00000000000E+00 0. -1.
</event>
<event>
 7    1  0.3041451E-011  0.5052885E+02  0.7816164E-02  0.1300439E+00
        -11   -1    0    0    0    0  0.00000000000E+00  0.00000000000E+00  0.45593999997E+02  0.45594000000E+02  0.51100000000E-03 0.  1.
         11   -1    0    0    0    0 -0.00000000000E+00 -0.00000000000E+00 -0.45593999997E+02  0.45594000000E+02  0.51100000000E-03 0. -1.
    9900012    2    1    2    0    0  0.39896547306E+02  0.78195839821E+01 -0.53513176484E+00  0.50528846706E+02  0.29999960048E+02 0.  0.
         12    1    1    2    0    0 -0.39896547306E+02 -0.78195839821E+01  0.53513176484E+00  0.40659153294E+02  0.00000000000E+00 0. -1.
         11    1    3    3    0    0  0.21231069193E+02  0.63107438840E+01 -0.13313646622E+02  0.25842541943E+02  0.51100000000E-03 0. -1.
        -11    1    3    3    0    0  0.16362293900E+02  0.17722840190E+01  0.59921127079E+01  0.17514881309E+02  0.51100000000E-03 0.  1.
         12    1    3    3    0    0  0.23031842128E+01 -0.26344392092E+00  0.67864021496E+01  0.71714234538E+01  0.00000000000E+00 0. -1.
</event>
<event>
 7    1  0.3041451E-011  0.5052886E+02  0.7816164E-02  0.1300439E+00
        -11   -1    0    0    0    0  0.00000000000E+00  0.00000000000E+00  0.45593999997E+02  0.45594000000E+02  0.51100000000E-03 0.  1.
         11   -1    0    0    0    0 -0.00000000000E+00 -0.00000000000E+00 -0.45593999997E+02  0.45594000000E+02  0.51100000000E-03 0. -1.
    9900012    2    1    2    0    0  0.14243918716E+01 -0.17752309804E+02  0.36551229502E+02  0.50528858670E+02  0.29999996413E+02 0.  0.
         12    1    1    2    0    0 -0.14243918716E+01  0.17752309804E+02 -0.36551229502E+02  0.40659141330E+02  0.00000000000E+00 0. -1.
         11    1    3    3    0    0 -0.38376936699E+01 -0.18239014061E+02  0.21110428382E+02  0.28160960803E+02  0.51100000000E-03 0. -1.
        -11    1    3    3    0    0  0.97525084634E+01 -0.67594849402E+00  0.14724743107E+02  0.17674455791E+02  0.51100000000E-03 0.  1.
        -12    1    3    3    0    0 -0.44904229218E+01  0.11626527509E+01  0.71605801341E+00  0.46934420753E+01  0.00000000000E+00 0.  1.
</event>
<event>
 7    1  0.3041451E-011  0.5052887E+02  0.7816164E-02  0.1300439E+00
        -11   -1    0    0    0    0  0.00000000000E+00  0.00000000000E+00  0.45593999997E+02  0.45594000000E+02  0.51100000000E-03 0. -1.
         11   -1    0    0    0    0 -0.00000000000E+00 -0.00000000000E+00 -0.45593999997E+02  0.45594000000E+02  0.51100000000E-03 0.  1.
    9900012    2    1    2    0    0 -0.86504678827E+01  0.23516608088E+02 -0.32020361727E+02  0.50528867991E+02  0.30000024746E+02 0.  0.
         12    1    1    2    0    0  0.86504678827E+01 -0.23516608088E+02  0.32020361727E+02  0.40659132009E+02  0.00000000000E+00 0. -1.
         11    1    3    3    0    0 -0.19165688171E+01 -0.67636184883E+01 -0.65180378877E+01  0.95866881274E+01  0.51100000000E-03 0. -1.
        -11    1    3    3    0    0 -0.59931117794E+01  0.94777227680E+01 -0.90120906450E+01  0.14386187672E+02  0.51100000000E-03 0.  1.
         12    1    3    3    0    0 -0.74078728616E+00  0.20802503808E+02 -0.16490233195E+02  0.26555992192E+02  0.00000000000E+00 0. -1.
</event>
<event>
 7    1  0.3041451E-011  0.5052886E+02  0.7816164E-02  0.1300439E+00
        -11   -1    0    0    0    0  0.00000000000E+00  0.00000000000E+00  0.45593999997E+02  0.45594000000E+02  0.51100000000E-03 0. -1.
         11   -1    0    0    0    0 -0.00000000000E+00 -0.00000000000E+00 -0.45593999997E+02  0.45594000000E+02  0.51100000000E-03 0.  1.
    9900012    2    1    2    0    0 -0.15800757921E+02  0.35963411833E+02 -0.10494506323E+02  0.50528860750E+02  0.30000002736E+02 0.  0.
         12    1    1    2    0    0  0.15800757921E+02 -0.35963411833E+02  0.10494506323E+02  0.40659139250E+02  0.00000000000E+00 0. -1.
         11    1    3    3    0    0  0.33155207809E+01  0.35829100341E+01  0.68301468191E+01  0.83952860698E+01  0.51100000000E-03 0. -1.
        -11    1    3    3    0    0 -0.92005844152E+01  0.21493678309E+02 -0.13164593617E+02  0.26831613559E+02  0.51100000000E-03 0.  1.
         12    1    3    3    0    0 -0.99156942868E+01  0.10886823491E+02 -0.41600595258E+01  0.15301961121E+02  0.00000000000E+00 0. -1.
</event>
<event>
 7    1  0.3041451E-011  0.5052891E+02  0.7816164E-02  0.1300439E+00
        -11   -1    0    0    0    0  0.00000000000E+00  0.00000000000E+00  0.45593999997E+02  0.45594000000E+02  0.51100000000E-03 0. -1.
         11   -1    0    0    0    0 -0.00000000000E+00 -0.00000000000E+00 -0.45593999997E+02  0.45594000000E+02  0.51100000000E-03 0.  1.
    9900012    2    1    2    0    0  0.31345620382E+02  0.21080894615E+02 -0.15040273764E+02  0.50528906677E+02  0.30000142336E+02 0.  0.
         12    1    1    2    0    0 -0.31345620382E+02 -0.21080894615E+02  0.15040273764E+02  0.40659093323E+02  0.00000000000E+00 0. -1.
         11    1    3    3    0    0  0.12080073040E+01  0.11929713601E+02  0.29848995166E+01  0.12356657058E+02  0.51100000000E-03 0. -1.
        -11    1    3    3    0    0  0.84953532517E+01  0.68608011572E+01 -0.10488690102E+02  0.15141143937E+02  0.51100000000E-03 0.  1.
         12    1    3    3    0    0  0.21642259827E+02  0.22903798566E+01 -0.75364831777E+01  0.23031105683E+02  0.00000000000E+00 0. -1.
</event>
<event>
 7    1  0.3041451E-011  0.5052886E+02  0.7816164E-02  0.1300439E+00
        -11   -1    0    0    0    0  0.00000000000E+00  0.00000000000E+00  0.45593999997E+02  0.45594000000E+02  0.51100000000E-03 0. -1.
         11   -1    0    0    0    0 -0.00000000000E+00 -0.00000000000E+00 -0.45593999997E+02  0.45594000000E+02  0.51100000000E-03 0.  1.
    9900012    2    1    2    0    0  0.67856107164E+01  0.40084799949E+02  0.57449970829E+00  0.50528858966E+02  0.29999997312E+02 0.  0.
         12    1    1    2    0    0 -0.67856107164E+01 -0.40084799949E+02 -0.57449970829E+00  0.40659141034E+02  0.00000000000E+00 0. -1.
         11    1    3    3    0    0  0.11896406864E+02  0.11659435861E+02 -0.14116723166E+01  0.16717049975E+02  0.51100000000E-03 0. -1.
        -11    1    3    3    0    0 -0.10527198900E+02  0.99460199785E+01  0.36968863211E+00  0.14487301338E+02  0.51100000000E-03 0.  1.
        -12    1    3    3    0    0  0.54164027531E+01  0.18479344109E+02  0.16164833928E+01  0.19324507653E+02  0.00000000000E+00 0.  1.
</event>
<event>
 7    1  0.3041451E-011  0.5052886E+02  0.7816164E-02  0.1300439E+00
        -11   -1    0    0    0    0  0.00000000000E+00  0.00000000000E+00  0.45593999997E+02  0.45594000000E+02  0.51100000000E-03 0.  1.
         11   -1    0    0    0    0 -0.00000000000E+00 -0.00000000000E+00 -0.45593999997E+02  0.45594000000E+02  0.51100000000E-03 0. -1.
    9900012    2    1    2    0    0  0.33369913139E+02  0.18806178494E+02  0.13636064603E+02  0.50528859450E+02  0.29999998783E+02 0.  0.
         12    1    1    2    0    0 -0.33369913139E+02 -0.18806178494E+02 -0.13636064603E+02  0.40659140550E+02  0.00000000000E+00 0. -1.
         11    1    3    3    0    0  0.69784441861E+01  0.85198766655E+01  0.19964267112E+01  0.11192528826E+02  0.51100000000E-03 0. -1.
        -11    1    3    3    0    0  0.19958752253E+02 -0.51724218126E+01  0.43364371035E+01  0.21069181899E+02  0.51100000000E-03 0.  1.
        -12    1    3    3    0    0  0.64327166999E+01  0.15458723641E+02  0.73032007883E+01  0.18267148724E+02  0.00000000000E+00 0.  1.
</event>
<event>
 7    1  0.3041451E-011  0.5052886E+02  0.7816164E-02  0.1300439E+00
        -11   -1    0    0    0    0  0.00000000000E+00  0.00000000000E+00  0.45593999997E+02  0.45594000000E+02  0.51100000000E-03 0.  1.
         11   -1    0    0    0    0 -0.00000000000E+00 -0.00000000000E+00 -0.45593999997E+02  0.45594000000E+02  0.51100000000E-03 0. -1.
    9900012    2    1    2    0    0  0.26707372685E+01  0.16382358263E+02  0.37116728332E+02  0.50528855618E+02  0.29999987137E+02 0.  0.
         12    1    1    2    0    0 -0.26707372685E+01 -0.16382358263E+02 -0.37116728332E+02  0.40659144382E+02  0.00000000000E+00 0. -1.
         11    1    3    3    0    0 -0.11090828298E+02  0.64709645720E+01  0.93760686025E+01  0.15899387332E+02  0.51100000000E-03 0. -1.
        -11    1    3    3    0    0  0.10131206378E+02  0.12629262088E+02  0.21450747756E+02  0.26875159220E+02  0.51100000000E-03 0.  1.
         12    1    3    3    0    0  0.36303591886E+01 -0.27178683971E+01  0.62899119730E+01  0.77543090660E+01  0.00000000000E+00 0. -1.
</event>
<event>
 7    1  0.3041451E-011  0.5052886E+02  0.7816164E-02  0.1300439E+00
        -11   -1    0    0    0    0  0.00000000000E+00  0.00000000000E+00  0.45593999997E+02  0.45594000000E+02  0.51100000000E-03 0. -1.
         11   -1    0    0    0    0 -0.00000000000E+00 -0.00000000000E+00 -0.45593999997E+02  0.45594000000E+02  0.51100000000E-03 0.  1.
    9900012    2    1    2    0    0 -0.39974983650E+02  0.72958499136E+01 -0.13916985795E+01  0.50528861191E+02  0.30000004076E+02 0.  0.
         12    1    1    2    0    0  0.39974983650E+02 -0.72958499136E+01  0.13916985795E+01  0.40659138809E+02  0.00000000000E+00 0. -1.
         11    1    3    3    0    0  0.79971990001E+00  0.13589222227E+01  0.19610757433E+01  0.25163544778E+01  0.51100000000E-03 0. -1.
        -11    1    3    3    0    0 -0.23728335565E+02 -0.45963136817E+01 -0.11012788370E+02  0.26560149023E+02  0.51100000000E-03 0.  1.
        -12    1    3    3    0    0 -0.17046367985E+02  0.10533241373E+02  0.76600140473E+01  0.21452357691E+02  0.00000000000E+00 0.  1.
</event>
<event>
 7    1  0.3041451E-011  0.5052886E+02  0.7816164E-02  0.1300439E+00
        -11   -1    0    0    0    0  0.00000000000E+00  0.00000000000E+00  0.45593999997E+02  0.45594000000E+02  0.51100000000E-03 0.  1.
         11   -1    0    0    0    0 -0.00000000000E+00 -0.00000000000E+00 -0.45593999997E+02  0.45594000000E+02  0.51100000000E-03 0. -1.
    9900012    2    1    2    0    0 -0.14129911147E+02  0.34564601470E+02  0.16087245875E+02  0.50528861499E+02  0.30000005013E+02 0.  0.
         12    1    1    2    0    0  0.14129911147E+02 -0.34564601470E+02 -0.16087245875E+02  0.40659138501E+02  0.00000000000E+00 0. -1.
         11    1    3    3    0    0 -0.18329677575E+01  0.12889735533E+00 -0.40301890862E+01  0.44293125494E+01  0.51100000000E-03 0. -1.
        -11    1    3    3    0    0 -0.79940395331E+01  0.35872375816E+02  0.16448614596E+02  0.40265232361E+02  0.51100000000E-03 0.  1.
        -12    1    3    3    0    0 -0.43029038566E+01 -0.14366717016E+01  0.36688203655E+01  0.58343165882E+01  0.00000000000E+00 0.  1.
</event>
<event>
 7    1  0.3041451E-011  0.5052885E+02  0.7816164E-02  0.1300439E+00
        -11   -1    0    0    0    0  0.00000000000E+00  0.00000000000E+00  0.45593999997E+02  0.45594000000E+02  0.51100000000E-03 0. -1.
         11   -1    0    0    0    0 -0.00000000000E+00 -0.00000000000E+00 -0.45593999997E+02  0.45594000000E+02  0.51100000000E-03 0.  1.
    9900012    2    1    2    0    0 -0.31513834389E+02 -0.18395729197E+02 -0.17934372290E+02  0.50528851952E+02  0.29999975993E+02 0.  0.
         12    1    1    2    0    0  0.31513834389E+02  0.18395729197E+02  0.17934372290E+02  0.40659148048E+02  0.00000000000E+00 0. -1.
         11    1    3    3    0    0 -0.37913975604E+01  0.78737999390E+01 -0.15073229451E+01  0.88681138729E+01  0.51100000000E-03 0. -1.
        -11    1    3    3    0    0 -0.22229333641E+02 -0.22358765546E+02 -0.13104798730E+02  0.34143717151E+02  0.51100000000E-03 0.  1.
         12    1    3    3    0    0 -0.54931031874E+01 -0.39107635900E+01 -0.33222506148E+01  0.75170209280E+01  0.00000000000E+00 0. -1.
</event>
<event>
 7    1  0.3041451E-011  0.5052886E+02  0.7816164E-02  0.1300439E+00
        -11   -1    0    0    0    0  0.00000000000E+00  0.00000000000E+00  0.45593999997E+02  0.45594000000E+02  0.51100000000E-03 0.  1.
         11   -1    0    0    0    0 -0.00000000000E+00 -0.00000000000E+00 -0.45593999997E+02  0.45594000000E+02  0.51100000000E-03 0. -1.
    9900012    2    1    2    0    0  0.26618098403E+01  0.12163203311E+01  0.40553680214E+02  0.50528860244E+02  0.30000001198E+02 0.  0.
         12    1    1    2    0    0 -0.26618098403E+01 -0.12163203311E+01 -0.40553680214E+02  0.40659139756E+02  0.00000000000E+00 0. -1.
         11    1    3    3    0    0 -0.43611926155E+01 -0.10859548970E+02  0.81523605871E+01  0.14262215405E+02  0.51100000000E-03 0. -1.
        -11    1    3    3    0    0  0.47788947689E+01  0.83925457129E+01  0.29570160009E+02  0.31107346753E+02  0.51100000000E-03 0.  1.
         12    1    3    3    0    0  0.22441076868E+01  0.36833235880E+01  0.28311596179E+01  0.51592980866E+01  0.00000000000E+00 0. -1.
</event>
<event>
 7    1  0.3041451E-011  0.5052887E+02  0.7816164E-02  0.1300439E+00
        -11   -1    0    0    0    0  0.00000000000E+00  0.00000000000E+00  0.45593999997E+02  0.45594000000E+02  0.51100000000E-03 0.  1.
         11   -1    0    0    0    0 -0.00000000000E+00 -0.00000000000E+00 -0.45593999997E+02  0.45594000000E+02  0.51100000000E-03 0. -1.
    9900012    2    1    2    0    0 -0.51973314656E+01  0.17145031620E+02  0.36499325258E+02  0.50528866857E+02  0.30000021300E+02 0.  0.
         12    1    1    2    0    0  0.51973314656E+01 -0.17145031620E+02 -0.36499325258E+02  0.40659133143E+02  0.00000000000E+00 0. -1.
         11    1    3    3    0    0  0.68938654308E+01 -0.30190275330E+01  0.18438697803E+02  0.19915458437E+02  0.51100000000E-03 0. -1.
        -11    1    3    3    0    0 -0.98519624481E+01  0.17316872212E+02  0.11200681300E+02  0.22855863343E+02  0.51100000000E-03 0.  1.
         12    1    3    3    0    0 -0.22392344484E+01  0.28471869416E+01  0.68599461542E+01  0.77575450777E+01  0.00000000000E+00 0. -1.
</event>
<event>
 7    1  0.3041451E-011  0.5052888E+02  0.7816164E-02  0.1300439E+00
        -11   -1    0    0    0    0  0.00000000000E+00  0.00000000000E+00  0.45593999997E+02  0.45594000000E+02  0.51100000000E-03 0. -1.
         11   -1    0    0    0    0 -0.00000000000E+00 -0.00000000000E+00 -0.45593999997E+02  0.45594000000E+02  0.51100000000E-03 0.  1.
    9900012    2    1    2    0    0 -0.13945575452E+02  0.23785389289E+02 -0.29882110953E+02  0.50528875891E+02  0.30000048758E+02 0.  0.
         12    1    1    2    0    0  0.13945575452E+02 -0.23785389289E+02  0.29882110953E+02  0.40659124109E+02  0.00000000000E+00 0. -1.
         11    1    3    3    0    0 -0.38903189592E+01  0.52268382059E+01  0.32856698627E+01  0.72972629076E+01  0.51100000000E-03 0. -1.
        -11    1    3    3    0    0 -0.11901345962E+02  0.19967864943E+02 -0.33611817386E+02  0.40867003002E+02  0.51100000000E-03 0.  1.
        -12    1    3    3    0    0  0.18460894696E+01 -0.14093138604E+01  0.44403657027E+00  0.23646099811E+01  0.00000000000E+00 0.  1.
</event>
<event>
 7    1  0.3041451E-011  0.5052873E+02  0.7816164E-02  0.1300439E+00
        -11   -1    0    0    0    0  0.00000000000E+00  0.00000000000E+00  0.45593999997E+02  0.45594000000E+02  0.51100000000E-03 0.  1.
         11   -1    0    0    0    0 -0.00000000000E+00 -0.00000000000E+00 -0.45593999997E+02  0.45594000000E+02  0.51100000000E-03 0. -1.
    9900012    2    1    2    0    0 -0.16005665387E+02  0.36818024832E+02  0.64364564398E+01  0.50528729857E+02  0.29999604872E+02 0.  0.
         12    1    1    2    0    0  0.16005665387E+02 -0.36818024832E+02 -0.64364564398E+01  0.40659270143E+02  0.00000000000E+00 0. -1.
         11    1    3    3    0    0 -0.11110075283E+02  0.16970429984E+02 -0.15797333847E+01  0.20345142527E+02  0.51100000000E-03 0. -1.
        -11    1    3    3    0    0 -0.65845176447E+01  0.73378660593E-01  0.79686201867E+01  0.10337319042E+02  0.51100000000E-03 0.  1.
        -12    1    3    3    0    0  0.16889275410E+01  0.19774216188E+02  0.47569637779E-01  0.19846268288E+02  0.00000000000E+00 0.  1.
</event>
<event>
 7    1  0.3041451E-011  0.5052886E+02  0.7816164E-02  0.1300439E+00
        -11   -1    0    0    0    0  0.00000000000E+00  0.00000000000E+00  0.45593999997E+02  0.45594000000E+02  0.51100000000E-03 0.  1.
         11   -1    0    0    0    0 -0.00000000000E+00 -0.00000000000E+00 -0.45593999997E+02  0.45594000000E+02  0.51100000000E-03 0. -1.
    9900012    2    1    2    0    0  0.32449954942E+02  0.30738169003E+01  0.24304687157E+02  0.50528859037E+02  0.29999997527E+02 0.  0.
         12    1    1    2    0    0 -0.32449954942E+02 -0.30738169003E+01 -0.24304687157E+02  0.40659140963E+02  0.00000000000E+00 0. -1.
         11    1    3    3    0    0  0.81229341087E+01 -0.30740163068E+01  0.19015693507E+02  0.20905220272E+02  0.51100000000E-03 0. -1.
        -11    1    3    3    0    0  0.24981432571E+02  0.22318176779E+01  0.37234450175E+01  0.25355808535E+02  0.51100000000E-03 0.  1.
         12    1    3    3    0    0 -0.65441173711E+00  0.39160155292E+01  0.15655486325E+01  0.42678302294E+01  0.00000000000E+00 0. -1.
</event>
<event>
 7    1  0.3041451E-011  0.5052886E+02  0.7816164E-02  0.1300439E+00
        -11   -1    0    0    0    0  0.00000000000E+00  0.00000000000E+00  0.45593999997E+02  0.45594000000E+02  0.51100000000E-03 0. -1.
         11   -1    0    0    0    0 -0.00000000000E+00 -0.00000000000E+00 -0.45593999997E+02  0.45594000000E+02  0.51100000000E-03 0.  1.
    9900012    2    1    2    0    0  0.25261114528E+02  0.31802639776E+02 -0.19063226438E+01  0.50528857486E+02  0.29999992814E+02 0.  0.
         12    1    1    2    0    0 -0.25261114528E+02 -0.31802639776E+02  0.19063226438E+01  0.40659142514E+02  0.00000000000E+00 0. -1.
         11    1    3    3    0    0  0.16475558373E-01  0.11141758957E+02  0.74283250546E+01  0.13391007336E+02  0.51100000000E-03 0. -1.
        -11    1    3    3    0    0  0.22818818696E+02  0.19826443261E+02 -0.12799220729E+02  0.32826915642E+02  0.51100000000E-03 0.  1.
        -12    1    3    3    0    0  0.24258202736E+01  0.83443755869E+00  0.34645730309E+01  0.43109345072E+01  0.00000000000E+00 0.  1.
</event>
<event>
 7    1  0.3041451E-011  0.5052895E+02  0.7816164E-02  0.1300438E+00
        -11   -1    0    0    0    0  0.00000000000E+00  0.00000000000E+00  0.45593999997E+02  0.45594000000E+02  0.51100000000E-03 0.  1.
         11   -1    0    0    0    0 -0.00000000000E+00 -0.00000000000E+00 -0.45593999997E+02  0.45594000000E+02  0.51100000000E-03 0. -1.
    9900012    2    1    2    0    0  0.29242940222E+02 -0.28205064034E+02 -0.15757291312E+01  0.50528952885E+02  0.30000282787E+02 0.  0.
         12    1    1    2    0    0 -0.29242940222E+02  0.28205064034E+02  0.15757291312E+01  0.40659047115E+02  0.00000000000E+00 0. -1.
         11    1    3    3    0    0  0.14367455355E+01  0.13556521068E+01  0.70616413646E+01  0.73327218270E+01  0.51100000000E-03 0. -1.
        -11    1    3    3    0    0  0.24587442909E+02 -0.23339088603E+02 -0.11252034811E+02  0.35719234220E+02  0.51100000000E-03 0.  1.
         12    1    3    3    0    0  0.32187517776E+01 -0.62216275382E+01  0.26146643153E+01  0.74769968377E+01  0.00000000000E+00 0. -1.
</event>
<event>
 7    1  0.3041451E-011  0.5052887E+02  0.7816164E-02  0.1300439E+00
        -11   -1    0    0    0    0  0.00000000000E+00  0.00000000000E+00  0.45593999997E+02  0.45594000000E+02  0.51100000000E-03 0. -1.
         11   -1    0    0    0    0 -0.00000000000E+00 -0.00000000000E+00 -0.45593999997E+02  0.45594000000E+02  0.51100000000E-03 0.  1.
    9900012    2    1    2    0    0  0.26993702719E+02  0.21196933735E+02 -0.21798966478E+02  0.50528869097E+02  0.30000028107E+02 0.  0.
         12    1    1    2    0    0 -0.26993702719E+02 -0.21196933735E+02  0.21798966478E+02  0.40659130903E+02  0.00000000000E+00 0. -1.
         11    1    3    3    0    0  0.89374715863E+01  0.85350421274E+01  0.48780222131E+01  0.13286099633E+02  0.51100000000E-03 0. -1.
        -11    1    3    3    0    0  0.49122110295E+01  0.28153993530E+01 -0.17578385212E+02  0.18467699305E+02  0.51100000000E-03 0.  1.
         12    1    3    3    0    0  0.13144020104E+02  0.98464922547E+01 -0.90986034795E+01  0.18775070159E+02  0.00000000000E+00 0. -1.
</event>
<event>
 7    1  0.3041451E-011  0.5052886E+02  0.7816164E-02  0.1300439E+00
        -11   -1    0    0    0    0  0.00000000000E+00  0.00000000000E+00  0.45593999997E+02  0.45594000000E+02  0.51100000000E-03 0. -1.
         11   -1    0    0    0    0 -0.00000000000E+00 -0.00000000000E+00 -0.45593999997E+02  0.45594000000E+02  0.51100000000E-03 0.  1.
    9900012    2    1    2    0    0 -0.28349290636E+02  0.22332774592E+02 -0.18727793723E+02  0.50528863778E+02  0.30000011941E+02 0.  0.
         12    1    1    2    0    0  0.28349290636E+02 -0.22332774592E+02  0.18727793723E+02  0.40659136222E+02  0.00000000000E+00 0. -1.
         11    1    3    3    0    0 -0.11258564699E+02 -0.71451099716E+00 -0.62721679755E+01  0.12907590651E+02  0.51100000000E-03 0. -1.
        -11    1    3    3    0    0 -0.98055551384E+01  0.24634343893E+02 -0.14035168241E+02  0.29999762639E+02  0.51100000000E-03 0.  1.
        -12    1    3    3    0    0 -0.72851707986E+01 -0.15870583032E+01  0.15795424938E+01  0.76215104876E+01  0.00000000000E+00 0.  1.
</event>
<event>
 7    1  0.3163663E-011  0.5052886E+02  0.7816164E-02  0.1300439E+00
        -11   -1    0    0    0    0  0.00000000000E+00  0.00000000000E+00  0.45593999997E+02  0.45594000000E+02  0.51100000000E-03 0. -1.
         11   -1    0    0    0    0 -0.00000000000E+00 -0.00000000000E+00 -0.45593999997E+02  0.45594000000E+02  0.51100000000E-03 0.  1.
    9900012    2    1    2    0    0 -0.32761633638E+02  0.10214318432E+02 -0.21806161967E+02  0.50528860322E+02  0.30000001435E+02 0.  0.
         12    1    1    2    0    0  0.32761633638E+02 -0.10214318432E+02  0.21806161967E+02  0.40659139678E+02  0.00000000000E+00 0. -1.
         11    1    3    3    0    0 -0.60918285899E+01  0.12871978678E+02 -0.12463951769E+02  0.18924806594E+02  0.51100000000E-03 0. -1.
        -11    1    3    3    0    0 -0.20206313421E+02 -0.23165037869E+01 -0.13030144638E+02  0.24154626087E+02  0.51100000000E-03 0.  1.
         12    1    3    3    0    0 -0.64634916264E+01 -0.34115645906E+00  0.36879344406E+01  0.74494276405E+01  0.00000000000E+00 0. -1.
</event>
<event>
 7    1  0.3041451E-011  0.5052885E+02  0.7816164E-02  0.1300439E+00
        -11   -1    0    0    0    0  0.00000000000E+00  0.00000000000E+00  0.45593999997E+02  0.45594000000E+02  0.51100000000E-03 0.  1.
         11   -1    0    0    0    0 -0.00000000000E+00 -0.00000000000E+00 -0.45593999997E+02  0.45594000000E+02  0.51100000000E-03 0. -1.
    9900012    2    1    2    0    0  0.70469529574E+01  0.10517363996E+02  0.38637958853E+02  0.50528851513E+02  0.29999974657E+02 0.  0.
         12    1    1    2    0    0 -0.70469529574E+01 -0.10517363996E+02 -0.38637958853E+02  0.40659148487E+02  0.00000000000E+00 0. -1.
         11    1    3    3    0    0  0.31934100256E+01  0.10518488651E+02  0.13370131320E-01  0.10992572497E+02  0.51100000000E-03 0. -1.
        -11    1    3    3    0    0  0.44187817102E+01  0.23899122394E+01  0.15790099531E+02  0.16569989613E+02  0.51100000000E-03 0.  1.
         12    1    3    3    0    0 -0.56523877849E+00 -0.23910368941E+01  0.22834489190E+02  0.22966289402E+02  0.00000000000E+00 0. -1.
</event>
<event>
 7    1  0.3041451E-011  0.5052886E+02  0.7816164E-02  0.1300439E+00
        -11   -1    0    0    0    0  0.00000000000E+00  0.00000000000E+00  0.45593999997E+02  0.45594000000E+02  0.51100000000E-03 0.  1.
         11   -1    0    0    0    0 -0.00000000000E+00 -0.00000000000E+00 -0.45593999997E+02  0.45594000000E+02  0.51100000000E-03 0. -1.
    9900012    2    1    2    0    0  0.38895807439E+02 -0.11843871692E+02  0.68808520139E-01  0.50528857515E+02  0.29999992903E+02 0.  0.
         12    1    1    2    0    0 -0.38895807439E+02  0.11843871692E+02 -0.68808520139E-01  0.40659142485E+02  0.00000000000E+00 0. -1.
         11    1    3    3    0    0  0.62799467091E+01 -0.65600300786E+00 -0.54660525569E+01  0.83513951787E+01  0.51100000000E-03 0. -1.
        -11    1    3    3    0    0  0.55431364613E+01 -0.76524370759E+01  0.10823018268E+02  0.14367459056E+02  0.51100000000E-03 0.  1.
        -12    1    3    3    0    0  0.27072724269E+02 -0.35354316083E+01 -0.52881571912E+01  0.27810003280E+02  0.00000000000E+00 0.  1.
</event>
<event>
 7    1  0.3041451E-011  0.5052886E+02  0.7816164E-02  0.1300439E+00
        -11   -1    0    0    0    0  0.00000000000E+00  0.00000000000E+00  0.45593999997E+02  0.45594000000E+02  0.51100000000E-03 0.  1.
         11   -1    0    0    0    0 -0.00000000000E+00 -0.00000000000E+00 -0.45593999997E+02  0.45594000000E+02  0.51100000000E-03 0. -1.
    9900012    2    1    2    0    0  0.23173981222E+02 -0.32241197678E+02  0.87542900115E+01  0.50528858015E+02  0.29999994422E+02 0.  0.
         12    1    1    2    0    0 -0.23173981222E+02  0.32241197678E+02 -0.87542900115E+01  0.40659141985E+02  0.00000000000E+00 0. -1.
         11    1    3    3    0    0 -0.18047006553E+01  0.16399351989E+01 -0.36529279369E+01  0.43920626914E+01  0.51100000000E-03 0. -1.
        -11    1    3    3    0    0  0.21123329328E+02 -0.25032262294E+02  0.33915346119E+01  0.32928888605E+02  0.51100000000E-03 0.  1.
        -12    1    3    3    0    0  0.38553525494E+01 -0.88488705824E+01  0.90156833365E+01  0.13207906719E+02  0.00000000000E+00 0.  1.
</event>
<event>
 7    1  0.3041451E-011  0.5052885E+02  0.7816164E-02  0.1300439E+00
        -11   -1    0    0    0    0  0.00000000000E+00  0.00000000000E+00  0.45593999997E+02  0.45594000000E+02  0.51100000000E-03 0.  1.
         11   -1    0    0    0    0 -0.00000000000E+00 -0.00000000000E+00 -0.45593999997E+02  0.45594000000E+02  0.51100000000E-03 0. -1.
    9900012    2    1    2    0    0  0.41474064734E+01 -0.36857998289E+02  0.16656931905E+02  0.50528850983E+02  0.29999973047E+02 0.  0.
         12    1    1    2    0    0 -0.41474064734E+01  0.36857998289E+02 -0.16656931905E+02  0.40659149017E+02  0.00000000000E+00 0. -1.
         11    1    3    3    0    0 -0.35419081878E+01  0.14360476809E+01  0.80034074093E+00  0.39048549416E+01  0.51100000000E-03 0. -1.
        -11    1    3    3    0    0  0.13788591212E-01 -0.22126676691E+02  0.18100485213E+02  0.28587017626E+02  0.51100000000E-03 0.  1.
        -12    1    3    3    0    0  0.76755260700E+01 -0.16167369279E+02 -0.22438940496E+01  0.18036978415E+02  0.00000000000E+00 0.  1.
</event>
<event>
 7    1  0.3041451E-011  0.5052887E+02  0.7816164E-02  0.1300439E+00
        -11   -1    0    0    0    0  0.00000000000E+00  0.00000000000E+00  0.45593999997E+02  0.45594000000E+02  0.51100000000E-03 0. -1.
         11   -1    0    0    0    0 -0.00000000000E+00 -0.00000000000E+00 -0.45593999997E+02  0.45594000000E+02  0.51100000000E-03 0.  1.
    9900012    2    1    2    0    0 -0.35997412184E+02  0.74215562489E+01 -0.17385972059E+02  0.50528865656E+02  0.30000017649E+02 0.  0.
         12    1    1    2    0    0  0.35997412184E+02 -0.74215562489E+01  0.17385972059E+02  0.40659134344E+02  0.00000000000E+00 0. -1.
         11    1    3    3    0    0 -0.53387490429E+00  0.72666626829E+01 -0.25582319038E+00  0.72907375982E+01  0.51100000000E-03 0. -1.
        -11    1    3    3    0    0 -0.18854213517E+02 -0.77139307594E+01 -0.42897850891E+01  0.20817981445E+02  0.51100000000E-03 0.  1.
        -12    1    3    3    0    0 -0.16609323763E+02  0.78688243255E+01 -0.12840363780E+02  0.22420146613E+02  0.00000000000E+00 0.  1.
</event>
<event>
 7    1  0.3041451E-011  0.5052886E+02  0.7816164E-02  0.1300439E+00
        -11   -1    0    0    0    0  0.00000000000E+00  0.00000000000E+00  0.45593999997E+02  0.45594000000E+02  0.51100000000E-03 0.  1.
         11   -1    0    0    0    0 -0.00000000000E+00 -0.00000000000E+00 -0.45593999997E+02  0.45594000000E+02  0.51100000000E-03 0. -1.
    9900012    2    1    2    0    0 -0.22928170414E+02  0.27497426401E+02  0.19270601064E+02  0.50528861758E+02  0.30000005799E+02 0.  0.
         12    1    1    2    0    0  0.22928170414E+02 -0.27497426401E+02 -0.19270601064E+02  0.40659138242E+02  0.00000000000E+00 0. -1.
         11    1    3    3    0    0 -0.43281503902E+01  0.14328584402E+02 -0.45135446198E+00  0.14974810111E+02  0.51100000000E-03 0. -1.
        -11    1    3    3    0    0 -0.11474545955E+02 -0.29766401659E+01  0.66505108668E+01  0.13592456975E+02  0.51100000000E-03 0.  1.
        -12    1    3    3    0    0 -0.71254740691E+01  0.16145482166E+02  0.13071444659E+02  0.21961594672E+02  0.00000000000E+00 0.  1.
</event>
<event>
 7    1  0.3041451E-011  0.5052884E+02  0.7816164E-02  0.1300439E+00
        -11   -1    0    0    0    0  0.00000000000E+00  0.00000000000E+00  0.45593999997E+02  0.45594000000E+02  0.51100000000E-03 0.  1.
         11   -1    0    0    0    0 -0.00000000000E+00 -0.00000000000E+00 -0.45593999997E+02  0.45594000000E+02  0.51100000000E-03 0. -1.
    9900012    2    1    2    0    0 -0.47106728334E+00 -0.35758958658E+02  0.19345338410E+02  0.50528841783E+02  0.29999945083E+02 0.  0.
         12    1    1    2    0    0  0.47106728334E+00  0.35758958658E+02 -0.19345338410E+02  0.40659158217E+02  0.00000000000E+00 0. -1.
         11    1    3    3    0    0  0.72536984107E+01 -0.48444515198E+00  0.42660992626E+01  0.84291417664E+01  0.51100000000E-03 0. -1.
        -11    1    3    3    0    0 -0.73981005309E+01 -0.22727533202E+02  0.17097783426E+02  0.29387188624E+02  0.51100000000E-03 0.  1.
        -12    1    3    3    0    0 -0.32666516318E+00 -0.12546980304E+02 -0.20185442780E+01  0.12712511392E+02  0.00000000000E+00 0.  1.
</event>
<event>
 7    1  0.3041451E-011  0.5052886E+02  0.7816164E-02  0.1300439E+00
        -11   -1    0    0    0    0  0.00000000000E+00  0.00000000000E+00  0.45593999997E+02  0.45594000000E+02  0.51100000000E-03 0.  1.
         11   -1    0    0    0    0 -0.00000000000E+00 -0.00000000000E+00 -0.45593999997E+02  0.45594000000E+02  0.51100000000E-03 0. -1.
    9900012    2    1    2    0    0 -0.22726126963E+02 -0.33620315615E+02  0.25225375666E+01  0.50528860012E+02  0.30000000491E+02 0.  0.
         12    1    1    2    0    0  0.22726126963E+02  0.33620315615E+02 -0.25225375666E+01  0.40659139988E+02  0.00000000000E+00 0. -1.
         11    1    3    3    0    0 -0.29130649158E+01 -0.10718100832E+02  0.23173600857E+01  0.11346091428E+02  0.51100000000E-03 0. -1.
        -11    1    3    3    0    0 -0.94497294137E+01  0.40688885320E+01  0.10143543367E+00  0.10289000403E+02  0.51100000000E-03 0.  1.
        -12    1    3    3    0    0 -0.10363332633E+02 -0.26971103315E+02  0.10374204729E+00  0.28893768181E+02  0.00000000000E+00 0.  1.
</event>
<event>
 7    1  0.3041451E-011  0.5052887E+02  0.7816164E-02  0.1300439E+00
        -11   -1    0    0    0    0  0.00000000000E+00  0.00000000000E+00  0.45593999997E+02  0.45594000000E+02  0.51100000000E-03 0. -1.
         11   -1    0    0    0    0 -0.00000000000E+00 -0.00000000000E+00 -0.45593999997E+02  0.45594000000E+02  0.51100000000E-03 0.  1.
    9900012    2    1    2    0    0  0.32941787071E+02 -0.23778787073E+02  0.16041215553E+01  0.50528865036E+02  0.30000015763E+02 0.  0.
         12    1    1    2    0    0 -0.32941787071E+02  0.23778787073E+02 -0.16041215553E+01  0.40659134964E+02  0.00000000000E+00 0. -1.
         11    1    3    3    0    0  0.26061589311E+01 -0.12019053402E+02  0.64398015781E+01  0.13882390057E+02  0.51100000000E-03 0. -1.
        -11    1    3    3    0    0  0.14638242241E+02  0.24853469349E+01 -0.42376860515E+01  0.15440630448E+02  0.51100000000E-03 0.  1.
        -12    1    3    3    0    0  0.15697385899E+02 -0.14245080605E+02 -0.59799397129E+00  0.21205844531E+02  0.00000000000E+00 0.  1.
</event>
<event>
 7    1  0.3041451E-011  0.5052886E+02  0.7816164E-02  0.1300439E+00
        -11   -1    0    0    0    0  0.00000000000E+00  0.00000000000E+00  0.45593999997E+02  0.45594000000E+02  0.51100000000E-03 0.  1.
         11   -1    0    0    0    0 -0.00000000000E+00 -0.00000000000E+00 -0.45593999997E+02  0.45594000000E+02  0.51100000000E-03 0. -1.
    9900012    2    1    2    0    0  0.20605290291E+02  0.32886414158E+02 -0.12127299344E+02  0.50528860640E+02  0.30000002400E+02 0.  0.
         12    1    1    2    0    0 -0.20605290291E+02 -0.32886414158E+02  0.12127299344E+02  0.40659139360E+02  0.00000000000E+00 0. -1.
         11    1    3    3    0    0  0.75346522300E+01  0.31740078257E+02 -0.11375827618E+02  0.34548704842E+02  0.51100000000E-03 0. -1.
        -11    1    3    3    0    0  0.12324591522E+02  0.34408702489E+01  0.12342966520E+01  0.12855295903E+02  0.51100000000E-03 0.  1.
         12    1    3    3    0    0  0.74604653917E+00 -0.22945343481E+01 -0.19857683781E+01  0.31248598952E+01  0.00000000000E+00 0. -1.
</event>
<event>
 7    1  0.3041451E-011  0.5052886E+02  0.7816164E-02  0.1300439E+00
        -11   -1    0    0    0    0  0.00000000000E+00  0.00000000000E+00  0.45593999997E+02  0.45594000000E+02  0.51100000000E-03 0. -1.
         11   -1    0    0    0    0 -0.00000000000E+00 -0.00000000000E+00 -0.45593999997E+02  0.45594000000E+02  0.51100000000E-03 0.  1.
    9900012    2    1    2    0    0  0.41366656082E+01  0.37664085731E+02 -0.14746866025E+02  0.50528863095E+02  0.30000009864E+02 0.  0.
         12    1    1    2    0    0 -0.41366656082E+01 -0.37664085731E+02  0.14746866025E+02  0.40659136905E+02  0.00000000000E+00 0. -1.
         11    1    3    3    0    0  0.47969717212E+01  0.40658635939E+02 -0.76468558652E+01  0.41648649666E+02  0.51100000000E-03 0. -1.
        -11    1    3    3    0    0 -0.19727474854E+01 -0.67126096456E+00 -0.52072201013E+01  0.56086955139E+01  0.51100000000E-03 0.  1.
         12    1    3    3    0    0  0.13124413724E+01 -0.23232892434E+01 -0.18927900584E+01  0.32715179152E+01  0.00000000000E+00 0. -1.
</event>
<event>
 7    1  0.3041451E-011  0.5052887E+02  0.7816164E-02  0.1300439E+00
        -11   -1    0    0    0    0  0.00000000000E+00  0.00000000000E+00  0.45593999997E+02  0.45594000000E+02  0.51100000000E-03 0. -1.
         11   -1    0    0    0    0 -0.00000000000E+00 -0.00000000000E+00 -0.45593999997E+02  0.45594000000E+02  0.51100000000E-03 0.  1.
    9900012    2    1    2    0    0 -0.23092578507E+02 -0.32662257104E+02 -0.72852350267E+01  0.50528869775E+02  0.30000030169E+02 0.  0.
         12    1    1    2    0    0  0.23092578507E+02  0.32662257104E+02  0.72852350267E+01  0.40659130225E+02  0.00000000000E+00 0. -1.
         11    1    3    3    0    0 -0.56321714506E+01 -0.44951860072E+01  0.55995549498E+01  0.91259557518E+01  0.51100000000E-03 0. -1.
        -11    1    3    3    0    0 -0.22278705846E+02 -0.20522894864E+02 -0.10478846744E+02  0.32052085379E+02  0.51100000000E-03 0.  1.
        -12    1    3    3    0    0  0.48182987897E+01 -0.76441762328E+01 -0.24059432323E+01  0.93508286447E+01  0.00000000000E+00 0.  1.
</event>
<event>
 7    1  0.3041451E-011  0.5052882E+02  0.7816164E-02  0.1300439E+00
        -11   -1    0    0    0    0  0.00000000000E+00  0.00000000000E+00  0.45593999997E+02  0.45594000000E+02  0.51100000000E-03 0. -1.
         11   -1    0    0    0    0 -0.00000000000E+00 -0.00000000000E+00 -0.45593999997E+02  0.45594000000E+02  0.51100000000E-03 0.  1.
    9900012    2    1    2    0    0  0.28072693710E+02  0.20793082304E+02 -0.20802411290E+02  0.50528822447E+02  0.29999886309E+02 0.  0.
         12    1    1    2    0    0 -0.28072693710E+02 -0.20793082304E+02  0.20802411290E+02  0.40659177553E+02  0.00000000000E+00 0. -1.
         11    1    3    3    0    0 -0.12191818477E+01 -0.44820550018E+01 -0.78167744583E+01  0.90926995227E+01  0.51100000000E-03 0. -1.
        -11    1    3    3    0    0  0.25542632229E+02  0.22701233975E+02 -0.13730201709E+02  0.36827849848E+02  0.51100000000E-03 0.  1.
        -12    1    3    3    0    0  0.37492433286E+01  0.25739033305E+01  0.74456487715E+00  0.46082730765E+01  0.00000000000E+00 0.  1.
</event>
<event>
 7    1  0.3041451E-011  0.5052886E+02  0.7816164E-02  0.1300439E+00
        -11   -1    0    0    0    0  0.00000000000E+00  0.00000000000E+00  0.45593999997E+02  0.45594000000E+02  0.51100000000E-03 0.  1.
         11   -1    0    0    0    0 -0.00000000000E+00 -0.00000000000E+00 -0.45593999997E+02  0.45594000000E+02  0.51100000000E-03 0. -1.
    9900012    2    1    2    0    0 -0.13893025796E+02  0.33665103992E+02  0.18077887044E+02  0.50528863357E+02  0.30000010661E+02 0.  0.
         12    1    1    2    0    0  0.13893025796E+02 -0.33665103992E+02 -0.18077887044E+02  0.40659136643E+02  0.00000000000E+00 0. -1.
         11    1    3    3    0    0  0.59651321601E+01  0.90837030323E+01 -0.32752987050E+01  0.11350068032E+02  0.51100000000E-03 0. -1.
        -11    1    3    3    0    0 -0.28157750606E+01  0.54016996778E+01  0.49307516916E+00  0.61114705255E+01  0.51100000000E-03 0.  1.
         12    1    3    3    0    0 -0.17042382895E+02  0.19179701282E+02  0.20860110580E+02  0.33067324800E+02  0.00000000000E+00 0. -1.
</event>
<event>
 7    1  0.3041451E-011  0.5052886E+02  0.7816164E-02  0.1300439E+00
        -11   -1    0    0    0    0  0.00000000000E+00  0.00000000000E+00  0.45593999997E+02  0.45594000000E+02  0.51100000000E-03 0. -1.
         11   -1    0    0    0    0 -0.00000000000E+00 -0.00000000000E+00 -0.45593999997E+02  0.45594000000E+02  0.51100000000E-03 0.  1.
    9900012    2    1    2    0    0 -0.26949047273E+02 -0.26822186967E+02 -0.14404339890E+02  0.50528857482E+02  0.29999992802E+02 0.  0.
         12    1    1    2    0    0  0.26949047273E+02  0.26822186967E+02  0.14404339890E+02  0.40659142518E+02  0.00000000000E+00 0. -1.
         11    1    3    3    0    0 -0.99060070829E+01 -0.20031624281E+02 -0.18219287759E+02  0.28832922057E+02  0.51100000000E-03 0. -1.
        -11    1    3    3    0    0 -0.43668107797E+01  0.10958746260E+01  0.49895601798E+01  0.67205422870E+01  0.51100000000E-03 0.  1.
        -12    1    3    3    0    0 -0.12676229411E+02 -0.78864373123E+01 -0.11746123110E+01  0.14975393138E+02  0.00000000000E+00 0.  1.
</event>
<event>
 7    1  0.3041451E-011  0.5052888E+02  0.7816164E-02  0.1300439E+00
        -11   -1    0    0    0    0  0.00000000000E+00  0.00000000000E+00  0.45593999997E+02  0.45594000000E+02  0.51100000000E-03 0.  1.
         11   -1    0    0    0    0 -0.00000000000E+00 -0.00000000000E+00 -0.45593999997E+02  0.45594000000E+02  0.51100000000E-03 0. -1.
    9900012    2    1    2    0    0 -0.10917605373E+02  0.38998152755E+02  0.36213327824E+01  0.50528879541E+02  0.30000059852E+02 0.  0.
         12    1    1    2    0    0  0.10917605373E+02 -0.38998152755E+02 -0.36213327824E+01  0.40659120459E+02  0.00000000000E+00 0. -1.
         11    1    3    3    0    0  0.31847201175E+01  0.13601454964E+02  0.12037480555E+02  0.18440253734E+02  0.51100000000E-03 0. -1.
        -11    1    3    3    0    0 -0.14519276067E+02  0.22058434647E+02 -0.10165210301E+02  0.28296915332E+02  0.51100000000E-03 0.  1.
        -12    1    3    3    0    0  0.41695057641E+00  0.33382631443E+01  0.17490625282E+01  0.37917104757E+01  0.00000000000E+00 0.  1.
</event>
<event>
 7    1  0.3041451E-011  0.5052887E+02  0.7816164E-02  0.1300439E+00
        -11   -1    0    0    0    0  0.00000000000E+00  0.00000000000E+00  0.45593999997E+02  0.45594000000E+02  0.51100000000E-03 0.  1.
         11   -1    0    0    0    0 -0.00000000000E+00 -0.00000000000E+00 -0.45593999997E+02  0.45594000000E+02  0.51100000000E-03 0. -1.
    9900012    2    1    2    0    0 -0.20584160120E+02  0.27634158453E+02  0.21582651498E+02  0.50528865639E+02  0.30000017598E+02 0.  0.
         12    1    1    2    0    0  0.20584160120E+02 -0.27634158453E+02 -0.21582651498E+02  0.40659134361E+02  0.00000000000E+00 0. -1.
         11    1    3    3    0    0 -0.18911543559E+02  0.18254220366E+02  0.54184879343E+01  0.26836971750E+02  0.51100000000E-03 0. -1.
        -11    1    3    3    0    0 -0.38693719125E+01  0.33708694862E+01  0.16505418989E+02  0.17284781062E+02  0.51100000000E-03 0.  1.
        -12    1    3    3    0    0  0.21967553515E+01  0.60090686004E+01 -0.34125542508E+00  0.64071128275E+01  0.00000000000E+00 0.  1.
</event>
<event>
 7    1  0.3041451E-011  0.5052885E+02  0.7816164E-02  0.1300439E+00
        -11   -1    0    0    0    0  0.00000000000E+00  0.00000000000E+00  0.45593999997E+02  0.45594000000E+02  0.51100000000E-03 0. -1.
         11   -1    0    0    0    0 -0.00000000000E+00 -0.00000000000E+00 -0.45593999997E+02  0.45594000000E+02  0.51100000000E-03 0.  1.
    9900012    2    1    2    0    0 -0.26684229993E+02 -0.25760680086E+02  0.16658511347E+02  0.50528846429E+02  0.29999959205E+02 0.  0.
         12    1    1    2    0    0  0.26684229993E+02  0.25760680086E+02 -0.16658511347E+02  0.40659153571E+02  0.00000000000E+00 0. -1.
         11    1    3    3    0    0  0.38002581229E+01 -0.25252265219E+01 -0.47275234213E+01  0.65702518025E+01  0.51100000000E-03 0. -1.
        -11    1    3    3    0    0 -0.12745580811E+02 -0.95036973319E+01  0.75321715566E+01  0.17592717294E+02  0.51100000000E-03 0.  1.
         12    1    3    3    0    0 -0.17738907306E+02 -0.13731756232E+02  0.13853863211E+02  0.26365877332E+02  0.00000000000E+00 0. -1.
</event>
<event>
 7    1  0.3041451E-011  0.5052886E+02  0.7816164E-02  0.1300439E+00
        -11   -1    0    0    0    0  0.00000000000E+00  0.00000000000E+00  0.45593999997E+02  0.45594000000E+02  0.51100000000E-03 0. -1.
         11   -1    0    0    0    0 -0.00000000000E+00 -0.00000000000E+00 -0.45593999997E+02  0.45594000000E+02  0.51100000000E-03 0.  1.
    9900012    2    1    2    0    0 -0.25508580010E+02  0.77793454205E+01 -0.30691367175E+02  0.50528857260E+02  0.29999992128E+02 0.  0.
         12    1    1    2    0    0  0.25508580010E+02 -0.77793454205E+01  0.30691367175E+02  0.40659142740E+02  0.00000000000E+00 0. -1.
         11    1    3    3    0    0 -0.91354446303E+01  0.19146352450E+01  0.45922832638E+00  0.93452162967E+01  0.51100000000E-03 0. -1.
        -11    1    3    3    0    0 -0.10060561112E+02 -0.33383475011E+01 -0.27450952546E+02  0.29426420949E+02  0.51100000000E-03 0.  1.
        -12    1    3    3    0    0 -0.63125742669E+01  0.92030576766E+01 -0.36996429555E+01  0.11757220015E+02  0.00000000000E+00 0.  1.
</event>
<event>
 7    1  0.3041451E-011  0.5052886E+02  0.7816164E-02  0.1300439E+00
        -11   -1    0    0    0    0  0.00000000000E+00  0.00000000000E+00  0.45593999997E+02  0.45594000000E+02  0.51100000000E-03 0.  1.
         11   -1    0    0    0    0 -0.00000000000E+00 -0.00000000000E+00 -0.45593999997E+02  0.45594000000E+02  0.51100000000E-03 0. -1.
    9900012    2    1    2    0    0  0.20576724014E+01  0.13717245624E+02  0.38220002659E+02  0.50528862694E+02  0.30000008644E+02 0.  0.
         12    1    1    2    0    0 -0.20576724014E+01 -0.13717245624E+02 -0.38220002659E+02  0.40659137306E+02  0.00000000000E+00 0. -1.
         11    1    3    3    0    0 -0.36107647156E+01  0.12409600456E+02  0.60489849252E+01  0.14269759079E+02  0.51100000000E-03 0.  1.
        -11    1    3    3    0    0  0.14653581305E+01 -0.47033845991E+01  0.26589933464E+02  0.27042441883E+02  0.51100000000E-03 0. -1.
         12    1    3    3    0    0  0.42030789865E+01  0.60110297673E+01  0.55810842703E+01  0.92166617309E+01  0.00000000000E+00 0. -1.
</event>
<event>
 7    1  0.3041451E-011  0.5052888E+02  0.7816164E-02  0.1300439E+00
        -11   -1    0    0    0    0  0.00000000000E+00  0.00000000000E+00  0.45593999997E+02  0.45594000000E+02  0.51100000000E-03 0.  1.
         11   -1    0    0    0    0 -0.00000000000E+00 -0.00000000000E+00 -0.45593999997E+02  0.45594000000E+02  0.51100000000E-03 0. -1.
    9900012    2    1    2    0    0  0.39537303157E+01 -0.36687959525E+02  0.17074122955E+02  0.50528880086E+02  0.30000061509E+02 0.  0.
         12    1    1    2    0    0 -0.39537303157E+01  0.36687959525E+02 -0.17074122955E+02  0.40659119914E+02  0.00000000000E+00 0. -1.
         11    1    3    3    0    0 -0.49129371633E+01 -0.59020042195E+00  0.10657342685E+02  0.11750074105E+02  0.51100000000E-03 0. -1.
        -11    1    3    3    0    0  0.22919882352E+01 -0.22784657622E+02  0.83068033840E+00  0.22914708444E+02  0.51100000000E-03 0.  1.
        -12    1    3    3    0    0  0.65746792438E+01 -0.13313101481E+02  0.55860999319E+01  0.15864097537E+02  0.00000000000E+00 0.  1.
</event>
<event>
 7    1  0.3041451E-011  0.5052886E+02  0.7816164E-02  0.1300439E+00
        -11   -1    0    0    0    0  0.00000000000E+00  0.00000000000E+00  0.45593999997E+02  0.45594000000E+02  0.51100000000E-03 0.  1.
         11   -1    0    0    0    0 -0.00000000000E+00 -0.00000000000E+00 -0.45593999997E+02  0.45594000000E+02  0.51100000000E-03 0. -1.
    9900012    2    1    2    0    0  0.30314940200E+02  0.69412830556E+01  0.26191383980E+02  0.50528860749E+02  0.30000002734E+02 0.  0.
         12    1    1    2    0    0 -0.30314940200E+02 -0.69412830556E+01 -0.26191383980E+02  0.40659139251E+02  0.00000000000E+00 0. -1.
         11    1    3    3    0    0  0.23210493011E+02  0.66954742399E+01  0.24060933692E+01  0.24276442216E+02  0.51100000000E-03 0. -1.
        -11    1    3    3    0    0 -0.74905641619E+00 -0.25304614488E+01  0.76759240703E+01  0.81169040436E+01  0.51100000000E-03 0.  1.
         12    1    3    3    0    0  0.78535036057E+01  0.27762702645E+01  0.16109366541E+02  0.18135514490E+02  0.00000000000E+00 0. -1.
</event>
<event>
 7    1  0.3041451E-011  0.5052886E+02  0.7816164E-02  0.1300439E+00
        -11   -1    0    0    0    0  0.00000000000E+00  0.00000000000E+00  0.45593999997E+02  0.45594000000E+02  0.51100000000E-03 0.  1.
         11   -1    0    0    0    0 -0.00000000000E+00 -0.00000000000E+00 -0.45593999997E+02  0.45594000000E+02  0.51100000000E-03 0. -1.
    9900012    2    1    2    0    0 -0.22618341016E+02 -0.12469506201E+02  0.31402038164E+02  0.50528856673E+02  0.29999990343E+02 0.  0.
         12    1    1    2    0    0  0.22618341016E+02  0.12469506201E+02 -0.31402038164E+02  0.40659143327E+02  0.00000000000E+00 0. -1.
         11    1    3    3    0    0  0.18506004488E+01  0.12348222863E+01 -0.38460528027E-01  0.22250814756E+01  0.51100000000E-03 0. -1.
        -11    1    3    3    0    0 -0.21683014172E+02 -0.19435727420E+02  0.29923579485E+02  0.41753098249E+02  0.51100000000E-03 0.  1.
        -12    1    3    3    0    0 -0.27859272924E+01  0.57313989325E+01  0.15169192077E+01  0.65506769486E+01  0.00000000000E+00 0.  1.
</event>
<event>
 7    1  0.3041451E-011  0.5052886E+02  0.7816164E-02  0.1300439E+00
        -11   -1    0    0    0    0  0.00000000000E+00  0.00000000000E+00  0.45593999997E+02  0.45594000000E+02  0.51100000000E-03 0. -1.
         11   -1    0    0    0    0 -0.00000000000E+00 -0.00000000000E+00 -0.45593999997E+02  0.45594000000E+02  0.51100000000E-03 0.  1.
    9900012    2    1    2    0    0  0.71633703645E+01  0.38609415445E+02  0.10543473177E+02  0.50528860036E+02  0.30000000566E+02 0.  0.
         12    1    1    2    0    0 -0.71633703645E+01 -0.38609415445E+02 -0.10543473177E+02  0.40659139964E+02  0.00000000000E+00 0. -1.
         11    1    3    3    0    0  0.92740802952E+00 -0.12817594351E+01  0.45079878536E+01  0.47775461957E+01  0.51100000000E-03 0. -1.
        -11    1    3    3    0    0  0.99542891562E+01  0.40058571363E+02  0.39013384115E+01  0.41460794178E+02  0.51100000000E-03 0.  1.
        -12    1    3    3    0    0 -0.37183268212E+01 -0.16739648311E+00  0.21341469115E+01  0.42905196622E+01  0.00000000000E+00 0.  1.
</event>
<event>
 7    1  0.3041451E-011  0.5052887E+02  0.7816164E-02  0.1300439E+00
        -11   -1    0    0    0    0  0.00000000000E+00  0.00000000000E+00  0.45593999997E+02  0.45594000000E+02  0.51100000000E-03 0.  1.
         11   -1    0    0    0    0 -0.00000000000E+00 -0.00000000000E+00 -0.45593999997E+02  0.45594000000E+02  0.51100000000E-03 0. -1.
    9900012    2    1    2    0    0  0.15081214219E+02  0.20634480747E+02  0.31621829030E+02  0.50528869546E+02  0.30000029473E+02 0.  0.
         12    1    1    2    0    0 -0.15081214219E+02 -0.20634480747E+02 -0.31621829030E+02  0.40659130454E+02  0.00000000000E+00 0. -1.
         11    1    3    3    0    0  0.11499093318E+02  0.13142254474E+02 -0.16206572819E+00  0.17463512400E+02  0.51100000000E-03 0. -1.
        -11    1    3    3    0    0 -0.38485934192E+00  0.33751671040E+01  0.12158488888E+02  0.12624132524E+02  0.51100000000E-03 0.  1.
         12    1    3    3    0    0  0.39669802431E+01  0.41170591687E+01  0.19625405871E+02  0.20441224622E+02  0.00000000000E+00 0. -1.
</event>
<event>
 7    1  0.3041451E-011  0.5052886E+02  0.7816164E-02  0.1300439E+00
        -11   -1    0    0    0    0  0.00000000000E+00  0.00000000000E+00  0.45593999997E+02  0.45594000000E+02  0.51100000000E-03 0. -1.
         11   -1    0    0    0    0 -0.00000000000E+00 -0.00000000000E+00 -0.45593999997E+02  0.45594000000E+02  0.51100000000E-03 0.  1.
    9900012    2    1    2    0    0  0.79599755134E+01 -0.39832972928E+02  0.17715979241E+01  0.50528862015E+02  0.30000006580E+02 0.  0.
         12    1    1    2    0    0 -0.79599755134E+01  0.39832972928E+02 -0.17715979241E+01  0.40659137985E+02  0.00000000000E+00 0. -1.
         11    1    3    3    0    0  0.14073615455E+00 -0.21941667116E+02  0.14874151468E+02  0.26508431577E+02  0.51100000000E-03 0. -1.
        -11    1    3    3    0    0  0.58991257174E+00 -0.71144677447E+01 -0.51147376234E+01  0.87820378814E+01  0.51100000000E-03 0.  1.
         12    1    3    3    0    0  0.72293267871E+01 -0.10776838067E+02 -0.79878159205E+01  0.15238392556E+02  0.00000000000E+00 0. -1.
</event>
<event>
 7    1  0.3041451E-011  0.5052890E+02  0.7816164E-02  0.1300439E+00
        -11   -1    0    0    0    0  0.00000000000E+00  0.00000000000E+00  0.45593999997E+02  0.45594000000E+02  0.51100000000E-03 0.  1.
         11   -1    0    0    0    0 -0.00000000000E+00 -0.00000000000E+00 -0.45593999997E+02  0.45594000000E+02  0.51100000000E-03 0. -1.
    9900012    2    1    2    0    0  0.14413170751E+02  0.19745541602E+02  0.32489016953E+02  0.50528903517E+02  0.30000132729E+02 0.  0.
         12    1    1    2    0    0 -0.14413170751E+02 -0.19745541602E+02 -0.32489016953E+02  0.40659096483E+02  0.00000000000E+00 0. -1.
         11    1    3    3    0    0  0.79758407979E+01  0.75380395442E+01  0.39629500288E-01  0.10974408748E+02  0.51100000000E-03 0. -1.
        -11    1    3    3    0    0 -0.34720986486E+01  0.10784246328E+02  0.23659416453E+02  0.26232106760E+02  0.51100000000E-03 0.  1.
        -12    1    3    3    0    0  0.99094286019E+01  0.14232557302E+01  0.87899709995E+01  0.13322388009E+02  0.00000000000E+00 0.  1.
</event>
<event>
 7    1  0.3041451E-011  0.5052886E+02  0.7816164E-02  0.1300439E+00
        -11   -1    0    0    0    0  0.00000000000E+00  0.00000000000E+00  0.45593999997E+02  0.45594000000E+02  0.51100000000E-03 0. -1.
         11   -1    0    0    0    0 -0.00000000000E+00 -0.00000000000E+00 -0.45593999997E+02  0.45594000000E+02  0.51100000000E-03 0.  1.
    9900012    2    1    2    0    0 -0.19016241250E+02  0.62969598851E+01 -0.35382147506E+02  0.50528862070E+02  0.30000006747E+02 0.  0.
         12    1    1    2    0    0  0.19016241250E+02 -0.62969598851E+01  0.35382147506E+02  0.40659137930E+02  0.00000000000E+00 0. -1.
         11    1    3    3    0    0  0.28330843179E+01 -0.41647690376E+01 -0.43428285408E+00  0.50557165415E+01  0.51100000000E-03 0. -1.
        -11    1    3    3    0    0 -0.14985390165E+02  0.12179682539E+02 -0.32828378039E+02  0.38086861121E+02  0.51100000000E-03 0.  1.
         12    1    3    3    0    0 -0.68639354024E+01 -0.17179536159E+01 -0.21194866133E+01  0.73862844068E+01  0.00000000000E+00 0. -1.
</event>
<event>
 7    1  0.3041451E-011  0.5052886E+02  0.7816164E-02  0.1300439E+00
        -11   -1    0    0    0    0  0.00000000000E+00  0.00000000000E+00  0.45593999997E+02  0.45594000000E+02  0.51100000000E-03 0.  1.
         11   -1    0    0    0    0 -0.00000000000E+00 -0.00000000000E+00 -0.45593999997E+02  0.45594000000E+02  0.51100000000E-03 0. -1.
    9900012    2    1    2    0    0 -0.14517173775E+02  0.52713279567E+01  0.37611574901E+02  0.50528858354E+02  0.29999995453E+02 0.  0.
         12    1    1    2    0    0  0.14517173775E+02 -0.52713279567E+01 -0.37611574901E+02  0.40659141646E+02  0.00000000000E+00 0. -1.
         11    1    3    3    0    0 -0.74837529733E+01  0.14124699811E+02  0.67528292912E+01  0.17352648415E+02  0.51100000000E-03 0. -1.
        -11    1    3    3    0    0 -0.19393276827E+01 -0.31503336281E+01  0.50604690694E+01  0.62684879591E+01  0.51100000000E-03 0.  1.
         12    1    3    3    0    0 -0.50940931191E+01 -0.57030382261E+01  0.25798276540E+02  0.26907721980E+02  0.00000000000E+00 0. -1.
</event>
<event>
 7    1  0.3041451E-011  0.5052886E+02  0.7816164E-02  0.1300439E+00
        -11   -1    0    0    0    0  0.00000000000E+00  0.00000000000E+00  0.45593999997E+02  0.45594000000E+02  0.51100000000E-03 0.  1.
         11   -1    0    0    0    0 -0.00000000000E+00 -0.00000000000E+00 -0.45593999997E+02  0.45594000000E+02  0.51100000000E-03 0. -1.
    9900012    2    1    2    0    0  0.23871267511E+02  0.58741597032E+00  0.32908712898E+02  0.50528857673E+02  0.29999993384E+02 0.  0.
         12    1    1    2    0    0 -0.23871267511E+02 -0.58741597032E+00 -0.32908712898E+02  0.40659142327E+02  0.00000000000E+00 0. -1.
         11    1    3    3    0    0 -0.46834111912E+01  0.23200892967E+01  0.75465258620E+01  0.91797171839E+01  0.51100000000E-03 0. -1.
        -11    1    3    3    0    0  0.12604279987E+02 -0.39933446683E+01  0.20728312056E+02  0.24586126100E+02  0.51100000000E-03 0.  1.
         12    1    3    3    0    0  0.15950398716E+02  0.22606713419E+01  0.46338749802E+01  0.16763014390E+02  0.00000000000E+00 0. -1.
</event>
<event>
 7    1  0.3041451E-011  0.5052886E+02  0.7816164E-02  0.1300439E+00
        -11   -1    0    0    0    0  0.00000000000E+00  0.00000000000E+00  0.45593999997E+02  0.45594000000E+02  0.51100000000E-03 0. -1.
         11   -1    0    0    0    0 -0.00000000000E+00 -0.00000000000E+00 -0.45593999997E+02  0.45594000000E+02  0.51100000000E-03 0.  1.
    9900012    2    1    2    0    0  0.30662242791E+02 -0.26683975070E+02  0.97876931548E+00  0.50528860217E+02  0.30000001116E+02 0.  0.
         12    1    1    2    0    0 -0.30662242791E+02  0.26683975070E+02 -0.97876931548E+00  0.40659139783E+02  0.00000000000E+00 0. -1.
         11    1    3    3    0    0  0.63667362684E+01 -0.57027725609E+01  0.98135064372E+01  0.13013910037E+02  0.51100000000E-03 0. -1.
        -11    1    3    3    0    0  0.10138555535E+02 -0.19561974192E+02 -0.34474279653E+01  0.22301253383E+02  0.51100000000E-03 0.  1.
        -12    1    3    3    0    0  0.14156950988E+02 -0.14192283167E+01 -0.53873091564E+01  0.15213696797E+02  0.00000000000E+00 0.  1.
</event>
<event>
 7    1  0.3041451E-011  0.5052886E+02  0.7816164E-02  0.1300439E+00
        -11   -1    0    0    0    0  0.00000000000E+00  0.00000000000E+00  0.45593999997E+02  0.45594000000E+02  0.51100000000E-03 0. -1.
         11   -1    0    0    0    0 -0.00000000000E+00 -0.00000000000E+00 -0.45593999997E+02  0.45594000000E+02  0.51100000000E-03 0.  1.
    9900012    2    1    2    0    0  0.39047259543E+02  0.16882728839E+01  0.11208356871E+02  0.50528855802E+02  0.29999987696E+02 0.  0.
         12    1    1    2    0    0 -0.39047259543E+02 -0.16882728839E+01 -0.11208356871E+02  0.40659144198E+02  0.00000000000E+00 0. -1.
         11    1    3    3    0    0  0.27596635141E+02 -0.78519599973E+01  0.92880251476E+00  0.28706971649E+02  0.51100000000E-03 0. -1.
        -11    1    3    3    0    0  0.62023482134E+01  0.90209571901E+01  0.80327224840E+00  0.10976886560E+02  0.51100000000E-03 0.  1.
         12    1    3    3    0    0  0.52482761888E+01  0.51927569106E+00  0.94762821082E+01  0.10844997593E+02  0.00000000000E+00 0. -1.
</event>
<event>
 7    1  0.3041451E-011  0.5052885E+02  0.7816164E-02  0.1300439E+00
        -11   -1    0    0    0    0  0.00000000000E+00  0.00000000000E+00  0.45593999997E+02  0.45594000000E+02  0.51100000000E-03 0. -1.
         11   -1    0    0    0    0 -0.00000000000E+00 -0.00000000000E+00 -0.45593999997E+02  0.45594000000E+02  0.51100000000E-03 0.  1.
    9900012    2    1    2    0    0 -0.36915746831E+02 -0.16432442883E+02 -0.45131616947E+01  0.50528853776E+02  0.29999981537E+02 0.  0.
         12    1    1    2    0    0  0.36915746831E+02  0.16432442883E+02  0.45131616947E+01  0.40659146224E+02  0.00000000000E+00 0. -1.
         11    1    3    3    0    0  0.16542059706E+01  0.43322957000E+01 -0.16617872262E+01  0.49261263150E+01  0.51100000000E-03 0. -1.
        -11    1    3    3    0    0 -0.24851858773E+02 -0.17881400632E+02 -0.60887944795E+01  0.31215906066E+02  0.51100000000E-03 0.  1.
         12    1    3    3    0    0 -0.13718094028E+02 -0.28833379509E+01  0.32374200110E+01  0.14386821395E+02  0.00000000000E+00 0. -1.
</event>
<event>
 7    1  0.3041451E-011  0.5052886E+02  0.7816164E-02  0.1300439E+00
        -11   -1    0    0    0    0  0.00000000000E+00  0.00000000000E+00  0.45593999997E+02  0.45594000000E+02  0.51100000000E-03 0.  1.
         11   -1    0    0    0    0 -0.00000000000E+00 -0.00000000000E+00 -0.45593999997E+02  0.45594000000E+02  0.51100000000E-03 0. -1.
    9900012    2    1    2    0    0 -0.33641891004E+02 -0.98462029346E+01  0.20601971520E+02  0.50528858678E+02  0.29999996437E+02 0.  0.
         12    1    1    2    0    0  0.33641891004E+02  0.98462029346E+01 -0.20601971520E+02  0.40659141322E+02  0.00000000000E+00 0. -1.
         11    1    3    3    0    0 -0.15305086679E+00 -0.80017970020E+01  0.35162521639E+01  0.87416365384E+01  0.51100000000E-03 0. -1.
        -11    1    3    3    0    0 -0.30591726590E+02  0.15357794199E+01  0.79818546095E+01  0.31653157148E+02  0.51100000000E-03 0.  1.
        -12    1    3    3    0    0 -0.28971135475E+01 -0.33801853526E+01  0.91038647469E+01  0.10134064992E+02  0.00000000000E+00 0.  1.
</event>
<event>
 7    1  0.3041451E-011  0.5052886E+02  0.7816164E-02  0.1300439E+00
        -11   -1    0    0    0    0  0.00000000000E+00  0.00000000000E+00  0.45593999997E+02  0.45594000000E+02  0.51100000000E-03 0. -1.
         11   -1    0    0    0    0 -0.00000000000E+00 -0.00000000000E+00 -0.45593999997E+02  0.45594000000E+02  0.51100000000E-03 0.  1.
    9900012    2    1    2    0    0 -0.18075310917E+02 -0.34463531613E+02 -0.11777694678E+02  0.50528856281E+02  0.29999989153E+02 0.  0.
         12    1    1    2    0    0  0.18075310917E+02  0.34463531613E+02  0.11777694678E+02  0.40659143719E+02  0.00000000000E+00 0. -1.
         11    1    3    3    0    0 -0.73289477554E+01  0.93401071821E+00 -0.36892734346E+01  0.82581226655E+01  0.51100000000E-03 0. -1.
        -11    1    3    3    0    0 -0.95707088606E+01 -0.31415174135E+02 -0.13450912243E+02  0.35488571040E+02  0.51100000000E-03 0.  1.
        -12    1    3    3    0    0 -0.11756543008E+01 -0.39823681966E+01  0.53624909996E+01  0.67821625761E+01  0.00000000000E+00 0.  1.
</event>
<event>
 7    1  0.3041451E-011  0.5052885E+02  0.7816164E-02  0.1300439E+00
        -11   -1    0    0    0    0  0.00000000000E+00  0.00000000000E+00  0.45593999997E+02  0.45594000000E+02  0.51100000000E-03 0. -1.
         11   -1    0    0    0    0 -0.00000000000E+00 -0.00000000000E+00 -0.45593999997E+02  0.45594000000E+02  0.51100000000E-03 0.  1.
    9900012    2    1    2    0    0 -0.24505757995E+02  0.17782910447E+02 -0.27136734826E+02  0.50528850281E+02  0.29999970913E+02 0.  0.
         12    1    1    2    0    0  0.24505757995E+02 -0.17782910447E+02  0.27136734826E+02  0.40659149719E+02  0.00000000000E+00 0. -1.
         11    1    3    3    0    0  0.18022712471E+01  0.88774717498E+01 -0.14106279056E+02  0.16764390696E+02  0.51100000000E-03 0. -1.
        -11    1    3    3    0    0 -0.11541989228E+02 -0.32764985550E+01 -0.53988621113E+01  0.13156772799E+02  0.51100000000E-03 0.  1.
         12    1    3    3    0    0 -0.14766040014E+02  0.12181937252E+02 -0.76315936586E+01  0.20607686787E+02  0.00000000000E+00 0. -1.
</event>
<event>
 7    1  0.3041451E-011  0.5052886E+02  0.7816164E-02  0.1300439E+00
        -11   -1    0    0    0    0  0.00000000000E+00  0.00000000000E+00  0.45593999997E+02  0.45594000000E+02  0.51100000000E-03 0.  1.
         11   -1    0    0    0    0 -0.00000000000E+00 -0.00000000000E+00 -0.45593999997E+02  0.45594000000E+02  0.51100000000E-03 0. -1.
    9900012    2    1    2    0    0  0.21813922985E+02  0.31992782194E+02  0.12400808417E+02  0.50528863291E+02  0.30000010460E+02 0.  0.
         12    1    1    2    0    0 -0.21813922985E+02 -0.31992782194E+02 -0.12400808417E+02  0.40659136709E+02  0.00000000000E+00 0. -1.
         11    1    3    3    0    0  0.29898664964E+00  0.15198721938E+02 -0.58739231836E+01  0.16297040081E+02  0.51100000000E-03 0. -1.
        -11    1    3    3    0    0  0.99037758053E+01  0.13138690551E+02  0.79656530487E+01  0.18280087345E+02  0.51100000000E-03 0.  1.
         12    1    3    3    0    0  0.11611160530E+02  0.36553697052E+01  0.10309078552E+02  0.15951735866E+02  0.00000000000E+00 0. -1.
</event>
<event>
 7    1  0.3041451E-011  0.5052885E+02  0.7816164E-02  0.1300439E+00
        -11   -1    0    0    0    0  0.00000000000E+00  0.00000000000E+00  0.45593999997E+02  0.45594000000E+02  0.51100000000E-03 0.  1.
         11   -1    0    0    0    0 -0.00000000000E+00 -0.00000000000E+00 -0.45593999997E+02  0.45594000000E+02  0.51100000000E-03 0. -1.
    9900012    2    1    2    0    0  0.38530287361E+02 -0.12393081621E+02  0.38723339403E+01  0.50528849906E+02  0.29999969775E+02 0.  0.
         12    1    1    2    0    0 -0.38530287361E+02  0.12393081621E+02 -0.38723339403E+01  0.40659150094E+02  0.00000000000E+00 0. -1.
         11    1    3    3    0    0  0.12599253662E+02  0.45325093685E+01  0.32942830631E+01  0.13789022270E+02  0.51100000000E-03 0. -1.
        -11    1    3    3    0    0  0.21917485099E+02 -0.12725941547E+02 -0.78247034282E+01  0.26524549484E+02  0.51100000000E-03 0.  1.
        -12    1    3    3    0    0  0.40135486002E+01 -0.41996494420E+01  0.84027543053E+01  0.10215278152E+02  0.00000000000E+00 0.  1.
</event>
<event>
 7    1  0.3041451E-011  0.5052886E+02  0.7816164E-02  0.1300439E+00
        -11   -1    0    0    0    0  0.00000000000E+00  0.00000000000E+00  0.45593999997E+02  0.45594000000E+02  0.51100000000E-03 0.  1.
         11   -1    0    0    0    0 -0.00000000000E+00 -0.00000000000E+00 -0.45593999997E+02  0.45594000000E+02  0.51100000000E-03 0. -1.
    9900012    2    1    2    0    0  0.35314506041E+02 -0.31583999706E+00  0.20148234161E+02  0.50528862876E+02  0.30000009198E+02 0.  0.
         12    1    1    2    0    0 -0.35314506041E+02  0.31583999706E+00 -0.20148234161E+02  0.40659137124E+02  0.00000000000E+00 0. -1.
         11    1    3    3    0    0  0.15158599871E+02 -0.89757819310E+01  0.18667934928E+02  0.25667871085E+02  0.51100000000E-03 0. -1.
        -11    1    3    3    0    0  0.19381281676E+02  0.41027230257E+01  0.29077605317E+01  0.20023023928E+02  0.51100000000E-03 0.  1.
         12    1    3    3    0    0  0.77462449433E+00  0.45572189082E+01 -0.14274612987E+01  0.48379678631E+01  0.00000000000E+00 0. -1.
</event>
<event>
 7    1  0.3041451E-011  0.5052887E+02  0.7816164E-02  0.1300439E+00
        -11   -1    0    0    0    0  0.00000000000E+00  0.00000000000E+00  0.45593999997E+02  0.45594000000E+02  0.51100000000E-03 0.  1.
         11   -1    0    0    0    0 -0.00000000000E+00 -0.00000000000E+00 -0.45593999997E+02  0.45594000000E+02  0.51100000000E-03 0. -1.
    9900012    2    1    2    0    0  0.34127424695E+02  0.10651766252E+02  0.19365528388E+02  0.50528869041E+02  0.30000027938E+02 0.  0.
         12    1    1    2    0    0 -0.34127424695E+02 -0.10651766252E+02 -0.19365528388E+02  0.40659130959E+02  0.00000000000E+00 0. -1.
         11    1    3    3    0    0 -0.75943093761E+00 -0.55411960271E+00  0.20425906466E+01  0.22485463512E+01  0.51100000000E-03 0. -1.
        -11    1    3    3    0    0  0.23850912353E+02  0.16995476384E+02  0.20089178465E+02  0.35514607266E+02  0.51100000000E-03 0.  1.
        -12    1    3    3    0    0  0.11035943279E+02 -0.57895905286E+01 -0.27662407239E+01  0.12765715424E+02  0.00000000000E+00 0.  1.
</event>
<event>
 7    1  0.3041451E-011  0.5052886E+02  0.7816164E-02  0.1300439E+00
        -11   -1    0    0    0    0  0.00000000000E+00  0.00000000000E+00  0.45593999997E+02  0.45594000000E+02  0.51100000000E-03 0.  1.
         11   -1    0    0    0    0 -0.00000000000E+00 -0.00000000000E+00 -0.45593999997E+02  0.45594000000E+02  0.51100000000E-03 0. -1.
    9900012    2    1    2    0    0  0.37161682785E+02 -0.12162403413E+02  0.11146788676E+02  0.50528860536E+02  0.30000002085E+02 0.  0.
         12    1    1    2    0    0 -0.37161682785E+02  0.12162403413E+02 -0.11146788676E+02  0.40659139464E+02  0.00000000000E+00 0. -1.
         11    1    3    3    0    0  0.29393188710E+01 -0.12819134404E+02  0.21290179119E+01  0.13323007162E+02  0.51100000000E-03 0. -1.
        -11    1    3    3    0    0  0.24054027588E+02 -0.51613657409E+00  0.78889277719E+00  0.24072494517E+02  0.51100000000E-03 0.  1.
        -12    1    3    3    0    0  0.10168336325E+02  0.11728675652E+01  0.82288779873E+01  0.13133358857E+02  0.00000000000E+00 0.  1.
</event>
<event>
 7    1  0.3041451E-011  0.5052888E+02  0.7816164E-02  0.1300439E+00
        -11   -1    0    0    0    0  0.00000000000E+00  0.00000000000E+00  0.45593999997E+02  0.45594000000E+02  0.51100000000E-03 0.  1.
         11   -1    0    0    0    0 -0.00000000000E+00 -0.00000000000E+00 -0.45593999997E+02  0.45594000000E+02  0.51100000000E-03 0. -1.
    9900012    2    1    2    0    0 -0.39170419809E+02  0.86443447536E+01  0.66421240042E+01  0.50528876847E+02  0.30000051666E+02 0.  0.
         12    1    1    2    0    0  0.39170419809E+02 -0.86443447536E+01 -0.66421240042E+01  0.40659123153E+02  0.00000000000E+00 0. -1.
         11    1    3    3    0    0 -0.36738176660E+02  0.52793456486E+01  0.17653388222E+01  0.37157523279E+02  0.51100000000E-03 0.  1.
        -11    1    3    3    0    0 -0.13245866507E+01  0.72715838052E+01  0.51066622042E+00  0.74088623338E+01  0.51100000000E-03 0. -1.
         12    1    3    3    0    0 -0.11076564981E+01 -0.39065847002E+01  0.43661189615E+01  0.59624912347E+01  0.00000000000E+00 0. -1.
</event>
<event>
 7    1  0.3041451E-011  0.5052885E+02  0.7816164E-02  0.1300439E+00
        -11   -1    0    0    0    0  0.00000000000E+00  0.00000000000E+00  0.45593999997E+02  0.45594000000E+02  0.51100000000E-03 0.  1.
         11   -1    0    0    0    0 -0.00000000000E+00 -0.00000000000E+00 -0.45593999997E+02  0.45594000000E+02  0.51100000000E-03 0. -1.
    9900012    2    1    2    0    0 -0.13301086433E+02  0.11947566740E+02  0.36517160746E+02  0.50528852441E+02  0.29999977480E+02 0.  0.
         12    1    1    2    0    0  0.13301086433E+02 -0.11947566740E+02 -0.36517160746E+02  0.40659147559E+02  0.00000000000E+00 0. -1.
         11    1    3    3    0    0  0.51562539773E+01  0.16516294255E+01  0.53747658264E+01  0.76290853179E+01  0.51100000000E-03 0. -1.
        -11    1    3    3    0    0 -0.17800484755E+02  0.42565809230E+01  0.99052257641E+01  0.20810796149E+02  0.51100000000E-03 0.  1.
        -12    1    3    3    0    0 -0.65685565530E+00  0.60393563914E+01  0.21237169155E+02  0.22088970974E+02  0.00000000000E+00 0.  1.
</event>
<event>
 7    1  0.3041451E-011  0.5052886E+02  0.7816164E-02  0.1300439E+00
        -11   -1    0    0    0    0  0.00000000000E+00  0.00000000000E+00  0.45593999997E+02  0.45594000000E+02  0.51100000000E-03 0. -1.
         11   -1    0    0    0    0 -0.00000000000E+00 -0.00000000000E+00 -0.45593999997E+02  0.45594000000E+02  0.51100000000E-03 0.  1.
    9900012    2    1    2    0    0 -0.30556536773E+02 -0.23920821254E+02  0.12134987060E+02  0.50528861544E+02  0.30000005151E+02 0.  0.
         12    1    1    2    0    0  0.30556536773E+02  0.23920821254E+02 -0.12134987060E+02  0.40659138456E+02  0.00000000000E+00 0. -1.
         11    1    3    3    0    0 -0.62899912754E+01 -0.68224550938E+01  0.11370282528E+02  0.14676280482E+02  0.51100000000E-03 0. -1.
        -11    1    3    3    0    0 -0.27229263153E+02 -0.13616133761E+02  0.33040397735E+01  0.30622680313E+02  0.51100000000E-03 0.  1.
        -12    1    3    3    0    0  0.29627176555E+01 -0.34822323986E+01 -0.25393352416E+01  0.52299007498E+01  0.00000000000E+00 0.  1.
</event>
<event>
 7    1  0.3041451E-011  0.5052886E+02  0.7816164E-02  0.1300439E+00
        -11   -1    0    0    0    0  0.00000000000E+00  0.00000000000E+00  0.45593999997E+02  0.45594000000E+02  0.51100000000E-03 0.  1.
         11   -1    0    0    0    0 -0.00000000000E+00 -0.00000000000E+00 -0.45593999997E+02  0.45594000000E+02  0.51100000000E-03 0. -1.
    9900012    2    1    2    0    0  0.37127231855E+02 -0.16559696859E+02  0.71449417672E+00  0.50528863177E+02  0.30000010111E+02 0.  0.
         12    1    1    2    0    0 -0.37127231855E+02  0.16559696859E+02 -0.71449417672E+00  0.40659136823E+02  0.00000000000E+00 0. -1.
         11    1    3    3    0    0  0.52071731190E+01 -0.93200238435E+01 -0.10161921446E+02  0.14739136476E+02  0.51100000000E-03 0. -1.
        -11    1    3    3    0    0  0.18971980467E+02 -0.90236912902E+01  0.72689393406E+01  0.22230621375E+02  0.51100000000E-03 0.  1.
         12    1    3    3    0    0  0.12948078270E+02  0.17840182749E+01  0.36074762821E+01  0.13559105325E+02  0.00000000000E+00 0. -1.
</event>
<event>
 7    1  0.3041451E-011  0.5052886E+02  0.7816164E-02  0.1300439E+00
        -11   -1    0    0    0    0  0.00000000000E+00  0.00000000000E+00  0.45593999997E+02  0.45594000000E+02  0.51100000000E-03 0.  1.
         11   -1    0    0    0    0 -0.00000000000E+00 -0.00000000000E+00 -0.45593999997E+02  0.45594000000E+02  0.51100000000E-03 0. -1.
    9900012    2    1    2    0    0 -0.22451559936E+02 -0.48365556157E+01  0.33551463151E+02  0.50528862117E+02  0.30000006891E+02 0.  0.
         12    1    1    2    0    0  0.22451559936E+02  0.48365556157E+01 -0.33551463151E+02  0.40659137883E+02  0.00000000000E+00 0. -1.
         11    1    3    3    0    0  0.24425152905E+01 -0.12367471537E+01 -0.41250619978E+01  0.49509151895E+01  0.51100000000E-03 0. -1.
        -11    1    3    3    0    0 -0.19490379815E+02 -0.41886583085E+01  0.26617345378E+02  0.33255117486E+02  0.51100000000E-03 0.  1.
         12    1    3    3    0    0 -0.54036954110E+01  0.58884984647E+00  0.11059179772E+02  0.12322829442E+02  0.00000000000E+00 0. -1.
</event>
<event>
 7    1  0.3041451E-011  0.5052886E+02  0.7816164E-02  0.1300439E+00
        -11   -1    0    0    0    0  0.00000000000E+00  0.00000000000E+00  0.45593999997E+02  0.45594000000E+02  0.51100000000E-03 0.  1.
         11   -1    0    0    0    0 -0.00000000000E+00 -0.00000000000E+00 -0.45593999997E+02  0.45594000000E+02  0.51100000000E-03 0. -1.
    9900012    2    1    2    0    0 -0.12603856429E+02  0.15273175940E+02  0.35511107797E+02  0.50528857398E+02  0.29999992547E+02 0.  0.
         12    1    1    2    0    0  0.12603856429E+02 -0.15273175940E+02 -0.35511107797E+02  0.40659142602E+02  0.00000000000E+00 0. -1.
         11    1    3    3    0    0  0.46711538307E+01 -0.11998603208E+00 -0.48251334925E+00  0.46975412879E+01  0.51100000000E-03 0. -1.
        -11    1    3    3    0    0 -0.57593471391E+01  0.15042805550E+02  0.15687377139E+02  0.22484436396E+02  0.51100000000E-03 0.  1.
         12    1    3    3    0    0 -0.11515663120E+02  0.35035642225E+00  0.20306244007E+02  0.23346879714E+02  0.00000000000E+00 0. -1.
</event>
<event>
 7    1  0.3041451E-011  0.5052889E+02  0.7816164E-02  0.1300439E+00
        -11   -1    0    0    0    0  0.00000000000E+00  0.00000000000E+00  0.45593999997E+02  0.45594000000E+02  0.51100000000E-03 0.  1.
         11   -1    0    0    0    0 -0.00000000000E+00 -0.00000000000E+00 -0.45593999997E+02  0.45594000000E+02  0.51100000000E-03 0. -1.
    9900012    2    1    2    0    0 -0.12827301004E+02 -0.99931273377E+01  0.37266082454E+02  0.50528890978E+02  0.30000094616E+02 0.  0.
         12    1    1    2    0    0  0.12827301004E+02  0.99931273377E+01 -0.37266082454E+02  0.40659109022E+02  0.00000000000E+00 0. -1.
         11    1    3    3    0    0  0.26443452210E+01  0.25482897584E+01 -0.18451784961E+01  0.41098693755E+01  0.51100000000E-03 0. -1.
        -11    1    3    3    0    0 -0.86254210155E+01 -0.14800400505E+02  0.31977273324E+02  0.36276655748E+02  0.51100000000E-03 0.  1.
        -12    1    3    3    0    0 -0.68462252098E+01  0.22589834092E+01  0.71339876261E+01  0.10142365854E+02  0.00000000000E+00 0.  1.
</event>
<event>
 7    1  0.3041451E-011  0.5052887E+02  0.7816164E-02  0.1300439E+00
        -11   -1    0    0    0    0  0.00000000000E+00  0.00000000000E+00  0.45593999997E+02  0.45594000000E+02  0.51100000000E-03 0.  1.
         11   -1    0    0    0    0 -0.00000000000E+00 -0.00000000000E+00 -0.45593999997E+02  0.45594000000E+02  0.51100000000E-03 0. -1.
    9900012    2    1    2    0    0 -0.22772439552E+02  0.27331720311E+02  0.19686492540E+02  0.50528869084E+02  0.30000028068E+02 0.  0.
         12    1    1    2    0    0  0.22772439552E+02 -0.27331720311E+02 -0.19686492540E+02  0.40659130916E+02  0.00000000000E+00 0. -1.
         11    1    3    3    0    0  0.24121783342E+01  0.12097333475E+01 -0.41989384148E+01  0.49913067588E+01  0.51100000000E-03 0. -1.
        -11    1    3    3    0    0 -0.11202653373E+02  0.93262919408E+01  0.21844125989E+01  0.14739430879E+02  0.51100000000E-03 0.  1.
         12    1    3    3    0    0 -0.13981964513E+02  0.16795695023E+02  0.21701018356E+02  0.30798131447E+02  0.00000000000E+00 0. -1.
</event>
<event>
 7    1  0.3041451E-011  0.5052886E+02  0.7816164E-02  0.1300439E+00
        -11   -1    0    0    0    0  0.00000000000E+00  0.00000000000E+00  0.45593999997E+02  0.45594000000E+02  0.51100000000E-03 0.  1.
         11   -1    0    0    0    0 -0.00000000000E+00 -0.00000000000E+00 -0.45593999997E+02  0.45594000000E+02  0.51100000000E-03 0. -1.
    9900012    2    1    2    0    0  0.14169127961E+02 -0.65455200761E+01  0.37544075692E+02  0.50528860317E+02  0.30000001419E+02 0.  0.
         12    1    1    2    0    0 -0.14169127961E+02  0.65455200761E+01 -0.37544075692E+02  0.40659139683E+02  0.00000000000E+00 0. -1.
         11    1    3    3    0    0  0.32065918255E+01 -0.12399920667E+02  0.11171502453E+02  0.16995373811E+02  0.51100000000E-03 0. -1.
        -11    1    3    3    0    0  0.13278690885E+02  0.19754566056E+01  0.10537344724E+02  0.17066390787E+02  0.51100000000E-03 0.  1.
        -12    1    3    3    0    0 -0.23161547492E+01  0.38789439850E+01  0.15835228515E+02  0.16467095718E+02  0.00000000000E+00 0.  1.
</event>
<event>
 7    1  0.3041451E-011  0.5052886E+02  0.7816164E-02  0.1300439E+00
        -11   -1    0    0    0    0  0.00000000000E+00  0.00000000000E+00  0.45593999997E+02  0.45594000000E+02  0.51100000000E-03 0.  1.
         11   -1    0    0    0    0 -0.00000000000E+00 -0.00000000000E+00 -0.45593999997E+02  0.45594000000E+02  0.51100000000E-03 0. -1.
    9900012    2    1    2    0    0  0.19612556152E+02  0.89553623410E+01  0.34471942378E+02  0.50528859764E+02  0.29999999738E+02 0.  0.
         12    1    1    2    0    0 -0.19612556152E+02 -0.89553623410E+01 -0.34471942378E+02  0.40659140236E+02  0.00000000000E+00 0. -1.
         11    1    3    3    0    0  0.15921320316E+01  0.73475369533E+01 -0.11169378627E+01  0.76005745925E+01  0.51100000000E-03 0. -1.
        -11    1    3    3    0    0  0.20121244536E+02 -0.13867310345E+01  0.31839682682E+02  0.37690222846E+02  0.51100000000E-03 0.  1.
        -12    1    3    3    0    0 -0.21008204163E+01  0.29945564223E+01  0.37491975582E+01  0.52380623248E+01  0.00000000000E+00 0.  1.
</event>
<event>
 7    1  0.3041451E-011  0.5052886E+02  0.7816164E-02  0.1300439E+00
        -11   -1    0    0    0    0  0.00000000000E+00  0.00000000000E+00  0.45593999997E+02  0.45594000000E+02  0.51100000000E-03 0.  1.
         11   -1    0    0    0    0 -0.00000000000E+00 -0.00000000000E+00 -0.45593999997E+02  0.45594000000E+02  0.51100000000E-03 0. -1.
    9900012    2    1    2    0    0 -0.25273498612E+01  0.44187549056E+01  0.40339221591E+02  0.50528859689E+02  0.29999999511E+02 0.  0.
         12    1    1    2    0    0  0.25273498612E+01 -0.44187549056E+01 -0.40339221591E+02  0.40659140311E+02  0.00000000000E+00 0. -1.
         11    1    3    3    0    0  0.47128953646E+01 -0.42253920700E+00  0.74590733972E+00  0.47902296521E+01  0.51100000000E-03 0. -1.
        -11    1    3    3    0    0 -0.59663698365E+01  0.84775951469E+01  0.40478833607E+02  0.41785202632E+02  0.51100000000E-03 0.  1.
        -12    1    3    3    0    0 -0.12738753893E+01 -0.36363010342E+01 -0.88551935580E+00  0.39534274053E+01  0.00000000000E+00 0.  1.
</event>
<event>
 7    1  0.3041451E-011  0.5052886E+02  0.7816164E-02  0.1300439E+00
        -11   -1    0    0    0    0  0.00000000000E+00  0.00000000000E+00  0.45593999997E+02  0.45594000000E+02  0.51100000000E-03 0. -1.
         11   -1    0    0    0    0 -0.00000000000E+00 -0.00000000000E+00 -0.45593999997E+02  0.45594000000E+02  0.51100000000E-03 0.  1.
    9900012    2    1    2    0    0  0.36197114340E+02  0.95590465395E+01 -0.15860621562E+02  0.50528858671E+02  0.29999996415E+02 0.  0.
         12    1    1    2    0    0 -0.36197114340E+02 -0.95590465395E+01  0.15860621562E+02  0.40659141329E+02  0.00000000000E+00 0. -1.
         11    1    3    3    0    0  0.17846877943E+02 -0.67294243484E+01 -0.14631953498E+02  0.24039348323E+02  0.51100000000E-03 0. -1.
        -11    1    3    3    0    0  0.88661520259E+01  0.11977902873E+02 -0.45056462698E+01  0.15568547060E+02  0.51100000000E-03 0.  1.
        -12    1    3    3    0    0  0.94840843711E+01  0.43105680149E+01  0.32769782057E+01  0.10920963288E+02  0.00000000000E+00 0.  1.
</event>
<event>
 7    1  0.3041451E-011  0.5052886E+02  0.7816164E-02  0.1300439E+00
        -11   -1    0    0    0    0  0.00000000000E+00  0.00000000000E+00  0.45593999997E+02  0.45594000000E+02  0.51100000000E-03 0.  1.
         11   -1    0    0    0    0 -0.00000000000E+00 -0.00000000000E+00 -0.45593999997E+02  0.45594000000E+02  0.51100000000E-03 0. -1.
    9900012    2    1    2    0    0 -0.98318156080E+01 -0.36536046277E+02 -0.14886855053E+02  0.50528859219E+02  0.29999998082E+02 0.  0.
         12    1    1    2    0    0  0.98318156080E+01  0.36536046277E+02  0.14886855053E+02  0.40659140781E+02  0.00000000000E+00 0. -1.
         11    1    3    3    0    0  0.51231646626E+01  0.14295648338E+01 -0.19417674538E+00  0.53224220655E+01  0.51100000000E-03 0. -1.
        -11    1    3    3    0    0 -0.58147874788E+01 -0.27349557977E+02 -0.56305946282E+01  0.28522161052E+02  0.51100000000E-03 0.  1.
        -12    1    3    3    0    0 -0.91401927918E+01 -0.10616053133E+02 -0.90620836797E+01  0.16684276101E+02  0.00000000000E+00 0.  1.
</event>
<event>
 7    1  0.3041451E-011  0.5052886E+02  0.7816164E-02  0.1300439E+00
        -11   -1    0    0    0    0  0.00000000000E+00  0.00000000000E+00  0.45593999997E+02  0.45594000000E+02  0.51100000000E-03 0. -1.
         11   -1    0    0    0    0 -0.00000000000E+00 -0.00000000000E+00 -0.45593999997E+02  0.45594000000E+02  0.51100000000E-03 0.  1.
    9900012    2    1    2    0    0 -0.23361796259E+02 -0.21050308691E+02 -0.25773564036E+02  0.50528860516E+02  0.30000002025E+02 0.  0.
         12    1    1    2    0    0  0.23361796259E+02  0.21050308691E+02  0.25773564036E+02  0.40659139484E+02  0.00000000000E+00 0. -1.
         11    1    3    3    0    0  0.28966963917E+01 -0.21478065815E+01 -0.24653442891E+01  0.43682772144E+01  0.51100000000E-03 0. -1.
        -11    1    3    3    0    0 -0.29545290910E+02 -0.12429864025E+02 -0.21749287785E+02  0.38735736136E+02  0.51100000000E-03 0.  1.
        -12    1    3    3    0    0  0.32867982586E+01 -0.64726380850E+01 -0.15589319616E+01  0.74248471656E+01  0.00000000000E+00 0.  1.
</event>
<event>
 7    1  0.3041451E-011  0.5052886E+02  0.7816164E-02  0.1300439E+00
        -11   -1    0    0    0    0  0.00000000000E+00  0.00000000000E+00  0.45593999997E+02  0.45594000000E+02  0.51100000000E-03 0.  1.
         11   -1    0    0    0    0 -0.00000000000E+00 -0.00000000000E+00 -0.45593999997E+02  0.45594000000E+02  0.51100000000E-03 0. -1.
    9900012    2    1    2    0    0  0.17089530536E+02 -0.17384610326E+02  0.32540576467E+02  0.50528857769E+02  0.29999993674E+02 0.  0.
         12    1    1    2    0    0 -0.17089530536E+02  0.17384610326E+02 -0.32540576467E+02  0.40659142231E+02  0.00000000000E+00 0. -1.
         11    1    3    3    0    0  0.61470477509E+01 -0.12364729158E+02 -0.76513691333E+00  0.13829611635E+02  0.51100000000E-03 0. -1.
        -11    1    3    3    0    0  0.11941320505E+02 -0.40636553911E+01  0.32934671125E+02  0.35267562901E+02  0.51100000000E-03 0.  1.
        -12    1    3    3    0    0 -0.99883771967E+00 -0.95622577639E+00  0.37104225541E+00  0.14316832335E+01  0.00000000000E+00 0.  1.
</event>
<event>
 7    1  0.3041451E-011  0.5052886E+02  0.7816164E-02  0.1300439E+00
        -11   -1    0    0    0    0  0.00000000000E+00  0.00000000000E+00  0.45593999997E+02  0.45594000000E+02  0.51100000000E-03 0.  1.
         11   -1    0    0    0    0 -0.00000000000E+00 -0.00000000000E+00 -0.45593999997E+02  0.45594000000E+02  0.51100000000E-03 0. -1.
    9900012    2    1    2    0    0  0.21617179435E+02  0.33094913094E+02  0.95178669828E+01  0.50528861896E+02  0.30000006220E+02 0.  0.
         12    1    1    2    0    0 -0.21617179435E+02 -0.33094913094E+02 -0.95178669828E+01  0.40659138104E+02  0.00000000000E+00 0. -1.
         11    1    3    3    0    0  0.14256255242E+02  0.30625985271E+02  0.13171515949E+02  0.36258524791E+02  0.51100000000E-03 0. -1.
        -11    1    3    3    0    0  0.97422621160E+01  0.14862309105E+00 -0.46545823349E+01  0.10798096913E+02  0.51100000000E-03 0.  1.
         12    1    3    3    0    0 -0.23813379223E+01  0.23203047314E+01  0.10009333688E+01  0.34722401927E+01  0.00000000000E+00 0. -1.
</event>
<event>
 7    1  0.3041451E-011  0.5052886E+02  0.7816164E-02  0.1300439E+00
        -11   -1    0    0    0    0  0.00000000000E+00  0.00000000000E+00  0.45593999997E+02  0.45594000000E+02  0.51100000000E-03 0.  1.
         11   -1    0    0    0    0 -0.00000000000E+00 -0.00000000000E+00 -0.45593999997E+02  0.45594000000E+02  0.51100000000E-03 0. -1.
    9900012    2    1    2    0    0  0.20593581496E+02 -0.31338634231E+02 -0.15714960693E+02  0.50528861005E+02  0.30000003510E+02 0.  0.
         12    1    1    2    0    0 -0.20593581496E+02  0.31338634231E+02  0.15714960693E+02  0.40659138995E+02  0.00000000000E+00 0. -1.
         11    1    3    3    0    0  0.68882572312E+01 -0.30665779223E+02 -0.13635278158E+02  0.34260165115E+02  0.51100000000E-03 0. -1.
        -11    1    3    3    0    0  0.91734177494E+01  0.10192375605E+01  0.25470078734E+01  0.95748466190E+01  0.51100000000E-03 0.  1.
         12    1    3    3    0    0  0.45319065153E+01 -0.16920925685E+01 -0.46266904085E+01  0.66938492708E+01  0.00000000000E+00 0. -1.
</event>
<event>
 7    1  0.3041451E-011  0.5052888E+02  0.7816164E-02  0.1300439E+00
        -11   -1    0    0    0    0  0.00000000000E+00  0.00000000000E+00  0.45593999997E+02  0.45594000000E+02  0.51100000000E-03 0.  1.
         11   -1    0    0    0    0 -0.00000000000E+00 -0.00000000000E+00 -0.45593999997E+02  0.45594000000E+02  0.51100000000E-03 0. -1.
    9900012    2    1    2    0    0  0.77670236552E+01  0.18222588169E+02  0.35507392820E+02  0.50528876536E+02  0.30000050717E+02 0.  0.
         12    1    1    2    0    0 -0.77670236552E+01 -0.18222588169E+02 -0.35507392820E+02  0.40659123464E+02  0.00000000000E+00 0. -1.
         11    1    3    3    0    0 -0.54778242806E+01  0.87813221430E+01  0.30048790133E+01  0.10777173821E+02  0.51100000000E-03 0. -1.
        -11    1    3    3    0    0  0.16226388336E+02  0.10919043960E+02  0.27681989746E+02  0.33894155190E+02  0.51100000000E-03 0.  1.
        -12    1    3    3    0    0 -0.29815404006E+01 -0.14777779346E+01  0.48205240604E+01  0.58575475245E+01  0.00000000000E+00 0.  1.
</event>
<event>
 7    1  0.3041451E-011  0.5052887E+02  0.7816164E-02  0.1300439E+00
        -11   -1    0    0    0    0  0.00000000000E+00  0.00000000000E+00  0.45593999997E+02  0.45594000000E+02  0.51100000000E-03 0. -1.
         11   -1    0    0    0    0 -0.00000000000E+00 -0.00000000000E+00 -0.45593999997E+02  0.45594000000E+02  0.51100000000E-03 0.  1.
    9900012    2    1    2    0    0  0.56833644817E+01 -0.22675647273E+02 -0.33266794652E+02  0.50528865263E+02  0.30000016454E+02 0.  0.
         12    1    1    2    0    0 -0.56833644817E+01  0.22675647273E+02  0.33266794652E+02  0.40659134737E+02  0.00000000000E+00 0. -1.
         11    1    3    3    0    0 -0.41967217365E+00  0.13225903777E+01 -0.77226971544E+01  0.78463635935E+01  0.51100000000E-03 0. -1.
        -11    1    3    3    0    0  0.57376121298E+01 -0.15427687593E+02 -0.78426379509E+00  0.16478738040E+02  0.51100000000E-03 0.  1.
        -12    1    3    3    0    0  0.36542452553E+00 -0.85705500581E+01 -0.24759833703E+02  0.26203763630E+02  0.00000000000E+00 0.  1.
</event>
<event>
 7    1  0.3041451E-011  0.5052885E+02  0.7816164E-02  0.1300439E+00
        -11   -1    0    0    0    0  0.00000000000E+00  0.00000000000E+00  0.45593999997E+02  0.45594000000E+02  0.51100000000E-03 0. -1.
         11   -1    0    0    0    0 -0.00000000000E+00 -0.00000000000E+00 -0.45593999997E+02  0.45594000000E+02  0.51100000000E-03 0.  1.
    9900012    2    1    2    0    0 -0.16681852255E+02  0.34475550024E+02 -0.13649848163E+02  0.50528854670E+02  0.29999984254E+02 0.  0.
         12    1    1    2    0    0  0.16681852255E+02 -0.34475550024E+02  0.13649848163E+02  0.40659145330E+02  0.00000000000E+00 0. -1.
         11    1    3    3    0    0 -0.20020839847E+02  0.91053280315E+01 -0.46848438569E+01  0.22487525186E+02  0.51100000000E-03 0. -1.
        -11    1    3    3    0    0  0.44429285311E+01  0.89403662099E+01 -0.21068521123E+01  0.10203361602E+02  0.51100000000E-03 0.  1.
         12    1    3    3    0    0 -0.11039409388E+01  0.16429855783E+02 -0.68581521937E+01  0.17837967882E+02  0.00000000000E+00 0. -1.
</event>
<event>
 7    1  0.3041451E-011  0.5052886E+02  0.7816164E-02  0.1300439E+00
        -11   -1    0    0    0    0  0.00000000000E+00  0.00000000000E+00  0.45593999997E+02  0.45594000000E+02  0.51100000000E-03 0.  1.
         11   -1    0    0    0    0 -0.00000000000E+00 -0.00000000000E+00 -0.45593999997E+02  0.45594000000E+02  0.51100000000E-03 0. -1.
    9900012    2    1    2    0    0  0.21999552217E+02 -0.62249372288E+01  0.33621955621E+02  0.50528855382E+02  0.29999986420E+02 0.  0.
         12    1    1    2    0    0 -0.21999552217E+02  0.62249372288E+01 -0.33621955621E+02  0.40659144618E+02  0.00000000000E+00 0. -1.
         11    1    3    3    0    0  0.37584063607E+01 -0.92519692173E+00  0.26025885703E+02  0.26312132840E+02  0.51100000000E-03 0. -1.
        -11    1    3    3    0    0  0.17955755587E+02 -0.52975590632E+01  0.10388231664E+02  0.21410012800E+02  0.51100000000E-03 0.  1.
         12    1    3    3    0    0  0.28539026942E+00 -0.21812438454E-02 -0.27921617457E+01  0.28067097424E+01  0.00000000000E+00 0. -1.
</event>
<event>
 7    1  0.3041451E-011  0.5052886E+02  0.7816164E-02  0.1300439E+00
        -11   -1    0    0    0    0  0.00000000000E+00  0.00000000000E+00  0.45593999997E+02  0.45594000000E+02  0.51100000000E-03 0. -1.
         11   -1    0    0    0    0 -0.00000000000E+00 -0.00000000000E+00 -0.45593999997E+02  0.45594000000E+02  0.51100000000E-03 0.  1.
    9900012    2    1    2    0    0  0.94019832517E+01  0.26800893310E+02 -0.29094339573E+02  0.50528858759E+02  0.29999996684E+02 0.  0.
         12    1    1    2    0    0 -0.94019832517E+01 -0.26800893310E+02  0.29094339573E+02  0.40659141241E+02  0.00000000000E+00 0. -1.
         11    1    3    3    0    0  0.51834653812E+01 -0.89209511937E+00  0.24811417404E+01  0.58155147371E+01  0.51100000000E-03 0. -1.
        -11    1    3    3    0    0 -0.52299619467E+01  0.12933001555E+02 -0.16400900583E+02  0.21531478616E+02  0.51100000000E-03 0.  1.
        -12    1    3    3    0    0  0.94484798172E+01  0.14759986875E+02 -0.15174580730E+02  0.23181865407E+02  0.00000000000E+00 0.  1.
</event>
<event>
 7    1  0.3041451E-011  0.5052887E+02  0.7816164E-02  0.1300439E+00
        -11   -1    0    0    0    0  0.00000000000E+00  0.00000000000E+00  0.45593999997E+02  0.45594000000E+02  0.51100000000E-03 0.  1.
         11   -1    0    0    0    0 -0.00000000000E+00 -0.00000000000E+00 -0.45593999997E+02  0.45594000000E+02  0.51100000000E-03 0. -1.
    9900012    2    1    2    0    0 -0.14549395274E+02  0.17163944010E+02  0.33865601063E+02  0.50528870494E+02  0.30000032354E+02 0.  0.
         12    1    1    2    0    0  0.14549395274E+02 -0.17163944010E+02 -0.33865601063E+02  0.40659129506E+02  0.00000000000E+00 0. -1.
         11    1    3    3    0    0  0.67783241121E+01  0.72481927679E+01  0.16612820824E+02  0.19351170305E+02  0.51100000000E-03 0.  1.
        -11    1    3    3    0    0 -0.16515620744E+02  0.12299156061E+02  0.13973079059E+02  0.24885375365E+02  0.51100000000E-03 0. -1.
         12    1    3    3    0    0 -0.48120986414E+01 -0.23834048192E+01  0.32797011798E+01  0.62923248244E+01  0.00000000000E+00 0. -1.
</event>
<event>
 7    1  0.3041451E-011  0.5052886E+02  0.7816164E-02  0.1300439E+00
        -11   -1    0    0    0    0  0.00000000000E+00  0.00000000000E+00  0.45593999997E+02  0.45594000000E+02  0.51100000000E-03 0. -1.
         11   -1    0    0    0    0 -0.00000000000E+00 -0.00000000000E+00 -0.45593999997E+02  0.45594000000E+02  0.51100000000E-03 0.  1.
    9900012    2    1    2    0    0 -0.14629718781E+02  0.97015628632E+01  0.36674470080E+02  0.50528858971E+02  0.29999997328E+02 0.  0.
         12    1    1    2    0    0  0.14629718781E+02 -0.97015628632E+01 -0.36674470080E+02  0.40659141029E+02  0.00000000000E+00 0. -1.
         11    1    3    3    0    0 -0.21946746718E+01  0.39602062999E+01  0.11844025284E+02  0.12679935569E+02  0.51100000000E-03 0. -1.
        -11    1    3    3    0    0  0.67820965184E+01 -0.29165660863E+01  0.50592264739E+01  0.89498024389E+01  0.51100000000E-03 0.  1.
        -12    1    3    3    0    0 -0.19217140627E+02  0.86579226496E+01  0.19771218321E+02  0.28899120963E+02  0.00000000000E+00 0.  1.
</event>
<event>
 7    1  0.3041451E-011  0.5052888E+02  0.7816164E-02  0.1300439E+00
        -11   -1    0    0    0    0  0.00000000000E+00  0.00000000000E+00  0.45593999997E+02  0.45594000000E+02  0.51100000000E-03 0. -1.
         11   -1    0    0    0    0 -0.00000000000E+00 -0.00000000000E+00 -0.45593999997E+02  0.45594000000E+02  0.51100000000E-03 0.  1.
    9900012    2    1    2    0    0  0.20451451573E+02  0.34138463431E+02 -0.83347365663E+01  0.50528875679E+02  0.30000048115E+02 0.  0.
         12    1    1    2    0    0 -0.20451451573E+02 -0.34138463431E+02  0.83347365663E+01  0.40659124321E+02  0.00000000000E+00 0. -1.
         11    1    3    3    0    0  0.56097051035E+01  0.20564348248E+02 -0.19749393490E+01  0.21407045474E+02  0.51100000000E-03 0. -1.
        -11    1    3    3    0    0  0.69787617817E+01 -0.43633821267E+01 -0.46717556115E+01  0.94640118525E+01  0.51100000000E-03 0.  1.
        -12    1    3    3    0    0  0.78629846880E+01  0.17937497310E+02 -0.16880416057E+01  0.19657818353E+02  0.00000000000E+00 0.  1.
</event>
<event>
 7    1  0.3041451E-011  0.5052886E+02  0.7816164E-02  0.1300439E+00
        -11   -1    0    0    0    0  0.00000000000E+00  0.00000000000E+00  0.45593999997E+02  0.45594000000E+02  0.51100000000E-03 0. -1.
         11   -1    0    0    0    0 -0.00000000000E+00 -0.00000000000E+00 -0.45593999997E+02  0.45594000000E+02  0.51100000000E-03 0.  1.
    9900012    2    1    2    0    0  0.28476725458E+02 -0.25918201598E+02 -0.13057121883E+02  0.50528862051E+02  0.30000006689E+02 0.  0.
         12    1    1    2    0    0 -0.28476725458E+02  0.25918201598E+02  0.13057121883E+02  0.40659137949E+02  0.00000000000E+00 0. -1.
         11    1    3    3    0    0 -0.36765635071E+01 -0.48146491394E+01 -0.92445884291E+01  0.11052618741E+02  0.51100000000E-03 0. -1.
        -11    1    3    3    0    0  0.22834243894E+02 -0.11529509188E+02 -0.49961671504E+01  0.26063268460E+02  0.51100000000E-03 0.  1.
         12    1    3    3    0    0  0.93190450709E+01 -0.95740432707E+01  0.11836336963E+01  0.13412974849E+02  0.00000000000E+00 0. -1.
</event>
<event>
 7    1  0.3041451E-011  0.5052885E+02  0.7816164E-02  0.1300439E+00
        -11   -1    0    0    0    0  0.00000000000E+00  0.00000000000E+00  0.45593999997E+02  0.45594000000E+02  0.51100000000E-03 0.  1.
         11   -1    0    0    0    0 -0.00000000000E+00 -0.00000000000E+00 -0.45593999997E+02  0.45594000000E+02  0.51100000000E-03 0. -1.
    9900012    2    1    2    0    0 -0.12750971718E+02  0.40430056774E+01  0.38395745741E+02  0.50528850161E+02  0.29999970548E+02 0.  0.
         12    1    1    2    0    0  0.12750971718E+02 -0.40430056774E+01 -0.38395745741E+02  0.40659149839E+02  0.00000000000E+00 0. -1.
         11    1    3    3    0    0 -0.17351876961E+02  0.33674064908E+01  0.10314441303E+02  0.20464964212E+02  0.51100000000E-03 0. -1.
        -11    1    3    3    0    0 -0.43936792107E+00  0.30227791298E+01  0.20136147684E+02  0.20366508823E+02  0.51100000000E-03 0.  1.
         12    1    3    3    0    0  0.50402731644E+01 -0.23471799431E+01  0.79451567546E+01  0.96973771254E+01  0.00000000000E+00 0. -1.
</event>
<event>
 7    1  0.3041451E-011  0.5052886E+02  0.7816164E-02  0.1300439E+00
        -11   -1    0    0    0    0  0.00000000000E+00  0.00000000000E+00  0.45593999997E+02  0.45594000000E+02  0.51100000000E-03 0. -1.
         11   -1    0    0    0    0 -0.00000000000E+00 -0.00000000000E+00 -0.45593999997E+02  0.45594000000E+02  0.51100000000E-03 0.  1.
    9900012    2    1    2    0    0 -0.55156947559E+01 -0.28413162869E+02 -0.28555819987E+02  0.50528861200E+02  0.30000004102E+02 0.  0.
         12    1    1    2    0    0  0.55156947559E+01  0.28413162869E+02  0.28555819987E+02  0.40659138800E+02  0.00000000000E+00 0. -1.
         11    1    3    3    0    0  0.22278145207E+01 -0.70608157260E+01 -0.21932976486E+02  0.23148946716E+02  0.51100000000E-03 0. -1.
        -11    1    3    3    0    0  0.17219833666E+00 -0.17881064527E+02 -0.37434194258E+01  0.18269518607E+02  0.51100000000E-03 0.  1.
        -12    1    3    3    0    0 -0.79157076133E+01 -0.34712826155E+01 -0.28794240755E+01  0.91103958762E+01  0.00000000000E+00 0.  1.
</event>
<event>
 7    1  0.3041451E-011  0.5052886E+02  0.7816164E-02  0.1300439E+00
        -11   -1    0    0    0    0  0.00000000000E+00  0.00000000000E+00  0.45593999997E+02  0.45594000000E+02  0.51100000000E-03 0.  1.
         11   -1    0    0    0    0 -0.00000000000E+00 -0.00000000000E+00 -0.45593999997E+02  0.45594000000E+02  0.51100000000E-03 0. -1.
    9900012    2    1    2    0    0 -0.31376738382E+02  0.21094258246E+02  0.14956552146E+02  0.50528857184E+02  0.29999991896E+02 0.  0.
         12    1    1    2    0    0  0.31376738382E+02 -0.21094258246E+02 -0.14956552146E+02  0.40659142816E+02  0.00000000000E+00 0. -1.
         11    1    3    3    0    0 -0.84505134259E+01  0.21593906612E+02  0.97658415564E+01  0.25161073934E+02  0.51100000000E-03 0.  1.
        -11    1    3    3    0    0 -0.20621166864E+02  0.27887009168E+01  0.45620025338E+01  0.21303080599E+02  0.51100000000E-03 0. -1.
        -12    1    3    3    0    0 -0.23050580922E+01 -0.32883492835E+01  0.62870805614E+00  0.40647026507E+01  0.00000000000E+00 0.  1.
</event>
<event>
 7    1  0.3041451E-011  0.5052887E+02  0.7816164E-02  0.1300439E+00
        -11   -1    0    0    0    0  0.00000000000E+00  0.00000000000E+00  0.45593999997E+02  0.45594000000E+02  0.51100000000E-03 0.  1.
         11   -1    0    0    0    0 -0.00000000000E+00 -0.00000000000E+00 -0.45593999997E+02  0.45594000000E+02  0.51100000000E-03 0. -1.
    9900012    2    1    2    0    0  0.22516498897E+02  0.61623761012E+01  0.33289600695E+02  0.50528866755E+02  0.30000020988E+02 0.  0.
         12    1    1    2    0    0 -0.22516498897E+02 -0.61623761012E+01 -0.33289600695E+02  0.40659133245E+02  0.00000000000E+00 0. -1.
         11    1    3    3    0    0  0.14639425810E+02 -0.16407728732E+01  0.23384218284E+02  0.27637412844E+02  0.51100000000E-03 0.  1.
        -11    1    3    3    0    0 -0.52024777984E+01 -0.36681550522E+00  0.24347821296E+01  0.57557356730E+01  0.51100000000E-03 0. -1.
        -12    1    3    3    0    0  0.13079550886E+02  0.81699644796E+01  0.74706002812E+01  0.17135718238E+02  0.00000000000E+00 0.  1.
</event>
<event>
 7    1  0.3041451E-011  0.5052887E+02  0.7816164E-02  0.1300439E+00
        -11   -1    0    0    0    0  0.00000000000E+00  0.00000000000E+00  0.45593999997E+02  0.45594000000E+02  0.51100000000E-03 0.  1.
         11   -1    0    0    0    0 -0.00000000000E+00 -0.00000000000E+00 -0.45593999997E+02  0.45594000000E+02  0.51100000000E-03 0. -1.
    9900012    2    1    2    0    0 -0.47525517100E+01  0.40148963259E+02 -0.43172954109E+01  0.50528867715E+02  0.30000023906E+02 0.  0.
         12    1    1    2    0    0  0.47525517100E+01 -0.40148963259E+02  0.43172954109E+01  0.40659132285E+02  0.00000000000E+00 0. -1.
         11    1    3    3    0    0  0.10117230572E+02  0.72100490702E+01  0.80581930120E+00  0.12449598670E+02  0.51100000000E-03 0. -1.
        -11    1    3    3    0    0 -0.10548091217E+02  0.28085472420E+02 -0.78822450742E+01  0.31019119541E+02  0.51100000000E-03 0.  1.
        -12    1    3    3    0    0 -0.43216910648E+01  0.48534417684E+01  0.27591303622E+01  0.70601495036E+01  0.00000000000E+00 0.  1.
</event>
<event>
 7    1  0.3041451E-011  0.5052887E+02  0.7816164E-02  0.1300439E+00
        -11   -1    0    0    0    0  0.00000000000E+00  0.00000000000E+00  0.45593999997E+02  0.45594000000E+02  0.51100000000E-03 0.  1.
         11   -1    0    0    0    0 -0.00000000000E+00 -0.00000000000E+00 -0.45593999997E+02  0.45594000000E+02  0.51100000000E-03 0. -1.
    9900012    2    1    2    0    0 -0.34279520282E+02 -0.20150092287E+02  0.84884019159E+01  0.50528871910E+02  0.30000036658E+02 0.  0.
         12    1    1    2    0    0  0.34279520282E+02  0.20150092287E+02 -0.84884019159E+01  0.40659128090E+02  0.00000000000E+00 0. -1.
         11    1    3    3    0    0 -0.28310698107E+02 -0.16691621431E+02  0.52505134224E+01  0.33281732899E+02  0.51100000000E-03 0.  1.
        -11    1    3    3    0    0  0.31146651151E+01 -0.59897934793E+01 -0.11468872209E+01  0.68479278079E+01  0.51100000000E-03 0. -1.
         12    1    3    3    0    0 -0.90834872904E+01  0.25313226242E+01  0.43847757144E+01  0.10399211203E+02  0.00000000000E+00 0. -1.
</event>
<event>
 7    1  0.3041451E-011  0.5052887E+02  0.7816164E-02  0.1300439E+00
        -11   -1    0    0    0    0  0.00000000000E+00  0.00000000000E+00  0.45593999997E+02  0.45594000000E+02  0.51100000000E-03 0. -1.
         11   -1    0    0    0    0 -0.00000000000E+00 -0.00000000000E+00 -0.45593999997E+02  0.45594000000E+02  0.51100000000E-03 0.  1.
    9900012    2    1    2    0    0 -0.15359684597E+02  0.21925002660E+02  0.30602933684E+02  0.50528865693E+02  0.30000017759E+02 0.  0.
         12    1    1    2    0    0  0.15359684597E+02 -0.21925002660E+02 -0.30602933684E+02  0.40659134307E+02  0.00000000000E+00 0. -1.
         11    1    3    3    0    0  0.19735341524E+01  0.60902407579E+01  0.21340376952E+02  0.22279981110E+02  0.51100000000E-03 0. -1.
        -11    1    3    3    0    0 -0.11932988855E+02  0.58191721116E+01 -0.45699428462E+00  0.13284119508E+02  0.51100000000E-03 0.  1.
         12    1    3    3    0    0 -0.54002298941E+01  0.10015589791E+02  0.97195510168E+01  0.14964765074E+02  0.00000000000E+00 0. -1.
</event>
<event>
 7    1  0.3041451E-011  0.5052886E+02  0.7816164E-02  0.1300439E+00
        -11   -1    0    0    0    0  0.00000000000E+00  0.00000000000E+00  0.45593999997E+02  0.45594000000E+02  0.51100000000E-03 0.  1.
         11   -1    0    0    0    0 -0.00000000000E+00 -0.00000000000E+00 -0.45593999997E+02  0.45594000000E+02  0.51100000000E-03 0. -1.
    9900012    2    1    2    0    0  0.94302257436E+01  0.37918080134E+02  0.11245267804E+02  0.50528855806E+02  0.29999987708E+02 0.  0.
         12    1    1    2    0    0 -0.94302257436E+01 -0.37918080134E+02 -0.11245267804E+02  0.40659144194E+02  0.00000000000E+00 0. -1.
         11    1    3    3    0    0 -0.39222184032E+01  0.16809799847E+02  0.52805175426E+01  0.18050956592E+02  0.51100000000E-03 0. -1.
        -11    1    3    3    0    0  0.14863995965E+02  0.18937108710E+02 -0.19305333542E+01  0.24151178474E+02  0.51100000000E-03 0.  1.
        -12    1    3    3    0    0 -0.15115518187E+01  0.21711715759E+01  0.78952836158E+01  0.83267207403E+01  0.00000000000E+00 0.  1.
</event>
<event>
 7    1  0.3041451E-011  0.5052886E+02  0.7816164E-02  0.1300439E+00
        -11   -1    0    0    0    0  0.00000000000E+00  0.00000000000E+00  0.45593999997E+02  0.45594000000E+02  0.51100000000E-03 0. -1.
         11   -1    0    0    0    0 -0.00000000000E+00 -0.00000000000E+00 -0.45593999997E+02  0.45594000000E+02  0.51100000000E-03 0.  1.
    9900012    2    1    2    0    0 -0.20323760881E+02 -0.33396605469E+02 -0.11170385444E+02  0.50528855589E+02  0.29999987050E+02 0.  0.
         12    1    1    2    0    0  0.20323760881E+02  0.33396605469E+02  0.11170385444E+02  0.40659144411E+02  0.00000000000E+00 0. -1.
         11    1    3    3    0    0 -0.21710602873E+01  0.10168693446E+01  0.42425376279E+01  0.48730536443E+01  0.51100000000E-03 0. -1.
        -11    1    3    3    0    0 -0.17462735386E+02 -0.35869086252E+02 -0.11646474725E+02  0.41559341302E+02  0.51100000000E-03 0.  1.
        -12    1    3    3    0    0 -0.68996520820E+00  0.14556114380E+01 -0.37664483471E+01  0.40964606429E+01  0.00000000000E+00 0.  1.
</event>
<event>
 7    1  0.3041451E-011  0.5052886E+02  0.7816164E-02  0.1300439E+00
        -11   -1    0    0    0    0  0.00000000000E+00  0.00000000000E+00  0.45593999997E+02  0.45594000000E+02  0.51100000000E-03 0. -1.
         11   -1    0    0    0    0 -0.00000000000E+00 -0.00000000000E+00 -0.45593999997E+02  0.45594000000E+02  0.51100000000E-03 0.  1.
    9900012    2    1    2    0    0 -0.52197271838E+01 -0.29595450781E+02 -0.27386671346E+02  0.50528855565E+02  0.29999986974E+02 0.  0.
         12    1    1    2    0    0  0.52197271838E+01  0.29595450781E+02  0.27386671346E+02  0.40659144435E+02  0.00000000000E+00 0. -1.
         11    1    3    3    0    0  0.14972087007E+01 -0.15005096392E+01  0.23829819276E+01  0.31893206485E+01  0.51100000000E-03 0. -1.
        -11    1    3    3    0    0 -0.10746090549E+02 -0.29891158510E+02 -0.22833573989E+02  0.39119457059E+02  0.51100000000E-03 0.  1.
        -12    1    3    3    0    0  0.40291546649E+01  0.17962173683E+01 -0.69360792840E+01  0.82200778574E+01  0.00000000000E+00 0.  1.
</event>
<event>
 7    1  0.3041451E-011  0.5052886E+02  0.7816164E-02  0.1300439E+00
        -11   -1    0    0    0    0  0.00000000000E+00  0.00000000000E+00  0.45593999997E+02  0.45594000000E+02  0.51100000000E-03 0.  1.
         11   -1    0    0    0    0 -0.00000000000E+00 -0.00000000000E+00 -0.45593999997E+02  0.45594000000E+02  0.51100000000E-03 0. -1.
    9900012    2    1    2    0    0 -0.84464485447E+01 -0.39546450388E+02  0.42310010898E+01  0.50528860787E+02  0.30000002848E+02 0.  0.
         12    1    1    2    0    0  0.84464485447E+01  0.39546450388E+02 -0.42310010898E+01  0.40659139213E+02  0.00000000000E+00 0. -1.
         11    1    3    3    0    0 -0.53887978152E+01 -0.13557385408E+02  0.12602384767E+02  0.19278535812E+02  0.51100000000E-03 0.  1.
        -11    1    3    3    0    0  0.45446453007E+01 -0.97429013610E+01 -0.78395981745E+01  0.13305533722E+02  0.51100000000E-03 0. -1.
        -12    1    3    3    0    0 -0.76022960303E+01 -0.16246163619E+02 -0.53178550231E+00  0.17944791252E+02  0.00000000000E+00 0.  1.
</event>
<event>
 7    1  0.3041451E-011  0.5052886E+02  0.7816164E-02  0.1300439E+00
        -11   -1    0    0    0    0  0.00000000000E+00  0.00000000000E+00  0.45593999997E+02  0.45594000000E+02  0.51100000000E-03 0.  1.
         11   -1    0    0    0    0 -0.00000000000E+00 -0.00000000000E+00 -0.45593999997E+02  0.45594000000E+02  0.51100000000E-03 0. -1.
    9900012    2    1    2    0    0 -0.29868580038E+02 -0.13534746091E+02  0.24038385742E+02  0.50528863089E+02  0.30000009846E+02 0.  0.
         12    1    1    2    0    0  0.29868580038E+02  0.13534746091E+02 -0.24038385742E+02  0.40659136911E+02  0.00000000000E+00 0. -1.
         11    1    3    3    0    0 -0.88295387336E+00  0.44122740380E+01 -0.12461451227E+01  0.46691163679E+01  0.51100000000E-03 0. -1.
        -11    1    3    3    0    0 -0.23681149246E+02 -0.60100693446E+01  0.20681317110E+02  0.32009914727E+02  0.51100000000E-03 0.  1.
        -12    1    3    3    0    0 -0.53044769191E+01 -0.11936950784E+02  0.46032137543E+01  0.13849831995E+02  0.00000000000E+00 0.  1.
</event>
<event>
 7    1  0.3041451E-011  0.5052886E+02  0.7816164E-02  0.1300439E+00
        -11   -1    0    0    0    0  0.00000000000E+00  0.00000000000E+00  0.45593999997E+02  0.45594000000E+02  0.51100000000E-03 0.  1.
         11   -1    0    0    0    0 -0.00000000000E+00 -0.00000000000E+00 -0.45593999997E+02  0.45594000000E+02  0.51100000000E-03 0. -1.
    9900012    2    1    2    0    0  0.11713942315E+02  0.23167567562E+02  0.31292384244E+02  0.50528856588E+02  0.29999990085E+02 0.  0.
         12    1    1    2    0    0 -0.11713942315E+02 -0.23167567562E+02 -0.31292384244E+02  0.40659143412E+02  0.00000000000E+00 0. -1.
         11    1    3    3    0    0  0.62576858459E+01 -0.36872349798E+01  0.35737935872E-01  0.72633058178E+01  0.51100000000E-03 0. -1.
        -11    1    3    3    0    0  0.88930511410E+01  0.16754686426E+02  0.22750779224E+02  0.29621003214E+02  0.51100000000E-03 0.  1.
        -12    1    3    3    0    0 -0.34367946714E+01  0.10100116116E+02  0.85058670839E+01  0.13644547556E+02  0.00000000000E+00 0.  1.
</event>
<event>
 7    1  0.3041451E-011  0.5052886E+02  0.7816164E-02  0.1300439E+00
        -11   -1    0    0    0    0  0.00000000000E+00  0.00000000000E+00  0.45593999997E+02  0.45594000000E+02  0.51100000000E-03 0.  1.
         11   -1    0    0    0    0 -0.00000000000E+00 -0.00000000000E+00 -0.45593999997E+02  0.45594000000E+02  0.51100000000E-03 0. -1.
    9900012    2    1    2    0    0 -0.28010202389E+02 -0.43610537011E+00  0.29468700507E+02  0.50528856682E+02  0.29999990370E+02 0.  0.
         12    1    1    2    0    0  0.28010202389E+02  0.43610537011E+00 -0.29468700507E+02  0.40659143318E+02  0.00000000000E+00 0. -1.
         11    1    3    3    0    0  0.12015047003E+01  0.22118342220E+01  0.63155329714E+01  0.67986602463E+01  0.51100000000E-03 0. -1.
        -11    1    3    3    0    0 -0.27723820374E+02  0.33831968950E+01  0.10878730068E+02  0.29973371608E+02  0.51100000000E-03 0.  1.
        -12    1    3    3    0    0 -0.14878867153E+01 -0.60311364872E+01  0.12274437467E+02  0.13756824828E+02  0.00000000000E+00 0.  1.
</event>
<event>
 7    1  0.3271662E-011  0.5052883E+02  0.7816164E-02  0.1300439E+00
        -11   -1    0    0    0    0  0.00000000000E+00  0.00000000000E+00  0.45593999997E+02  0.45594000000E+02  0.51100000000E-03 0.  1.
         11   -1    0    0    0    0 -0.00000000000E+00 -0.00000000000E+00 -0.45593999997E+02  0.45594000000E+02  0.51100000000E-03 0. -1.
    9900012    2    1    2    0    0  0.39757679927E+02  0.52993589209E+01  0.66642278215E+01  0.50528828211E+02  0.29999903830E+02 0.  0.
         12    1    1    2    0    0 -0.39757679927E+02 -0.52993589209E+01 -0.66642278215E+01  0.40659171789E+02  0.00000000000E+00 0. -1.
         11    1    3    3    0    0  0.18832656749E+02 -0.93768774049E+01 -0.41403175745E+00  0.21042010661E+02  0.51100000000E-03 0. -1.
        -11    1    3    3    0    0  0.15485207253E+02  0.67176618446E+01  0.97373158082E+01  0.19486763296E+02  0.51100000000E-03 0.  1.
         12    1    3    3    0    0  0.54398159244E+01  0.79585744812E+01 -0.26590562293E+01  0.10000054255E+02  0.00000000000E+00 0. -1.
</event>
<event>
 7    1  0.3041451E-011  0.5052886E+02  0.7816164E-02  0.1300439E+00
        -11   -1    0    0    0    0  0.00000000000E+00  0.00000000000E+00  0.45593999997E+02  0.45594000000E+02  0.51100000000E-03 0.  1.
         11   -1    0    0    0    0 -0.00000000000E+00 -0.00000000000E+00 -0.45593999997E+02  0.45594000000E+02  0.51100000000E-03 0. -1.
    9900012    2    1    2    0    0  0.27283703523E+02  0.29941296664E+02 -0.35048812018E+01  0.50528856919E+02  0.29999991092E+02 0.  0.
         12    1    1    2    0    0 -0.27283703523E+02 -0.29941296664E+02  0.35048812018E+01  0.40659143081E+02  0.00000000000E+00 0. -1.
         11    1    3    3    0    0  0.89695421276E+01  0.69734739346E+01 -0.81428860309E+01  0.13978147870E+02  0.51100000000E-03 0. -1.
        -11    1    3    3    0    0  0.17638232048E+02  0.26690911236E+02  0.59593742038E+01  0.32542681413E+02  0.51100000000E-03 0.  1.
        -12    1    3    3    0    0  0.67592934746E+00 -0.37230885070E+01 -0.13213693747E+01  0.40080276369E+01  0.00000000000E+00 0.  1.
</event>
<event>
 7    1  0.3041451E-011  0.5052886E+02  0.7816164E-02  0.1300439E+00
        -11   -1    0    0    0    0  0.00000000000E+00  0.00000000000E+00  0.45593999997E+02  0.45594000000E+02  0.51100000000E-03 0. -1.
         11   -1    0    0    0    0 -0.00000000000E+00 -0.00000000000E+00 -0.45593999997E+02  0.45594000000E+02  0.51100000000E-03 0.  1.
    9900012    2    1    2    0    0 -0.27264645953E+02  0.29305295497E+02 -0.71417259278E+01  0.50528861884E+02  0.30000006183E+02 0.  0.
         12    1    1    2    0    0  0.27264645953E+02 -0.29305295497E+02  0.71417259278E+01  0.40659138116E+02  0.00000000000E+00 0. -1.
         11    1    3    3    0    0  0.25070445288E+01  0.20490524208E+01  0.80076698497E+00  0.33354334228E+01  0.51100000000E-03 0. -1.
        -11    1    3    3    0    0 -0.28237108507E+02  0.19537010501E+02  0.21391353568E+01  0.34403560520E+02  0.51100000000E-03 0.  1.
        -12    1    3    3    0    0 -0.15345819750E+01  0.77192325746E+01 -0.10081628270E+02  0.12789867941E+02  0.00000000000E+00 0.  1.
</event>
<event>
 7    1  0.3041451E-011  0.5052886E+02  0.7816164E-02  0.1300439E+00
        -11   -1    0    0    0    0  0.00000000000E+00  0.00000000000E+00  0.45593999997E+02  0.45594000000E+02  0.51100000000E-03 0.  1.
         11   -1    0    0    0    0 -0.00000000000E+00 -0.00000000000E+00 -0.45593999997E+02  0.45594000000E+02  0.51100000000E-03 0. -1.
    9900012    2    1    2    0    0 -0.34599286550E+02 -0.27907412256E+00  0.21353626679E+02  0.50528857308E+02  0.29999992273E+02 0.  0.
         12    1    1    2    0    0  0.34599286550E+02  0.27907412256E+00 -0.21353626679E+02  0.40659142692E+02  0.00000000000E+00 0. -1.
         11    1    3    3    0    0 -0.48654693429E+01 -0.91424831993E+01 -0.75470327235E+00  0.10383995776E+02  0.51100000000E-03 0. -1.
        -11    1    3    3    0    0 -0.30622117181E+02  0.90748722083E+01  0.22582770157E+02  0.39115839176E+02  0.51100000000E-03 0.  1.
        -12    1    3    3    0    0  0.88829997451E+00 -0.21146313160E+00 -0.47444020548E+00  0.10290223561E+01  0.00000000000E+00 0.  1.
</event>
<event>
 7    1  0.3041451E-011  0.5052885E+02  0.7816164E-02  0.1300439E+00
        -11   -1    0    0    0    0  0.00000000000E+00  0.00000000000E+00  0.45593999997E+02  0.45594000000E+02  0.51100000000E-03 0. -1.
         11   -1    0    0    0    0 -0.00000000000E+00 -0.00000000000E+00 -0.45593999997E+02  0.45594000000E+02  0.51100000000E-03 0.  1.
    9900012    2    1    2    0    0  0.38375147254E+02  0.11841554157E+02  0.63476038925E+01  0.50528850885E+02  0.29999972749E+02 0.  0.
         12    1    1    2    0    0 -0.38375147254E+02 -0.11841554157E+02 -0.63476038925E+01  0.40659149115E+02  0.00000000000E+00 0. -1.
         11    1    3    3    0    0  0.10982566902E+02  0.46090318372E+01  0.12460886727E+02  0.17237565040E+02  0.51100000000E-03 0. -1.
        -11    1    3    3    0    0  0.24364135948E+02  0.11779069127E+02 -0.36805038150E+01  0.27311237588E+02  0.51100000000E-03 0.  1.
        -12    1    3    3    0    0  0.30284444039E+01 -0.45465468081E+01 -0.24327790197E+01  0.59800482561E+01  0.00000000000E+00 0.  1.
</event>
<event>
 7    1  0.3041451E-011  0.5052886E+02  0.7816164E-02  0.1300439E+00
        -11   -1    0    0    0    0  0.00000000000E+00  0.00000000000E+00  0.45593999997E+02  0.45594000000E+02  0.51100000000E-03 0.  1.
         11   -1    0    0    0    0 -0.00000000000E+00 -0.00000000000E+00 -0.45593999997E+02  0.45594000000E+02  0.51100000000E-03 0. -1.
    9900012    2    1    2    0    0 -0.93611799241E+01 -0.19342505927E+02  0.34516682877E+02  0.50528860537E+02  0.30000002087E+02 0.  0.
         12    1    1    2    0    0  0.93611799241E+01  0.19342505927E+02 -0.34516682877E+02  0.40659139463E+02  0.00000000000E+00 0. -1.
         11    1    3    3    0    0 -0.20188250617E+01 -0.52987423968E+01  0.95479958230E+01  0.11104798517E+02  0.51100000000E-03 0. -1.
        -11    1    3    3    0    0  0.41835253882E+01  0.60244937412E+01  0.52488817898E+01  0.90192665898E+01  0.51100000000E-03 0.  1.
        -12    1    3    3    0    0 -0.11525880251E+02 -0.20068257271E+02  0.19719805264E+02  0.30404795429E+02  0.00000000000E+00 0.  1.
</event>
<event>
 7    1  0.3041451E-011  0.5052885E+02  0.7816164E-02  0.1300439E+00
        -11   -1    0    0    0    0  0.00000000000E+00  0.00000000000E+00  0.45593999997E+02  0.45594000000E+02  0.51100000000E-03 0.  1.
         11   -1    0    0    0    0 -0.00000000000E+00 -0.00000000000E+00 -0.45593999997E+02  0.45594000000E+02  0.51100000000E-03 0. -1.
    9900012    2    1    2    0    0 -0.26839486723E+02 -0.41195009433E+01  0.30262815592E+02  0.50528851667E+02  0.29999975127E+02 0.  0.
         12    1    1    2    0    0  0.26839486723E+02  0.41195009433E+01 -0.30262815592E+02  0.40659148333E+02  0.00000000000E+00 0. -1.
         11    1    3    3    0    0 -0.71536837617E+01 -0.13356194124E+02  0.19809954706E+02  0.24939876073E+02  0.51100000000E-03 0. -1.
        -11    1    3    3    0    0 -0.29816342981E+01  0.11159481698E+01  0.55188359180E+01  0.63712662444E+01  0.51100000000E-03 0.  1.
         12    1    3    3    0    0 -0.16704168663E+02  0.81207450107E+01  0.49340249684E+01  0.19217709350E+02  0.00000000000E+00 0. -1.
</event>
<event>
 7    1  0.3041451E-011  0.5052884E+02  0.7816164E-02  0.1300439E+00
        -11   -1    0    0    0    0  0.00000000000E+00  0.00000000000E+00  0.45593999997E+02  0.45594000000E+02  0.51100000000E-03 0. -1.
         11   -1    0    0    0    0 -0.00000000000E+00 -0.00000000000E+00 -0.45593999997E+02  0.45594000000E+02  0.51100000000E-03 0.  1.
    9900012    2    1    2    0    0  0.36863045103E+02 -0.82159165120E+01 -0.15059282632E+02  0.50528839018E+02  0.29999936679E+02 0.  0.
         12    1    1    2    0    0 -0.36863045103E+02  0.82159165120E+01  0.15059282632E+02  0.40659160982E+02  0.00000000000E+00 0. -1.
         11    1    3    3    0    0  0.96581122223E+01  0.40062266391E+01 -0.22730664848E+01  0.10700271730E+02  0.51100000000E-03 0. -1.
        -11    1    3    3    0    0  0.23031852456E+01 -0.11930499030E+02 -0.77765349770E+01  0.14426224936E+02  0.51100000000E-03 0.  1.
        -12    1    3    3    0    0  0.24901747635E+02 -0.29164412074E+00 -0.50096811703E+01  0.25402342352E+02  0.00000000000E+00 0.  1.
</event>
<event>
 7    1  0.3041451E-011  0.5052886E+02  0.7816164E-02  0.1300439E+00
        -11   -1    0    0    0    0  0.00000000000E+00  0.00000000000E+00  0.45593999997E+02  0.45594000000E+02  0.51100000000E-03 0. -1.
         11   -1    0    0    0    0 -0.00000000000E+00 -0.00000000000E+00 -0.45593999997E+02  0.45594000000E+02  0.51100000000E-03 0.  1.
    9900012    2    1    2    0    0  0.32824312046E+02  0.23763577040E+02  0.33200794312E+01  0.50528856102E+02  0.29999988608E+02 0.  0.
         12    1    1    2    0    0 -0.32824312046E+02 -0.23763577040E+02 -0.33200794312E+01  0.40659143898E+02  0.00000000000E+00 0. -1.
         11    1    3    3    0    0  0.14485168208E+01  0.91483992602E+01 -0.89727769332E+01  0.12895818553E+02  0.51100000000E-03 0. -1.
        -11    1    3    3    0    0  0.17920680187E+02  0.12302982303E+02  0.57007432201E+01  0.22472485965E+02  0.51100000000E-03 0.  1.
         12    1    3    3    0    0  0.13455115038E+02  0.23121954769E+01  0.65921131443E+01  0.15160551584E+02  0.00000000000E+00 0. -1.
</event>
<event>
 7    1  0.3041451E-011  0.5052886E+02  0.7816164E-02  0.1300439E+00
        -11   -1    0    0    0    0  0.00000000000E+00  0.00000000000E+00  0.45593999997E+02  0.45594000000E+02  0.51100000000E-03 0.  1.
         11   -1    0    0    0    0 -0.00000000000E+00 -0.00000000000E+00 -0.45593999997E+02  0.45594000000E+02  0.51100000000E-03 0. -1.
    9900012    2    1    2    0    0 -0.20816695148E+02  0.32048546269E+02  0.13882417245E+02  0.50528860518E+02  0.30000002031E+02 0.  0.
         12    1    1    2    0    0  0.20816695148E+02 -0.32048546269E+02 -0.13882417245E+02  0.40659139482E+02  0.00000000000E+00 0. -1.
         11    1    3    3    0    0 -0.17030075889E+01 -0.39842117833E+01  0.38701348824E+01  0.58096577051E+01  0.51100000000E-03 0. -1.
        -11    1    3    3    0    0 -0.29888437230E+01  0.19021985336E+02  0.90097208670E+01  0.21258978886E+02  0.51100000000E-03 0.  1.
         12    1    3    3    0    0 -0.16124843836E+02  0.17010772717E+02  0.10025614957E+01  0.23460223927E+02  0.00000000000E+00 0. -1.
</event>
<event>
 7    1  0.3041451E-011  0.5052886E+02  0.7816164E-02  0.1300439E+00
        -11   -1    0    0    0    0  0.00000000000E+00  0.00000000000E+00  0.45593999997E+02  0.45594000000E+02  0.51100000000E-03 0.  1.
         11   -1    0    0    0    0 -0.00000000000E+00 -0.00000000000E+00 -0.45593999997E+02  0.45594000000E+02  0.51100000000E-03 0. -1.
    9900012    2    1    2    0    0  0.38240594190E+02  0.65704140888E+01  0.12151211229E+02  0.50528864253E+02  0.30000013385E+02 0.  0.
         12    1    1    2    0    0 -0.38240594190E+02 -0.65704140888E+01 -0.12151211229E+02  0.40659135747E+02  0.00000000000E+00 0. -1.
         11    1    3    3    0    0  0.21813168436E+02  0.11087443339E+02  0.78418722682E+01  0.25695148919E+02  0.51100000000E-03 0. -1.
        -11    1    3    3    0    0  0.77102293310E+00 -0.63227346787E+01  0.62872304782E+01  0.89499004200E+01  0.51100000000E-03 0.  1.
        -12    1    3    3    0    0  0.15656402821E+02  0.18057054286E+01 -0.19778915178E+01  0.15883814915E+02  0.00000000000E+00 0.  1.
</event>
<event>
 7    1  0.3041451E-011  0.5052886E+02  0.7816164E-02  0.1300439E+00
        -11   -1    0    0    0    0  0.00000000000E+00  0.00000000000E+00  0.45593999997E+02  0.45594000000E+02  0.51100000000E-03 0.  1.
         11   -1    0    0    0    0 -0.00000000000E+00 -0.00000000000E+00 -0.45593999997E+02  0.45594000000E+02  0.51100000000E-03 0. -1.
    9900012    2    1    2    0    0  0.92017971555E+01 -0.16913953187E+02  0.35810769039E+02  0.50528855119E+02  0.29999985620E+02 0.  0.
         12    1    1    2    0    0 -0.92017971555E+01  0.16913953187E+02 -0.35810769039E+02  0.40659144881E+02  0.00000000000E+00 0. -1.
         11    1    3    3    0    0  0.70682857509E+01 -0.87006202328E+01 -0.31349951338E+00  0.11214264938E+02  0.51100000000E-03 0. -1.
        -11    1    3    3    0    0  0.66189311377E+01 -0.62657287346E+01  0.30639999715E+02  0.31966845149E+02  0.51100000000E-03 0.  1.
         12    1    3    3    0    0 -0.44854197331E+01 -0.19476042197E+01  0.54842688371E+01  0.73477450320E+01  0.00000000000E+00 0. -1.
</event>
<event>
 7    1  0.3041451E-011  0.5052886E+02  0.7816164E-02  0.1300439E+00
        -11   -1    0    0    0    0  0.00000000000E+00  0.00000000000E+00  0.45593999997E+02  0.45594000000E+02  0.51100000000E-03 0.  1.
         11   -1    0    0    0    0 -0.00000000000E+00 -0.00000000000E+00 -0.45593999997E+02  0.45594000000E+02  0.51100000000E-03 0. -1.
    9900012    2    1    2    0    0  0.33264321044E+02  0.11549571975E+02  0.20328750198E+02  0.50528858938E+02  0.29999997227E+02 0.  0.
         12    1    1    2    0    0 -0.33264321044E+02 -0.11549571975E+02 -0.20328750198E+02  0.40659141062E+02  0.00000000000E+00 0. -1.
         11    1    3    3    0    0  0.36441771107E+01  0.14942947470E+02  0.57284656462E+01  0.16413013886E+02  0.51100000000E-03 0. -1.
        -11    1    3    3    0    0  0.12262965478E+02 -0.41763147958E+00  0.19296616274E+01  0.12420882924E+02  0.51100000000E-03 0.  1.
         12    1    3    3    0    0  0.17357178456E+02 -0.29757440162E+01  0.12670622925E+02  0.21694962127E+02  0.00000000000E+00 0. -1.
</event>
<event>
 7    1  0.3041451E-011  0.5052886E+02  0.7816164E-02  0.1300439E+00
        -11   -1    0    0    0    0  0.00000000000E+00  0.00000000000E+00  0.45593999997E+02  0.45594000000E+02  0.51100000000E-03 0. -1.
         11   -1    0    0    0    0 -0.00000000000E+00 -0.00000000000E+00 -0.45593999997E+02  0.45594000000E+02  0.51100000000E-03 0.  1.
    9900012    2    1    2    0    0  0.36605850775E+02  0.16694471062E+02 -0.58713121654E+01  0.50528856113E+02  0.29999988642E+02 0.  0.
         12    1    1    2    0    0 -0.36605850775E+02 -0.16694471062E+02  0.58713121654E+01  0.40659143887E+02  0.00000000000E+00 0. -1.
         11    1    3    3    0    0  0.95076798085E+01  0.52004840471E+01 -0.15669659403E+01  0.10949721101E+02  0.51100000000E-03 0. -1.
        -11    1    3    3    0    0  0.37777232587E+01 -0.80446319804E+01 -0.16554871349E+01  0.90403503602E+01  0.51100000000E-03 0.  1.
        -12    1    3    3    0    0  0.23320447708E+02  0.19538618996E+02 -0.26488590902E+01  0.30538784652E+02  0.00000000000E+00 0.  1.
</event>
<event>
 7    1  0.3041451E-011  0.5052887E+02  0.7816164E-02  0.1300439E+00
        -11   -1    0    0    0    0  0.00000000000E+00  0.00000000000E+00  0.45593999997E+02  0.45594000000E+02  0.51100000000E-03 0.  1.
         11   -1    0    0    0    0 -0.00000000000E+00 -0.00000000000E+00 -0.45593999997E+02  0.45594000000E+02  0.51100000000E-03 0. -1.
    9900012    2    1    2    0    0  0.23146842669E+02  0.20208185223E+02  0.26627393623E+02  0.50528866134E+02  0.30000019102E+02 0.  0.
         12    1    1    2    0    0 -0.23146842669E+02 -0.20208185223E+02 -0.26627393623E+02  0.40659133866E+02  0.00000000000E+00 0. -1.
         11    1    3    3    0    0 -0.10755135459E+01  0.18702139505E+01 -0.54960172571E+01  0.59042895897E+01  0.51100000000E-03 0. -1.
        -11    1    3    3    0    0  0.12616645589E+02  0.82352615978E+01  0.11821890731E+02  0.19150884580E+02  0.51100000000E-03 0.  1.
         12    1    3    3    0    0  0.11605710626E+02  0.10102709675E+02  0.20301520149E+02  0.25473691964E+02  0.00000000000E+00 0. -1.
</event>
<event>
 7    1  0.3041451E-011  0.5052886E+02  0.7816164E-02  0.1300439E+00
        -11   -1    0    0    0    0  0.00000000000E+00  0.00000000000E+00  0.45593999997E+02  0.45594000000E+02  0.51100000000E-03 0.  1.
         11   -1    0    0    0    0 -0.00000000000E+00 -0.00000000000E+00 -0.45593999997E+02  0.45594000000E+02  0.51100000000E-03 0. -1.
    9900012    2    1    2    0    0 -0.27842604307E+02 -0.22807382626E+02  0.18915020508E+02  0.50528864278E+02  0.30000013458E+02 0.  0.
         12    1    1    2    0    0  0.27842604307E+02  0.22807382626E+02 -0.18915020508E+02  0.40659135722E+02  0.00000000000E+00 0. -1.
         11    1    3    3    0    0 -0.13489853679E+02  0.43897504591E+01  0.27988903696E+01  0.14459593664E+02  0.51100000000E-03 0. -1.
        -11    1    3    3    0    0 -0.69480028592E+01 -0.46268882988E+01  0.58413831285E+01  0.10188454062E+02  0.51100000000E-03 0.  1.
         12    1    3    3    0    0 -0.74047477693E+01 -0.22570244786E+02  0.10274747010E+02  0.25880816551E+02  0.00000000000E+00 0. -1.
</event>
<event>
 7    1  0.3041451E-011  0.5052885E+02  0.7816164E-02  0.1300439E+00
        -11   -1    0    0    0    0  0.00000000000E+00  0.00000000000E+00  0.45593999997E+02  0.45594000000E+02  0.51100000000E-03 0.  1.
         11   -1    0    0    0    0 -0.00000000000E+00 -0.00000000000E+00 -0.45593999997E+02  0.45594000000E+02  0.51100000000E-03 0. -1.
    9900012    2    1    2    0    0 -0.12361709462E+02 -0.26857907324E+02  0.27910704778E+02  0.50528849888E+02  0.29999969719E+02 0.  0.
         12    1    1    2    0    0  0.12361709462E+02  0.26857907324E+02 -0.27910704778E+02  0.40659150112E+02  0.00000000000E+00 0. -1.
         11    1    3    3    0    0 -0.24918068350E+01 -0.38497614934E+01 -0.25187193799E+01  0.52319893381E+01  0.51100000000E-03 0. -1.
        -11    1    3    3    0    0  0.13477402573E+01 -0.20227221202E+02  0.25884710492E+02  0.32878186064E+02  0.51100000000E-03 0.  1.
        -12    1    3    3    0    0 -0.11217642885E+02 -0.27809246285E+01  0.45447136654E+01  0.12418674486E+02  0.00000000000E+00 0.  1.
</event>
<event>
 7    1  0.3041451E-011  0.5052886E+02  0.7816164E-02  0.1300439E+00
        -11   -1    0    0    0    0  0.00000000000E+00  0.00000000000E+00  0.45593999997E+02  0.45594000000E+02  0.51100000000E-03 0.  1.
         11   -1    0    0    0    0 -0.00000000000E+00 -0.00000000000E+00 -0.45593999997E+02  0.45594000000E+02  0.51100000000E-03 0. -1.
    9900012    2    1    2    0    0 -0.32319510590E+02  0.11312479530E+02  0.21923561777E+02  0.50528861803E+02  0.30000005937E+02 0.  0.
         12    1    1    2    0    0  0.32319510590E+02 -0.11312479530E+02 -0.21923561777E+02  0.40659138197E+02  0.00000000000E+00 0. -1.
         11    1    3    3    0    0 -0.13890019079E+02  0.73457074004E+01 -0.42724116962E+01  0.16283290491E+02  0.51100000000E-03 0. -1.
        -11    1    3    3    0    0 -0.17200036197E+02  0.45236847361E+01  0.15883467462E+02  0.23845114965E+02  0.51100000000E-03 0.  1.
         12    1    3    3    0    0 -0.12294553135E+01 -0.55691260648E+00  0.10312506011E+02  0.10400456348E+02  0.00000000000E+00 0. -1.
</event>
<event>
 7    1  0.3041451E-011  0.5052887E+02  0.7816164E-02  0.1300439E+00
        -11   -1    0    0    0    0  0.00000000000E+00  0.00000000000E+00  0.45593999997E+02  0.45594000000E+02  0.51100000000E-03 0.  1.
         11   -1    0    0    0    0 -0.00000000000E+00 -0.00000000000E+00 -0.45593999997E+02  0.45594000000E+02  0.51100000000E-03 0. -1.
    9900012    2    1    2    0    0  0.23522392783E+02  0.88243433957E+01  0.31968628371E+02  0.50528865743E+02  0.30000017913E+02 0.  0.
         12    1    1    2    0    0 -0.23522392783E+02 -0.88243433957E+01 -0.31968628371E+02  0.40659134257E+02  0.00000000000E+00 0. -1.
         11    1    3    3    0    0  0.19054556568E+02  0.10396522022E+02  0.28244792908E+02  0.35622073534E+02  0.51100000000E-03 0. -1.
        -11    1    3    3    0    0  0.38343037272E+01  0.56126321369E+01  0.17035610280E-01  0.67973388212E+01  0.51100000000E-03 0.  1.
         12    1    3    3    0    0  0.63353248776E+00 -0.71848107630E+01  0.37067998524E+01  0.81094533885E+01  0.00000000000E+00 0. -1.
</event>
<event>
 7    1  0.3041451E-011  0.5052886E+02  0.7816164E-02  0.1300439E+00
        -11   -1    0    0    0    0  0.00000000000E+00  0.00000000000E+00  0.45593999997E+02  0.45594000000E+02  0.51100000000E-03 0.  1.
         11   -1    0    0    0    0 -0.00000000000E+00 -0.00000000000E+00 -0.45593999997E+02  0.45594000000E+02  0.51100000000E-03 0. -1.
    9900012    2    1    2    0    0 -0.32189394849E+02  0.13451598156E+02  0.20882121348E+02  0.50528860490E+02  0.30000001944E+02 0.  0.
         12    1    1    2    0    0  0.32189394849E+02 -0.13451598156E+02 -0.20882121348E+02  0.40659139510E+02  0.00000000000E+00 0. -1.
         11    1    3    3    0    0 -0.29569313126E+01  0.89910752107E+01  0.15314449774E+02  0.18003201059E+02  0.51100000000E-03 0. -1.
        -11    1    3    3    0    0 -0.17357938683E+02  0.36072029368E+01  0.93381055513E+01  0.20037718530E+02  0.51100000000E-03 0.  1.
         12    1    3    3    0    0 -0.11874524854E+02  0.85332000838E+00 -0.37704339773E+01  0.12487940900E+02  0.00000000000E+00 0. -1.
</event>
<event>
 7    1  0.3041451E-011  0.5052886E+02  0.7816164E-02  0.1300439E+00
        -11   -1    0    0    0    0  0.00000000000E+00  0.00000000000E+00  0.45593999997E+02  0.45594000000E+02  0.51100000000E-03 0.  1.
         11   -1    0    0    0    0 -0.00000000000E+00 -0.00000000000E+00 -0.45593999997E+02  0.45594000000E+02  0.51100000000E-03 0. -1.
    9900012    2    1    2    0    0 -0.21593877524E+02 -0.11681146431E+02  0.32410195140E+02  0.50528862313E+02  0.30000007486E+02 0.  0.
         12    1    1    2    0    0  0.21593877524E+02  0.11681146431E+02 -0.32410195140E+02  0.40659137687E+02  0.00000000000E+00 0. -1.
         11    1    3    3    0    0 -0.21364381756E+01 -0.59179502319E+01 -0.15393027423E+01  0.64773417556E+01  0.51100000000E-03 0. -1.
        -11    1    3    3    0    0 -0.20977495407E+02  0.11167057736E+01  0.24732641352E+02  0.32450052293E+02  0.51100000000E-03 0.  1.
        -12    1    3    3    0    0  0.15200560587E+01 -0.68799019727E+01  0.92168565306E+01  0.11601468264E+02  0.00000000000E+00 0.  1.
</event>
<event>
 7    1  0.3041451E-011  0.5052885E+02  0.7816164E-02  0.1300439E+00
        -11   -1    0    0    0    0  0.00000000000E+00  0.00000000000E+00  0.45593999997E+02  0.45594000000E+02  0.51100000000E-03 0. -1.
         11   -1    0    0    0    0 -0.00000000000E+00 -0.00000000000E+00 -0.45593999997E+02  0.45594000000E+02  0.51100000000E-03 0.  1.
    9900012    2    1    2    0    0 -0.38128131098E+02 -0.10024280246E+02 -0.99461606759E+01  0.50528847430E+02  0.29999962249E+02 0.  0.
         12    1    1    2    0    0  0.38128131098E+02  0.10024280246E+02  0.99461606759E+01  0.40659152570E+02  0.00000000000E+00 0. -1.
         11    1    3    3    0    0 -0.56273570936E+01  0.82206165997E+01 -0.71982048053E+01  0.12290640253E+02  0.51100000000E-03 0. -1.
        -11    1    3    3    0    0 -0.12577562644E+02 -0.36219851374E+01 -0.33742491806E+01  0.13516634796E+02  0.51100000000E-03 0.  1.
         12    1    3    3    0    0 -0.19923211360E+02 -0.14622911708E+02  0.62629331005E+00  0.24721572382E+02  0.00000000000E+00 0. -1.
</event>
<event>
 7    1  0.3041451E-011  0.5052882E+02  0.7816164E-02  0.1300439E+00
        -11   -1    0    0    0    0  0.00000000000E+00  0.00000000000E+00  0.45593999997E+02  0.45594000000E+02  0.51100000000E-03 0. -1.
         11   -1    0    0    0    0 -0.00000000000E+00 -0.00000000000E+00 -0.45593999997E+02  0.45594000000E+02  0.51100000000E-03 0.  1.
    9900012    2    1    2    0    0 -0.29279530699E+02 -0.36883875147E+01 -0.27969154187E+02  0.50528822606E+02  0.29999886793E+02 0.  0.
         12    1    1    2    0    0  0.29279530699E+02  0.36883875147E+01  0.27969154187E+02  0.40659177394E+02  0.00000000000E+00 0. -1.
         11    1    3    3    0    0 -0.75757427192E+01 -0.66581507772E+01 -0.80178884166E+00  0.10117594335E+02  0.51100000000E-03 0. -1.
        -11    1    3    3    0    0 -0.90448214153E+01  0.35212670214E+01 -0.25921568190E+02  0.27679158469E+02  0.51100000000E-03 0.  1.
        -12    1    3    3    0    0 -0.12658966565E+02 -0.55150375890E+00 -0.12457971552E+01  0.12732069802E+02  0.00000000000E+00 0.  1.
</event>
<event>
 7    1  0.3041451E-011  0.5052885E+02  0.7816164E-02  0.1300439E+00
        -11   -1    0    0    0    0  0.00000000000E+00  0.00000000000E+00  0.45593999997E+02  0.45594000000E+02  0.51100000000E-03 0. -1.
         11   -1    0    0    0    0 -0.00000000000E+00 -0.00000000000E+00 -0.45593999997E+02  0.45594000000E+02  0.51100000000E-03 0.  1.
    9900012    2    1    2    0    0 -0.31167399173E+02  0.15394279380E+02  0.21089708021E+02  0.50528851051E+02  0.29999973254E+02 0.  0.
         12    1    1    2    0    0  0.31167399173E+02 -0.15394279380E+02 -0.21089708021E+02  0.40659148949E+02  0.00000000000E+00 0. -1.
         11    1    3    3    0    0 -0.84884208680E+00  0.13604717030E+02  0.78431991176E+01  0.15726558143E+02  0.51100000000E-03 0. -1.
        -11    1    3    3    0    0 -0.17626165559E+02  0.52001821511E+01  0.42116363476E+01  0.18853686316E+02  0.51100000000E-03 0.  1.
         12    1    3    3    0    0 -0.12692391527E+02 -0.34106198011E+01  0.90348725562E+01  0.15948606592E+02  0.00000000000E+00 0. -1.
</event>
<event>
 7    1  0.3041451E-011  0.5052886E+02  0.7816164E-02  0.1300439E+00
        -11   -1    0    0    0    0  0.00000000000E+00  0.00000000000E+00  0.45593999997E+02  0.45594000000E+02  0.51100000000E-03 0. -1.
         11   -1    0    0    0    0 -0.00000000000E+00 -0.00000000000E+00 -0.45593999997E+02  0.45594000000E+02  0.51100000000E-03 0.  1.
    9900012    2    1    2    0    0  0.74932103220E+00 -0.39235988980E+02 -0.10636776747E+02  0.50528864091E+02  0.30000012892E+02 0.  0.
         12    1    1    2    0    0 -0.74932103220E+00  0.39235988980E+02  0.10636776747E+02  0.40659135909E+02  0.00000000000E+00 0. -1.
         11    1    3    3    0    0 -0.59515885093E+01 -0.18788431364E+02  0.23270981484E+01  0.19845451493E+02  0.51100000000E-03 0. -1.
        -11    1    3    3    0    0  0.63078628716E+01 -0.13989410060E+02 -0.17121888256E+02  0.22992428874E+02  0.51100000000E-03 0.  1.
        -12    1    3    3    0    0  0.39304666996E+00 -0.64581475571E+01  0.41580133603E+01  0.76909837250E+01  0.00000000000E+00 0.  1.
</event>
<event>
 7    1  0.3041451E-011  0.5052886E+02  0.7816164E-02  0.1300439E+00
        -11   -1    0    0    0    0  0.00000000000E+00  0.00000000000E+00  0.45593999997E+02  0.45594000000E+02  0.51100000000E-03 0.  1.
         11   -1    0    0    0    0 -0.00000000000E+00 -0.00000000000E+00 -0.45593999997E+02  0.45594000000E+02  0.51100000000E-03 0. -1.
    9900012    2    1    2    0    0  0.97851311061E+01 -0.29976673635E+02  0.25667406520E+02  0.50528861907E+02  0.30000006254E+02 0.  0.
         12    1    1    2    0    0 -0.97851311061E+01  0.29976673635E+02 -0.25667406520E+02  0.40659138093E+02  0.00000000000E+00 0. -1.
         11    1    3    3    0    0  0.18132837293E+01  0.21723822990E+00 -0.55822097808E+01  0.58733513967E+01  0.51100000000E-03 0. -1.
        -11    1    3    3    0    0  0.78844028437E+01 -0.17935986441E+02  0.20413174477E+02  0.28294188631E+02  0.51100000000E-03 0.  1.
         12    1    3    3    0    0  0.87444533144E-01 -0.12257925425E+02  0.10836441823E+02  0.16361321880E+02  0.00000000000E+00 0. -1.
</event>
<event>
 7    1  0.3041451E-011  0.5052888E+02  0.7816164E-02  0.1300439E+00
        -11   -1    0    0    0    0  0.00000000000E+00  0.00000000000E+00  0.45593999997E+02  0.45594000000E+02  0.51100000000E-03 0. -1.
         11   -1    0    0    0    0 -0.00000000000E+00 -0.00000000000E+00 -0.45593999997E+02  0.45594000000E+02  0.51100000000E-03 0.  1.
    9900012    2    1    2    0    0 -0.28793366124E+02 -0.27641528893E+02 -0.77493213540E+01  0.50528880067E+02  0.30000061451E+02 0.  0.
         12    1    1    2    0    0  0.28793366124E+02  0.27641528893E+02  0.77493213540E+01  0.40659119933E+02  0.00000000000E+00 0. -1.
         11    1    3    3    0    0 -0.19110444863E+01 -0.18478373374E+02 -0.29425667852E+01  0.18808537240E+02  0.51100000000E-03 0. -1.
        -11    1    3    3    0    0 -0.25127596292E+02 -0.10226317314E+02 -0.70950222101E+00  0.27138110746E+02  0.51100000000E-03 0.  1.
         12    1    3    3    0    0 -0.17547253459E+01  0.10631617946E+01 -0.40972523477E+01  0.45822320808E+01  0.00000000000E+00 0. -1.
</event>
<event>
 7    1  0.3041451E-011  0.5052886E+02  0.7816164E-02  0.1300439E+00
        -11   -1    0    0    0    0  0.00000000000E+00  0.00000000000E+00  0.45593999997E+02  0.45594000000E+02  0.51100000000E-03 0.  1.
         11   -1    0    0    0    0 -0.00000000000E+00 -0.00000000000E+00 -0.45593999997E+02  0.45594000000E+02  0.51100000000E-03 0. -1.
    9900012    2    1    2    0    0  0.97829758044E+00 -0.40527611316E+02  0.31178762452E+01  0.50528862068E+02  0.30000006741E+02 0.  0.
         12    1    1    2    0    0 -0.97829758044E+00  0.40527611316E+02 -0.31178762452E+01  0.40659137932E+02  0.00000000000E+00 0. -1.
         11    1    3    3    0    0 -0.72465603959E+00 -0.27277136586E+02 -0.10013406245E+02  0.29066056004E+02  0.51100000000E-03 0. -1.
        -11    1    3    3    0    0  0.18657748475E+01 -0.14752093213E+02  0.13291184683E+02  0.19943945460E+02  0.51100000000E-03 0.  1.
         12    1    3    3    0    0 -0.16282122743E+00  0.15016184840E+01 -0.15990219260E+00  0.15188606042E+01  0.00000000000E+00 0. -1.
</event>
<event>
 7    1  0.3041451E-011  0.5052883E+02  0.7816164E-02  0.1300439E+00
        -11   -1    0    0    0    0  0.00000000000E+00  0.00000000000E+00  0.45593999997E+02  0.45594000000E+02  0.51100000000E-03 0. -1.
         11   -1    0    0    0    0 -0.00000000000E+00 -0.00000000000E+00 -0.45593999997E+02  0.45594000000E+02  0.51100000000E-03 0.  1.
    9900012    2    1    2    0    0 -0.21934253798E+02 -0.18322045241E+02 -0.28919880369E+02  0.50528827455E+02  0.29999901533E+02 0.  0.
         12    1    1    2    0    0  0.21934253798E+02  0.18322045241E+02  0.28919880369E+02  0.40659172545E+02  0.00000000000E+00 0. -1.
         11    1    3    3    0    0 -0.73147570380E+01 -0.33371845767E+01 -0.28750763852E+00  0.80451931193E+01  0.51100000000E-03 0. -1.
        -11    1    3    3    0    0 -0.32125497042E+01 -0.17563005376E+02 -0.23981650756E+02  0.29898147211E+02  0.51100000000E-03 0.  1.
        -12    1    3    3    0    0 -0.11406947056E+02  0.25781447116E+01 -0.46507219744E+01  0.12585487125E+02  0.00000000000E+00 0.  1.
</event>
<event>
 7    1  0.3041451E-011  0.5052887E+02  0.7816164E-02  0.1300439E+00
        -11   -1    0    0    0    0  0.00000000000E+00  0.00000000000E+00  0.45593999997E+02  0.45594000000E+02  0.51100000000E-03 0.  1.
         11   -1    0    0    0    0 -0.00000000000E+00 -0.00000000000E+00 -0.45593999997E+02  0.45594000000E+02  0.51100000000E-03 0. -1.
    9900012    2    1    2    0    0  0.50081922724E+01  0.39792195991E+02 -0.66831266246E+01  0.50528867777E+02  0.30000024095E+02 0.  0.
         12    1    1    2    0    0 -0.50081922724E+01 -0.39792195991E+02  0.66831266246E+01  0.40659132223E+02  0.00000000000E+00 0. -1.
         11    1    3    3    0    0 -0.16424615084E+01 -0.31847044685E+01  0.21295509509E+01  0.41683341842E+01  0.51100000000E-03 0. -1.
        -11    1    3    3    0    0  0.62809262109E+01  0.38224983780E+02 -0.30143587753E+01  0.38854675113E+02  0.51100000000E-03 0.  1.
         12    1    3    3    0    0  0.36972756987E+00  0.47519166797E+01 -0.57983188001E+01  0.75058584795E+01  0.00000000000E+00 0. -1.
</event>
<event>
 7    1  0.3041451E-011  0.5052886E+02  0.7816164E-02  0.1300439E+00
        -11   -1    0    0    0    0  0.00000000000E+00  0.00000000000E+00  0.45593999997E+02  0.45594000000E+02  0.51100000000E-03 0.  1.
         11   -1    0    0    0    0 -0.00000000000E+00 -0.00000000000E+00 -0.45593999997E+02  0.45594000000E+02  0.51100000000E-03 0. -1.
    9900012    2    1    2    0    0  0.31723404179E+02 -0.12879903598E+02  0.21929427280E+02  0.50528855024E+02  0.29999985330E+02 0.  0.
         12    1    1    2    0    0 -0.31723404179E+02  0.12879903598E+02 -0.21929427280E+02  0.40659144976E+02  0.00000000000E+00 0. -1.
         11    1    3    3    0    0  0.16902599190E+02  0.12632789719E+01 -0.33890646967E+01  0.17285239163E+02  0.51100000000E-03 0. -1.
        -11    1    3    3    0    0  0.11426409665E+02 -0.65340256533E+01  0.16579297668E+02  0.21169068012E+02  0.51100000000E-03 0.  1.
        -12    1    3    3    0    0  0.33943953241E+01 -0.76091569164E+01  0.87391943088E+01  0.12074547849E+02  0.00000000000E+00 0.  1.
</event>
<event>
 7    1  0.3041451E-011  0.5052886E+02  0.7816164E-02  0.1300439E+00
        -11   -1    0    0    0    0  0.00000000000E+00  0.00000000000E+00  0.45593999997E+02  0.45594000000E+02  0.51100000000E-03 0.  1.
         11   -1    0    0    0    0 -0.00000000000E+00 -0.00000000000E+00 -0.45593999997E+02  0.45594000000E+02  0.51100000000E-03 0. -1.
    9900012    2    1    2    0    0 -0.17527021934E+02  0.18044611715E+02  0.31943089631E+02  0.50528862220E+02  0.30000007204E+02 0.  0.
         12    1    1    2    0    0  0.17527021934E+02 -0.18044611715E+02 -0.31943089631E+02  0.40659137780E+02  0.00000000000E+00 0. -1.
         11    1    3    3    0    0 -0.15123133176E+02  0.37615673215E+01  0.19882688194E+01  0.15710243758E+02  0.51100000000E-03 0. -1.
        -11    1    3    3    0    0 -0.17761304254E+01  0.15870806398E+02  0.26029277452E+02  0.30537852248E+02  0.51100000000E-03 0.  1.
         12    1    3    3    0    0 -0.62775833311E+00 -0.15877620050E+01  0.39255433602E+01  0.42807662144E+01  0.00000000000E+00 0. -1.
</event>
<event>
 7    1  0.3041451E-011  0.5052886E+02  0.7816164E-02  0.1300439E+00
        -11   -1    0    0    0    0  0.00000000000E+00  0.00000000000E+00  0.45593999997E+02  0.45594000000E+02  0.51100000000E-03 0. -1.
         11   -1    0    0    0    0 -0.00000000000E+00 -0.00000000000E+00 -0.45593999997E+02  0.45594000000E+02  0.51100000000E-03 0.  1.
    9900012    2    1    2    0    0 -0.12643874660E+02 -0.45550105882E+01 -0.38373821931E+02  0.50528857148E+02  0.29999991786E+02 0.  0.
         12    1    1    2    0    0  0.12643874660E+02  0.45550105882E+01  0.38373821931E+02  0.40659142852E+02  0.00000000000E+00 0. -1.
         11    1    3    3    0    0  0.46042844524E+01 -0.94478858908E+01 -0.55508256307E+01  0.11885859185E+02  0.51100000000E-03 0. -1.
        -11    1    3    3    0    0 -0.16198543582E+02  0.19408079001E+01 -0.30966409723E+02  0.35001115424E+02  0.51100000000E-03 0.  1.
         12    1    3    3    0    0 -0.10496155297E+01  0.29520674025E+01 -0.18565865774E+01  0.36418825391E+01  0.00000000000E+00 0. -1.
</event>
<event>
 7    1  0.3041451E-011  0.5052885E+02  0.7816164E-02  0.1300439E+00
        -11   -1    0    0    0    0  0.00000000000E+00  0.00000000000E+00  0.45593999997E+02  0.45594000000E+02  0.51100000000E-03 0.  1.
         11   -1    0    0    0    0 -0.00000000000E+00 -0.00000000000E+00 -0.45593999997E+02  0.45594000000E+02  0.51100000000E-03 0. -1.
    9900012    2    1    2    0    0 -0.20224573811E+02  0.19961521257E+02  0.29080418730E+02  0.50528850104E+02  0.29999970376E+02 0.  0.
         12    1    1    2    0    0  0.20224573811E+02 -0.19961521257E+02 -0.29080418730E+02  0.40659149896E+02  0.00000000000E+00 0. -1.
         11    1    3    3    0    0 -0.13991967595E+01 -0.14204378047E+01  0.10193041950E+01  0.22392803379E+01  0.51100000000E-03 0. -1.
        -11    1    3    3    0    0 -0.16524854253E+02  0.27868787387E+02  0.23679683579E+02  0.40130630859E+02  0.51100000000E-03 0.  1.
        -12    1    3    3    0    0 -0.23005227989E+01 -0.64868283248E+01  0.43814309564E+01  0.81589389071E+01  0.00000000000E+00 0.  1.
</event>
<event>
 7    1  0.3041451E-011  0.5052885E+02  0.7816164E-02  0.1300439E+00
        -11   -1    0    0    0    0  0.00000000000E+00  0.00000000000E+00  0.45593999997E+02  0.45594000000E+02  0.51100000000E-03 0. -1.
         11   -1    0    0    0    0 -0.00000000000E+00 -0.00000000000E+00 -0.45593999997E+02  0.45594000000E+02  0.51100000000E-03 0.  1.
    9900012    2    1    2    0    0 -0.68782363772E+01 -0.38071342043E+02 -0.12507157981E+02  0.50528853165E+02  0.29999979681E+02 0.  0.
         12    1    1    2    0    0  0.68782363772E+01  0.38071342043E+02  0.12507157981E+02  0.40659146835E+02  0.00000000000E+00 0. -1.
         11    1    3    3    0    0  0.32671834374E+01 -0.27335559045E+02 -0.18470024920E+02  0.33151909398E+02  0.51100000000E-03 0. -1.
        -11    1    3    3    0    0 -0.66154013450E+01 -0.27762107535E+01  0.71339340977E+00  0.72097025959E+01  0.51100000000E-03 0.  1.
         12    1    3    3    0    0 -0.35300184697E+01 -0.79595722437E+01  0.52494735294E+01  0.10167241171E+02  0.00000000000E+00 0. -1.
</event>
<event>
 7    1  0.3041451E-011  0.5052885E+02  0.7816164E-02  0.1300439E+00
        -11   -1    0    0    0    0  0.00000000000E+00  0.00000000000E+00  0.45593999997E+02  0.45594000000E+02  0.51100000000E-03 0.  1.
         11   -1    0    0    0    0 -0.00000000000E+00 -0.00000000000E+00 -0.45593999997E+02  0.45594000000E+02  0.51100000000E-03 0. -1.
    9900012    2    1    2    0    0 -0.26761645294E+01 -0.40471314488E+02 -0.28420760201E+01  0.50528849135E+02  0.29999967429E+02 0.  0.
         12    1    1    2    0    0  0.26761645294E+01  0.40471314488E+02  0.28420760201E+01  0.40659150865E+02  0.00000000000E+00 0. -1.
         11    1    3    3    0    0  0.43488851123E+01 -0.15853778689E+02 -0.12059065247E+02  0.20388137613E+02  0.51100000000E-03 0. -1.
        -11    1    3    3    0    0 -0.75336366871E+01 -0.10454876580E+02  0.94284675803E+01  0.15967345653E+02  0.51100000000E-03 0.  1.
         12    1    3    3    0    0  0.50858704540E+00 -0.14162659219E+02 -0.21147835361E+00  0.14173365868E+02  0.00000000000E+00 0. -1.
</event>
<event>
 7    1  0.3041451E-011  0.5052886E+02  0.7816164E-02  0.1300439E+00
        -11   -1    0    0    0    0  0.00000000000E+00  0.00000000000E+00  0.45593999997E+02  0.45594000000E+02  0.51100000000E-03 0. -1.
         11   -1    0    0    0    0 -0.00000000000E+00 -0.00000000000E+00 -0.45593999997E+02  0.45594000000E+02  0.51100000000E-03 0.  1.
    9900012    2    1    2    0    0  0.10420656535E+02  0.25275791009E+02 -0.30095011497E+02  0.50528863133E+02  0.30000009979E+02 0.  0.
         12    1    1    2    0    0 -0.10420656535E+02 -0.25275791009E+02  0.30095011497E+02  0.40659136867E+02  0.00000000000E+00 0. -1.
         11    1    3    3    0    0 -0.73374454968E+01  0.10018786715E+02 -0.41090689621E-01  0.12418368748E+02  0.51100000000E-03 0. -1.
        -11    1    3    3    0    0  0.79823385725E+01  0.73030815158E+01 -0.13262675946E+02  0.17115820233E+02  0.51100000000E-03 0.  1.
         12    1    3    3    0    0  0.97757634598E+01  0.79539227785E+01 -0.16791244861E+02  0.20994674153E+02  0.00000000000E+00 0. -1.
</event>
<event>
 7    1  0.3041451E-011  0.5052888E+02  0.7816164E-02  0.1300439E+00
        -11   -1    0    0    0    0  0.00000000000E+00  0.00000000000E+00  0.45593999997E+02  0.45594000000E+02  0.51100000000E-03 0.  1.
         11   -1    0    0    0    0 -0.00000000000E+00 -0.00000000000E+00 -0.45593999997E+02  0.45594000000E+02  0.51100000000E-03 0. -1.
    9900012    2    1    2    0    0  0.16779760360E+02 -0.25795304331E+02  0.26574532308E+02  0.50528882318E+02  0.30000068295E+02 0.  0.
         12    1    1    2    0    0 -0.16779760360E+02  0.25795304331E+02 -0.26574532308E+02  0.40659117682E+02  0.00000000000E+00 0. -1.
         11    1    3    3    0    0  0.80649370298E+01  0.48289940183E+01  0.30658204939E+01  0.98874490181E+01  0.51100000000E-03 0. -1.
        -11    1    3    3    0    0  0.54696615712E+01 -0.17339414335E+02  0.77177244275E+01  0.19751854541E+02  0.51100000000E-03 0.  1.
         12    1    3    3    0    0  0.32451617592E+01 -0.13284884014E+02  0.15790987387E+02  0.20889578760E+02  0.00000000000E+00 0. -1.
</event>
<event>
 7    1  0.3041451E-011  0.5052886E+02  0.7816164E-02  0.1300439E+00
        -11   -1    0    0    0    0  0.00000000000E+00  0.00000000000E+00  0.45593999997E+02  0.45594000000E+02  0.51100000000E-03 0.  1.
         11   -1    0    0    0    0 -0.00000000000E+00 -0.00000000000E+00 -0.45593999997E+02  0.45594000000E+02  0.51100000000E-03 0. -1.
    9900012    2    1    2    0    0 -0.33357354458E+02  0.13472345001E+01  0.23208572743E+02  0.50528856059E+02  0.29999988478E+02 0.  0.
         12    1    1    2    0    0  0.33357354458E+02 -0.13472345001E+01 -0.23208572743E+02  0.40659143941E+02  0.00000000000E+00 0. -1.
         11    1    3    3    0    0 -0.31007731879E+01 -0.27535499392E+01 -0.21326642551E+01  0.46631629519E+01  0.51100000000E-03 0. -1.
        -11    1    3    3    0    0 -0.14717193406E+02  0.13549556039E+02  0.12249971491E+02  0.23457366698E+02  0.51100000000E-03 0.  1.
        -12    1    3    3    0    0 -0.15539387864E+02 -0.94487715993E+01  0.13091265507E+02  0.22408326410E+02  0.00000000000E+00 0.  1.
</event>
<event>
 7    1  0.3041451E-011  0.5052886E+02  0.7816164E-02  0.1300439E+00
        -11   -1    0    0    0    0  0.00000000000E+00  0.00000000000E+00  0.45593999997E+02  0.45594000000E+02  0.51100000000E-03 0. -1.
         11   -1    0    0    0    0 -0.00000000000E+00 -0.00000000000E+00 -0.45593999997E+02  0.45594000000E+02  0.51100000000E-03 0.  1.
    9900012    2    1    2    0    0 -0.24300274083E+02 -0.29770393837E+02 -0.13281053027E+02  0.50528855405E+02  0.29999986488E+02 0.  0.
         12    1    1    2    0    0  0.24300274083E+02  0.29770393837E+02  0.13281053027E+02  0.40659144595E+02  0.00000000000E+00 0. -1.
         11    1    3    3    0    0 -0.54205199561E+00  0.16284069463E+01 -0.92469642001E+00  0.19495110359E+01  0.51100000000E-03 0. -1.
        -11    1    3    3    0    0 -0.26465244895E+02 -0.32743862290E+02 -0.14867191593E+02  0.44649782655E+02  0.51100000000E-03 0.  1.
        -12    1    3    3    0    0  0.27070228075E+01  0.13450615065E+01  0.25108349859E+01  0.39295617139E+01  0.00000000000E+00 0.  1.
</event>
<event>
 7    1  0.3041451E-011  0.5052886E+02  0.7816164E-02  0.1300439E+00
        -11   -1    0    0    0    0  0.00000000000E+00  0.00000000000E+00  0.45593999997E+02  0.45594000000E+02  0.51100000000E-03 0.  1.
         11   -1    0    0    0    0 -0.00000000000E+00 -0.00000000000E+00 -0.45593999997E+02  0.45594000000E+02  0.51100000000E-03 0. -1.
    9900012    2    1    2    0    0 -0.14256698094E+02 -0.38015184214E+02  0.21812964265E+01  0.50528859263E+02  0.29999998216E+02 0.  0.
         12    1    1    2    0    0  0.14256698094E+02  0.38015184214E+02 -0.21812964265E+01  0.40659140737E+02  0.00000000000E+00 0. -1.
         11    1    3    3    0    0  0.44985788264E+01 -0.13132377550E+02 -0.75617482477E+01  0.15807485202E+02  0.51100000000E-03 0. -1.
        -11    1    3    3    0    0 -0.17864410743E+02 -0.25529044792E+02  0.72426133530E+01  0.31989447442E+02  0.51100000000E-03 0.  1.
        -12    1    3    3    0    0 -0.89086617738E+00  0.64623812806E+00  0.25004313213E+01  0.27319266199E+01  0.00000000000E+00 0.  1.
</event>
<event>
 7    1  0.3041451E-011  0.5052886E+02  0.7816164E-02  0.1300439E+00
        -11   -1    0    0    0    0  0.00000000000E+00  0.00000000000E+00  0.45593999997E+02  0.45594000000E+02  0.51100000000E-03 0. -1.
         11   -1    0    0    0    0 -0.00000000000E+00 -0.00000000000E+00 -0.45593999997E+02  0.45594000000E+02  0.51100000000E-03 0.  1.
    9900012    2    1    2    0    0 -0.34501845905E+02 -0.16511476729E+02  0.13789821119E+02  0.50528863251E+02  0.30000010338E+02 0.  0.
         12    1    1    2    0    0  0.34501845905E+02  0.16511476729E+02 -0.13789821119E+02  0.40659136749E+02  0.00000000000E+00 0. -1.
         11    1    3    3    0    0 -0.21213596261E+01  0.48542450812E+01  0.14900096771E+01  0.55030892297E+01  0.51100000000E-03 0. -1.
        -11    1    3    3    0    0 -0.26853850620E+02 -0.24936050089E+02  0.11440120808E+02  0.38390262458E+02  0.51100000000E-03 0.  1.
        -12    1    3    3    0    0 -0.55266356589E+01  0.35703282788E+01  0.85969063384E+00  0.66355115636E+01  0.00000000000E+00 0.  1.
</event>
<event>
 7    1  0.3041451E-011  0.5052885E+02  0.7816164E-02  0.1300439E+00
        -11   -1    0    0    0    0  0.00000000000E+00  0.00000000000E+00  0.45593999997E+02  0.45594000000E+02  0.51100000000E-03 0.  1.
         11   -1    0    0    0    0 -0.00000000000E+00 -0.00000000000E+00 -0.45593999997E+02  0.45594000000E+02  0.51100000000E-03 0. -1.
    9900012    2    1    2    0    0 -0.27791750478E+02 -0.29539492700E+02 -0.28640971493E+01  0.50528854951E+02  0.29999985110E+02 0.  0.
         12    1    1    2    0    0  0.27791750478E+02  0.29539492700E+02  0.28640971493E+01  0.40659145049E+02  0.00000000000E+00 0. -1.
         11    1    3    3    0    0 -0.55041217449E+01 -0.14287292075E+02  0.58684010367E+01  0.16396957096E+02  0.51100000000E-03 0. -1.
        -11    1    3    3    0    0 -0.18719627706E+01 -0.53580715276E+01 -0.99037963076E+01  0.11414830558E+02  0.51100000000E-03 0.  1.
        -12    1    3    3    0    0 -0.20415665962E+02 -0.98941290970E+01  0.11712981215E+01  0.22717067297E+02  0.00000000000E+00 0.  1.
</event>
<event>
 7    1  0.3041451E-011  0.5052889E+02  0.7816164E-02  0.1300439E+00
        -11   -1    0    0    0    0  0.00000000000E+00  0.00000000000E+00  0.45593999997E+02  0.45594000000E+02  0.51100000000E-03 0.  1.
         11   -1    0    0    0    0 -0.00000000000E+00 -0.00000000000E+00 -0.45593999997E+02  0.45594000000E+02  0.51100000000E-03 0. -1.
    9900012    2    1    2    0    0  0.29909335173E+02 -0.51349459913E+01  0.27059700087E+02  0.50528888234E+02  0.30000086275E+02 0.  0.
         12    1    1    2    0    0 -0.29909335173E+02  0.51349459913E+01 -0.27059700087E+02  0.40659111766E+02  0.00000000000E+00 0. -1.
         11    1    3    3    0    0  0.52702445285E+01 -0.67614113453E+01 -0.41743246152E+01  0.95350483494E+01  0.51100000000E-03 0. -1.
        -11    1    3    3    0    0  0.21369145664E+02  0.48866189765E+01  0.26263115219E+02  0.34209218826E+02  0.51100000000E-03 0.  1.
        -12    1    3    3    0    0  0.32699449811E+01 -0.32601536225E+01  0.49709094831E+01  0.67846210587E+01  0.00000000000E+00 0.  1.
</event>
<event>
 7    1  0.3041451E-011  0.5052887E+02  0.7816164E-02  0.1300439E+00
        -11   -1    0    0    0    0  0.00000000000E+00  0.00000000000E+00  0.45593999997E+02  0.45594000000E+02  0.51100000000E-03 0.  1.
         11   -1    0    0    0    0 -0.00000000000E+00 -0.00000000000E+00 -0.45593999997E+02  0.45594000000E+02  0.51100000000E-03 0. -1.
    9900012    2    1    2    0    0 -0.31361812633E+01  0.22253325965E+02  0.33883899951E+02  0.50528870333E+02  0.30000031863E+02 0.  0.
         12    1    1    2    0    0  0.31361812633E+01 -0.22253325965E+02 -0.33883899951E+02  0.40659129667E+02  0.00000000000E+00 0. -1.
         11    1    3    3    0    0 -0.12876279382E+02  0.21192591002E+02  0.18595069776E+02  0.30995178727E+02  0.51100000000E-03 0. -1.
        -11    1    3    3    0    0  0.31586411648E+01 -0.43999587964E+00  0.11191715373E+02  0.11637229208E+02  0.51100000000E-03 0.  1.
         12    1    3    3    0    0  0.65814569540E+01  0.15007308430E+01  0.40971148011E+01  0.78964623975E+01  0.00000000000E+00 0. -1.
</event>
<event>
 7    1  0.3041451E-011  0.5052886E+02  0.7816164E-02  0.1300439E+00
        -11   -1    0    0    0    0  0.00000000000E+00  0.00000000000E+00  0.45593999997E+02  0.45594000000E+02  0.51100000000E-03 0.  1.
         11   -1    0    0    0    0 -0.00000000000E+00 -0.00000000000E+00 -0.45593999997E+02  0.45594000000E+02  0.51100000000E-03 0. -1.
    9900012    2    1    2    0    0  0.35311683326E+02 -0.13703003429E+02  0.14781005491E+02  0.50528863197E+02  0.30000010172E+02 0.  0.
         12    1    1    2    0    0 -0.35311683326E+02  0.13703003429E+02 -0.14781005491E+02  0.40659136803E+02  0.00000000000E+00 0. -1.
         11    1    3    3    0    0 -0.41779560249E+01 -0.57387402392E+00  0.44945993120E+01  0.61632841227E+01  0.51100000000E-03 0. -1.
        -11    1    3    3    0    0  0.11082213257E+02  0.10796993413E+01  0.48318597678E+01  0.12137877509E+02  0.51100000000E-03 0.  1.
         12    1    3    3    0    0  0.28407426094E+02 -0.14208828747E+02  0.54545464115E+01  0.32227701565E+02  0.00000000000E+00 0. -1.
</event>
<event>
 7    1  0.3041451E-011  0.5052884E+02  0.7816164E-02  0.1300439E+00
        -11   -1    0    0    0    0  0.00000000000E+00  0.00000000000E+00  0.45593999997E+02  0.45594000000E+02  0.51100000000E-03 0.  1.
         11   -1    0    0    0    0 -0.00000000000E+00 -0.00000000000E+00 -0.45593999997E+02  0.45594000000E+02  0.51100000000E-03 0. -1.
    9900012    2    1    2    0    0  0.24340310034E+02 -0.54753021445E+01  0.32105106193E+02  0.50528837813E+02  0.29999933015E+02 0.  0.
         12    1    1    2    0    0 -0.24340310034E+02  0.54753021445E+01 -0.32105106193E+02  0.40659162187E+02  0.00000000000E+00 0. -1.
         11    1    3    3    0    0  0.53687678704E+01  0.49493296929E+01 -0.53708081969E+00  0.73217476686E+01  0.51100000000E-03 0. -1.
        -11    1    3    3    0    0  0.57022465318E+01 -0.75680499426E+01  0.26807324991E+02  0.28432792140E+02  0.51100000000E-03 0.  1.
        -12    1    3    3    0    0  0.13269295632E+02 -0.28565818948E+01  0.58348620209E+01  0.14774298004E+02  0.00000000000E+00 0.  1.
</event>
<event>
 7    1  0.3041451E-011  0.5052885E+02  0.7816164E-02  0.1300439E+00
        -11   -1    0    0    0    0  0.00000000000E+00  0.00000000000E+00  0.45593999997E+02  0.45594000000E+02  0.51100000000E-03 0. -1.
         11   -1    0    0    0    0 -0.00000000000E+00 -0.00000000000E+00 -0.45593999997E+02  0.45594000000E+02  0.51100000000E-03 0.  1.
    9900012    2    1    2    0    0 -0.58965594894E+01 -0.13361488769E+02 -0.37945583666E+02  0.50528854465E+02  0.29999983631E+02 0.  0.
         12    1    1    2    0    0  0.58965594894E+01  0.13361488769E+02  0.37945583666E+02  0.40659145535E+02  0.00000000000E+00 0. -1.
         11    1    3    3    0    0  0.14148795958E+00 -0.12888898003E+02 -0.13864535335E+02  0.18930637889E+02  0.51100000000E-03 0. -1.
        -11    1    3    3    0    0 -0.72000405050E+00  0.84746677990E+01 -0.17001740592E+02  0.19010459846E+02  0.51100000000E-03 0.  1.
         12    1    3    3    0    0 -0.53180433984E+01 -0.89472585655E+01 -0.70793077386E+01  0.12587756730E+02  0.00000000000E+00 0. -1.
</event>
<event>
 7    1  0.3041451E-011  0.5052890E+02  0.7816164E-02  0.1300439E+00
        -11   -1    0    0    0    0  0.00000000000E+00  0.00000000000E+00  0.45593999997E+02  0.45594000000E+02  0.51100000000E-03 0.  1.
         11   -1    0    0    0    0 -0.00000000000E+00 -0.00000000000E+00 -0.45593999997E+02  0.45594000000E+02  0.51100000000E-03 0. -1.
    9900012    2    1    2    0    0  0.36700000024E+02  0.17372744375E+02  0.21118462281E+01  0.50528903313E+02  0.30000132111E+02 0.  0.
         12    1    1    2    0    0 -0.36700000024E+02 -0.17372744375E+02 -0.21118462281E+01  0.40659096687E+02  0.00000000000E+00 0. -1.
         11    1    3    3    0    0  0.19214303607E+02  0.10568751853E+02  0.21681831960E+01  0.22036083987E+02  0.51100000000E-03 0. -1.
        -11    1    3    3    0    0  0.45337940856E+01 -0.75591062619E+01  0.20148600333E+01  0.90418492303E+01  0.51100000000E-03 0.  1.
        -12    1    3    3    0    0  0.12951902331E+02  0.14363098783E+02 -0.20711970012E+01  0.19450970096E+02  0.00000000000E+00 0.  1.
</event>
<event>
 7    1  0.3041451E-011  0.5052886E+02  0.7816164E-02  0.1300439E+00
        -11   -1    0    0    0    0  0.00000000000E+00  0.00000000000E+00  0.45593999997E+02  0.45594000000E+02  0.51100000000E-03 0. -1.
         11   -1    0    0    0    0 -0.00000000000E+00 -0.00000000000E+00 -0.45593999997E+02  0.45594000000E+02  0.51100000000E-03 0.  1.
    9900012    2    1    2    0    0  0.26372053868E+02 -0.26864890373E+02 -0.15360918191E+02  0.50528863663E+02  0.30000011591E+02 0.  0.
         12    1    1    2    0    0 -0.26372053868E+02  0.26864890373E+02  0.15360918191E+02  0.40659136337E+02  0.00000000000E+00 0. -1.
         11    1    3    3    0    0  0.10921509127E+02 -0.19096896201E+02  0.24395457629E+01  0.22134186001E+02  0.51100000000E-03 0. -1.
        -11    1    3    3    0    0  0.86606709248E+01  0.31806583190E+01 -0.79100855689E+01  0.12152911675E+02  0.51100000000E-03 0.  1.
        -12    1    3    3    0    0  0.67898738158E+01 -0.10948652491E+02 -0.98903783849E+01  0.16241765988E+02  0.00000000000E+00 0.  1.
</event>
<event>
 7    1  0.3041451E-011  0.5052886E+02  0.7816164E-02  0.1300439E+00
        -11   -1    0    0    0    0  0.00000000000E+00  0.00000000000E+00  0.45593999997E+02  0.45594000000E+02  0.51100000000E-03 0.  1.
         11   -1    0    0    0    0 -0.00000000000E+00 -0.00000000000E+00 -0.45593999997E+02  0.45594000000E+02  0.51100000000E-03 0. -1.
    9900012    2    1    2    0    0  0.33298874152E+02 -0.83307141776E+00  0.23316449716E+02  0.50528857668E+02  0.29999993368E+02 0.  0.
         12    1    1    2    0    0 -0.33298874152E+02  0.83307141776E+00 -0.23316449716E+02  0.40659142332E+02  0.00000000000E+00 0. -1.
         11    1    3    3    0    0  0.21173402800E+02 -0.13833133183E+02  0.87201761490E+01  0.26752757468E+02  0.51100000000E-03 0. -1.
        -11    1    3    3    0    0  0.28130914462E+01  0.23348280211E+01  0.65226646274E+01  0.74773029547E+01  0.51100000000E-03 0.  1.
         12    1    3    3    0    0  0.93123799062E+01  0.10665233745E+02  0.80736089399E+01  0.16298797246E+02  0.00000000000E+00 0. -1.
</event>
<event>
 7    1  0.3041451E-011  0.5052886E+02  0.7816164E-02  0.1300439E+00
        -11   -1    0    0    0    0  0.00000000000E+00  0.00000000000E+00  0.45593999997E+02  0.45594000000E+02  0.51100000000E-03 0.  1.
         11   -1    0    0    0    0 -0.00000000000E+00 -0.00000000000E+00 -0.45593999997E+02  0.45594000000E+02  0.51100000000E-03 0. -1.
    9900012    2    1    2    0    0  0.69038404292E+01  0.36609654210E+02  0.16286069670E+02  0.50528857617E+02  0.29999993212E+02 0.  0.
         12    1    1    2    0    0 -0.69038404292E+01 -0.36609654210E+02 -0.16286069670E+02  0.40659142383E+02  0.00000000000E+00 0. -1.
         11    1    3    3    0    0  0.43380553664E+01  0.33291581254E+02  0.26332789965E+01  0.33676137921E+02  0.51100000000E-03 0.  1.
        -11    1    3    3    0    0  0.40060572112E+01 -0.18718485347E+01  0.71769496413E+01  0.84297638004E+01  0.51100000000E-03 0. -1.
        -12    1    3    3    0    0 -0.14402721485E+01  0.51899214906E+01  0.64758410325E+01  0.84229558956E+01  0.00000000000E+00 0.  1.
</event>
<event>
 7    1  0.3041451E-011  0.5052886E+02  0.7816164E-02  0.1300439E+00
        -11   -1    0    0    0    0  0.00000000000E+00  0.00000000000E+00  0.45593999997E+02  0.45594000000E+02  0.51100000000E-03 0.  1.
         11   -1    0    0    0    0 -0.00000000000E+00 -0.00000000000E+00 -0.45593999997E+02  0.45594000000E+02  0.51100000000E-03 0. -1.
    9900012    2    1    2    0    0  0.17440472077E+02  0.17524640596E+02  0.32278200802E+02  0.50528863987E+02  0.30000012576E+02 0.  0.
         12    1    1    2    0    0 -0.17440472077E+02 -0.17524640596E+02 -0.32278200802E+02  0.40659136013E+02  0.00000000000E+00 0. -1.
         11    1    3    3    0    0  0.62712056367E+01  0.11339759728E+02 -0.61066699002E+00  0.12972705395E+02  0.51100000000E-03 0.  1.
        -11    1    3    3    0    0  0.52166340609E+01 -0.38115517239E+01  0.12914399987E+02  0.14440322876E+02  0.51100000000E-03 0. -1.
        -12    1    3    3    0    0  0.59526323795E+01  0.99964325922E+01  0.19974467805E+02  0.23115835717E+02  0.00000000000E+00 0.  1.
</event>
<event>
 7    1  0.3041451E-011  0.5052872E+02  0.7816164E-02  0.1300439E+00
        -11   -1    0    0    0    0  0.00000000000E+00  0.00000000000E+00  0.45593999997E+02  0.45594000000E+02  0.51100000000E-03 0.  1.
         11   -1    0    0    0    0 -0.00000000000E+00 -0.00000000000E+00 -0.45593999997E+02  0.45594000000E+02  0.51100000000E-03 0. -1.
    9900012    2    1    2    0    0 -0.19433117093E+02 -0.77899401355E+01  0.34854666273E+02  0.50528721007E+02  0.29999577970E+02 0.  0.
         12    1    1    2    0    0  0.19433117093E+02  0.77899401355E+01 -0.34854666273E+02  0.40659278993E+02  0.00000000000E+00 0. -1.
         11    1    3    3    0    0 -0.22926197415E+02  0.34500937695E+00  0.33399014145E+02  0.40512019272E+02  0.51100000000E-03 0. -1.
        -11    1    3    3    0    0  0.20460972043E+01 -0.28554302862E+01 -0.14720096234E+01  0.38087804454E+01  0.51100000000E-03 0.  1.
         12    1    3    3    0    0  0.14469831183E+01 -0.52795192263E+01  0.29276617513E+01  0.62079212894E+01  0.00000000000E+00 0. -1.
</event>
<event>
 7    1  0.3041451E-011  0.5052884E+02  0.7816164E-02  0.1300439E+00
        -11   -1    0    0    0    0  0.00000000000E+00  0.00000000000E+00  0.45593999997E+02  0.45594000000E+02  0.51100000000E-03 0.  1.
         11   -1    0    0    0    0 -0.00000000000E+00 -0.00000000000E+00 -0.45593999997E+02  0.45594000000E+02  0.51100000000E-03 0. -1.
    9900012    2    1    2    0    0 -0.25354287420E+02  0.34380934119E+00  0.31783792818E+02  0.50528836440E+02  0.29999928844E+02 0.  0.
         12    1    1    2    0    0  0.25354287420E+02 -0.34380934119E+00 -0.31783792818E+02  0.40659163560E+02  0.00000000000E+00 0. -1.
         11    1    3    3    0    0 -0.73339715191E+01  0.12516750722E+02  0.71827663275E+01  0.16187906575E+02  0.51100000000E-03 0. -1.
        -11    1    3    3    0    0 -0.16673466401E+02 -0.89155011266E+01  0.24319666908E+02  0.30804818470E+02  0.51100000000E-03 0.  1.
         12    1    3    3    0    0 -0.13468495005E+01 -0.32574402547E+01  0.28135958221E+00  0.35361113960E+01  0.00000000000E+00 0. -1.
</event>
<event>
 7    1  0.3041451E-011  0.5052886E+02  0.7816164E-02  0.1300439E+00
        -11   -1    0    0    0    0  0.00000000000E+00  0.00000000000E+00  0.45593999997E+02  0.45594000000E+02  0.51100000000E-03 0. -1.
         11   -1    0    0    0    0 -0.00000000000E+00 -0.00000000000E+00 -0.45593999997E+02  0.45594000000E+02  0.51100000000E-03 0.  1.
    9900012    2    1    2    0    0  0.34250946270E+02 -0.21793815134E+02  0.22511444830E+01  0.50528863880E+02  0.30000012250E+02 0.  0.
         12    1    1    2    0    0 -0.34250946270E+02  0.21793815134E+02 -0.22511444830E+01  0.40659136120E+02  0.00000000000E+00 0. -1.
         11    1    3    3    0    0  0.97223041954E+01 -0.22360751309E+02  0.52215998508E+01  0.24935747497E+02  0.51100000000E-03 0. -1.
        -11    1    3    3    0    0  0.22917732617E+02  0.23185431397E+01 -0.28496592533E+01  0.23210313844E+02  0.51100000000E-03 0.  1.
        -12    1    3    3    0    0  0.16109094578E+01 -0.17516069654E+01 -0.12079611449E+00  0.23828025398E+01  0.00000000000E+00 0.  1.
</event>
<event>
 7    1  0.3041451E-011  0.5052888E+02  0.7816164E-02  0.1300439E+00
        -11   -1    0    0    0    0  0.00000000000E+00  0.00000000000E+00  0.45593999997E+02  0.45594000000E+02  0.51100000000E-03 0.  1.
         11   -1    0    0    0    0 -0.00000000000E+00 -0.00000000000E+00 -0.45593999997E+02  0.45594000000E+02  0.51100000000E-03 0. -1.
    9900012    2    1    2    0    0 -0.22025299592E+02 -0.25797138798E+02  0.22417798157E+02  0.50528882124E+02  0.30000067704E+02 0.  0.
         12    1    1    2    0    0  0.22025299592E+02  0.25797138798E+02 -0.22417798157E+02  0.40659117876E+02  0.00000000000E+00 0. -1.
         11    1    3    3    0    0 -0.76988657920E+01 -0.10377879674E+01  0.18395988218E+02  0.19969024040E+02  0.51100000000E-03 0. -1.
        -11    1    3    3    0    0 -0.10357442776E+02 -0.21003148249E+02  0.68599132177E+01  0.24402197992E+02  0.51100000000E-03 0.  1.
         12    1    3    3    0    0 -0.39689910238E+01 -0.37562025811E+01 -0.28381032790E+01  0.61576600913E+01  0.00000000000E+00 0. -1.
</event>
<event>
 7    1  0.3116667E-011  0.5052884E+02  0.7816164E-02  0.1300439E+00
        -11   -1    0    0    0    0  0.00000000000E+00  0.00000000000E+00  0.45593999997E+02  0.45594000000E+02  0.51100000000E-03 0. -1.
         11   -1    0    0    0    0 -0.00000000000E+00 -0.00000000000E+00 -0.45593999997E+02  0.45594000000E+02  0.51100000000E-03 0.  1.
    9900012    2    1    2    0    0 -0.91750395702E+01  0.27433134456E+02 -0.28572868491E+02  0.50528843208E+02  0.29999949415E+02 0.  0.
         12    1    1    2    0    0  0.91750395702E+01 -0.27433134456E+02  0.28572868491E+02  0.40659156792E+02  0.00000000000E+00 0. -1.
         11    1    3    3    0    0 -0.11818909409E+02  0.72871511263E+01 -0.35917865360E+01  0.14341900918E+02  0.51100000000E-03 0. -1.
        -11    1    3    3    0    0  0.17977245545E+01  0.20804115519E+02 -0.26860996420E+02  0.34022877084E+02  0.51100000000E-03 0.  1.
         12    1    3    3    0    0  0.84614528452E+00 -0.65813218931E+00  0.18799144651E+01  0.21640652063E+01  0.00000000000E+00 0. -1.
</event>
<event>
 7    1  0.3041451E-011  0.5052886E+02  0.7816164E-02  0.1300439E+00
        -11   -1    0    0    0    0  0.00000000000E+00  0.00000000000E+00  0.45593999997E+02  0.45594000000E+02  0.51100000000E-03 0. -1.
         11   -1    0    0    0    0 -0.00000000000E+00 -0.00000000000E+00 -0.45593999997E+02  0.45594000000E+02  0.51100000000E-03 0.  1.
    9900012    2    1    2    0    0  0.65548571281E+01 -0.39105455652E+02  0.89979324140E+01  0.50528860788E+02  0.30000002851E+02 0.  0.
         12    1    1    2    0    0 -0.65548571281E+01  0.39105455652E+02 -0.89979324140E+01  0.40659139212E+02  0.00000000000E+00 0. -1.
         11    1    3    3    0    0  0.89491729967E+01 -0.96044231738E+01  0.13837695298E+02  0.19073920762E+02  0.51100000000E-03 0. -1.
        -11    1    3    3    0    0 -0.58686568120E+01 -0.13896449013E+02 -0.27248983028E+01  0.15328975796E+02  0.51100000000E-03 0.  1.
        -12    1    3    3    0    0  0.34743409435E+01 -0.15604583465E+02 -0.21148645811E+01  0.16125964229E+02  0.00000000000E+00 0.  1.
</event>
<event>
 7    1  0.3041451E-011  0.5052885E+02  0.7816164E-02  0.1300439E+00
        -11   -1    0    0    0    0  0.00000000000E+00  0.00000000000E+00  0.45593999997E+02  0.45594000000E+02  0.51100000000E-03 0.  1.
         11   -1    0    0    0    0 -0.00000000000E+00 -0.00000000000E+00 -0.45593999997E+02  0.45594000000E+02  0.51100000000E-03 0. -1.
    9900012    2    1    2    0    0 -0.11316515422E+02  0.36614811405E+02  0.13581556039E+02  0.50528848509E+02  0.29999965529E+02 0.  0.
         12    1    1    2    0    0  0.11316515422E+02 -0.36614811405E+02 -0.13581556039E+02  0.40659151491E+02  0.00000000000E+00 0. -1.
         11    1    3    3    0    0  0.25123390880E+00  0.42883490455E+01 -0.62037026186E+01  0.75457923676E+01  0.51100000000E-03 0. -1.
        -11    1    3    3    0    0 -0.13975163096E+02  0.17696813711E+02  0.76127212029E+01  0.23799914358E+02  0.51100000000E-03 0.  1.
        -12    1    3    3    0    0  0.24074137651E+01  0.14629648648E+02  0.12172537455E+02  0.19183141784E+02  0.00000000000E+00 0.  1.
</event>
<event>
 7    1  0.3041451E-011  0.5052886E+02  0.7816164E-02  0.1300439E+00
        -11   -1    0    0    0    0  0.00000000000E+00  0.00000000000E+00  0.45593999997E+02  0.45594000000E+02  0.51100000000E-03 0. -1.
         11   -1    0    0    0    0 -0.00000000000E+00 -0.00000000000E+00 -0.45593999997E+02  0.45594000000E+02  0.51100000000E-03 0.  1.
    9900012    2    1    2    0    0 -0.25790926393E+02  0.30719095254E+02 -0.66581277921E+01  0.50528863719E+02  0.30000011760E+02 0.  0.
         12    1    1    2    0    0  0.25790926393E+02 -0.30719095254E+02  0.66581277921E+01  0.40659136281E+02  0.00000000000E+00 0. -1.
         11    1    3    3    0    0 -0.25410250440E+02  0.27810699035E+02 -0.12616444788E+02  0.39727704283E+02  0.51100000000E-03 0. -1.
        -11    1    3    3    0    0  0.77712035838E+00  0.17225771499E+01 -0.19532986642E+01  0.27178233977E+01  0.51100000000E-03 0.  1.
         12    1    3    3    0    0 -0.11577963114E+01  0.11858190694E+01  0.79116156599E+01  0.80833360386E+01  0.00000000000E+00 0. -1.
</event>
<event>
 7    1  0.3041451E-011  0.5052886E+02  0.7816164E-02  0.1300439E+00
        -11   -1    0    0    0    0  0.00000000000E+00  0.00000000000E+00  0.45593999997E+02  0.45594000000E+02  0.51100000000E-03 0.  1.
         11   -1    0    0    0    0 -0.00000000000E+00 -0.00000000000E+00 -0.45593999997E+02  0.45594000000E+02  0.51100000000E-03 0. -1.
    9900012    2    1    2    0    0 -0.17807080778E+02 -0.11847378875E+02  0.34579081237E+02  0.50528863619E+02  0.30000011456E+02 0.  0.
         12    1    1    2    0    0  0.17807080778E+02  0.11847378875E+02 -0.34579081237E+02  0.40659136381E+02  0.00000000000E+00 0. -1.
         11    1    3    3    0    0 -0.73623503758E+01 -0.49211115337E+01  0.27539894017E+01  0.92739419703E+01  0.51100000000E-03 0.  1.
        -11    1    3    3    0    0  0.16171450928E+01 -0.80824958128E+01  0.26969674295E+02  0.28201156513E+02  0.51100000000E-03 0. -1.
        -12    1    3    3    0    0 -0.12061875495E+02  0.11562284713E+01  0.48554175407E+01  0.13053765136E+02  0.00000000000E+00 0.  1.
</event>
<event>
 7    1  0.3041451E-011  0.5052887E+02  0.7816164E-02  0.1300439E+00
        -11   -1    0    0    0    0  0.00000000000E+00  0.00000000000E+00  0.45593999997E+02  0.45594000000E+02  0.51100000000E-03 0.  1.
         11   -1    0    0    0    0 -0.00000000000E+00 -0.00000000000E+00 -0.45593999997E+02  0.45594000000E+02  0.51100000000E-03 0. -1.
    9900012    2    1    2    0    0  0.14038244704E+01  0.70574797952E+01  0.40017327126E+02  0.50528865546E+02  0.30000017314E+02 0.  0.
         12    1    1    2    0    0 -0.14038244704E+01 -0.70574797952E+01 -0.40017327126E+02  0.40659134454E+02  0.00000000000E+00 0. -1.
         11    1    3    3    0    0  0.60479660656E+01  0.43815972708E+01  0.21563527890E+01  0.77734256146E+01  0.51100000000E-03 0. -1.
        -11    1    3    3    0    0 -0.38576142829E+01 -0.67938710773E+01  0.27965404544E+02  0.29036214005E+02  0.51100000000E-03 0.  1.
        -12    1    3    3    0    0 -0.78652731227E+00  0.94697536018E+01  0.98955697929E+01  0.13719225926E+02  0.00000000000E+00 0.  1.
</event>
<event>
 7    1  0.3041451E-011  0.5052885E+02  0.7816164E-02  0.1300439E+00
        -11   -1    0    0    0    0  0.00000000000E+00  0.00000000000E+00  0.45593999997E+02  0.45594000000E+02  0.51100000000E-03 0.  1.
         11   -1    0    0    0    0 -0.00000000000E+00 -0.00000000000E+00 -0.45593999997E+02  0.45594000000E+02  0.51100000000E-03 0. -1.
    9900012    2    1    2    0    0 -0.11231024035E+02 -0.49828667550E+01  0.38758247069E+02  0.50528848781E+02  0.29999966356E+02 0.  0.
         12    1    1    2    0    0  0.11231024035E+02  0.49828667550E+01 -0.38758247069E+02  0.40659151219E+02  0.00000000000E+00 0. -1.
         11    1    3    3    0    0  0.57475599178E+01  0.70788332278E+01  0.21490340347E+02  0.23344786428E+02  0.51100000000E-03 0. -1.
        -11    1    3    3    0    0 -0.12230217708E+02 -0.83732798588E+01  0.13751677308E+02  0.20218770235E+02  0.51100000000E-03 0.  1.
         12    1    3    3    0    0 -0.47483662450E+01 -0.36884201240E+01  0.35162294141E+01  0.69652921188E+01  0.00000000000E+00 0. -1.
</event>
<event>
 7    1  0.3041451E-011  0.5052886E+02  0.7816164E-02  0.1300439E+00
        -11   -1    0    0    0    0  0.00000000000E+00  0.00000000000E+00  0.45593999997E+02  0.45594000000E+02  0.51100000000E-03 0.  1.
         11   -1    0    0    0    0 -0.00000000000E+00 -0.00000000000E+00 -0.45593999997E+02  0.45594000000E+02  0.51100000000E-03 0. -1.
    9900012    2    1    2    0    0 -0.19052893426E+02  0.30639074070E+02  0.18745658956E+02  0.50528864034E+02  0.30000012719E+02 0.  0.
         12    1    1    2    0    0  0.19052893426E+02 -0.30639074070E+02 -0.18745658956E+02  0.40659135966E+02  0.00000000000E+00 0. -1.
         11    1    3    3    0    0  0.42693304798E+01  0.72307933159E+00 -0.23892400707E-02  0.43301307642E+01  0.51100000000E-03 0. -1.
        -11    1    3    3    0    0 -0.15853263454E+02  0.19683053486E+02  0.21561629306E+02  0.33221264504E+02  0.51100000000E-03 0.  1.
        -12    1    3    3    0    0 -0.74689604523E+01  0.10232941252E+02 -0.28135811101E+01  0.12977468766E+02  0.00000000000E+00 0.  1.
</event>
<event>
 7    1  0.3041451E-011  0.5052887E+02  0.7816164E-02  0.1300439E+00
        -11   -1    0    0    0    0  0.00000000000E+00  0.00000000000E+00  0.45593999997E+02  0.45594000000E+02  0.51100000000E-03 0. -1.
         11   -1    0    0    0    0 -0.00000000000E+00 -0.00000000000E+00 -0.45593999997E+02  0.45594000000E+02  0.51100000000E-03 0.  1.
    9900012    2    1    2    0    0 -0.27041128927E+02  0.27034644313E+02  0.13822805377E+02  0.50528873162E+02  0.30000040462E+02 0.  0.
         12    1    1    2    0    0  0.27041128927E+02 -0.27034644313E+02 -0.13822805377E+02  0.40659126838E+02  0.00000000000E+00 0. -1.
         11    1    3    3    0    0  0.81491511760E+00  0.17465609130E+02  0.79074236320E+01  0.19189552826E+02  0.51100000000E-03 0. -1.
        -11    1    3    3    0    0 -0.32079682324E+01  0.81451754378E+00  0.38854530171E+01  0.51040419687E+01  0.51100000000E-03 0.  1.
         12    1    3    3    0    0 -0.24648075812E+02  0.87545176398E+01  0.20299287283E+01  0.26235278367E+02  0.00000000000E+00 0. -1.
</event>
<event>
 7    1  0.3041451E-011  0.5052885E+02  0.7816164E-02  0.1300439E+00
        -11   -1    0    0    0    0  0.00000000000E+00  0.00000000000E+00  0.45593999997E+02  0.45594000000E+02  0.51100000000E-03 0.  1.
         11   -1    0    0    0    0 -0.00000000000E+00 -0.00000000000E+00 -0.45593999997E+02  0.45594000000E+02  0.51100000000E-03 0. -1.
    9900012    2    1    2    0    0 -0.11642369398E+02  0.31770278640E+02  0.22544866178E+02  0.50528851447E+02  0.29999974459E+02 0.  0.
         12    1    1    2    0    0  0.11642369398E+02 -0.31770278640E+02 -0.22544866178E+02  0.40659148553E+02  0.00000000000E+00 0. -1.
         11    1    3    3    0    0 -0.93799003839E+01  0.81132177115E+01 -0.33982788340E+01  0.12859048648E+02  0.51100000000E-03 0. -1.
        -11    1    3    3    0    0 -0.23665753170E+01  0.25417015527E+02  0.24624659501E+02  0.35468284605E+02  0.51100000000E-03 0.  1.
         12    1    3    3    0    0  0.10410630272E+00 -0.17599545990E+01  0.13184855112E+01  0.22015181934E+01  0.00000000000E+00 0. -1.
</event>
<event>
 7    1  0.3041451E-011  0.5052888E+02  0.7816164E-02  0.1300439E+00
        -11   -1    0    0    0    0  0.00000000000E+00  0.00000000000E+00  0.45593999997E+02  0.45594000000E+02  0.51100000000E-03 0. -1.
         11   -1    0    0    0    0 -0.00000000000E+00 -0.00000000000E+00 -0.45593999997E+02  0.45594000000E+02  0.51100000000E-03 0.  1.
    9900012    2    1    2    0    0  0.34208119346E+02 -0.98576937541E+01 -0.19641660145E+02  0.50528875949E+02  0.30000048934E+02 0.  0.
         12    1    1    2    0    0 -0.34208119346E+02  0.98576937541E+01  0.19641660145E+02  0.40659124051E+02  0.00000000000E+00 0. -1.
         11    1    3    3    0    0  0.10333311432E+02 -0.39541340354E+01  0.25813216641E+00  0.11067029122E+02  0.51100000000E-03 0. -1.
        -11    1    3    3    0    0  0.34405403563E+01  0.43779755266E+01 -0.15092791873E+02  0.16087148735E+02  0.51100000000E-03 0.  1.
        -12    1    3    3    0    0  0.20434267558E+02 -0.10281535245E+02 -0.48070004386E+01  0.23374698091E+02  0.00000000000E+00 0.  1.
</event>
<event>
 7    1  0.3041451E-011  0.5052886E+02  0.7816164E-02  0.1300439E+00
        -11   -1    0    0    0    0  0.00000000000E+00  0.00000000000E+00  0.45593999997E+02  0.45594000000E+02  0.51100000000E-03 0. -1.
         11   -1    0    0    0    0 -0.00000000000E+00 -0.00000000000E+00 -0.45593999997E+02  0.45594000000E+02  0.51100000000E-03 0.  1.
    9900012    2    1    2    0    0  0.53243883956E+01 -0.28112328368E+02 -0.28887953444E+02  0.50528856229E+02  0.29999988993E+02 0.  0.
         12    1    1    2    0    0 -0.53243883956E+01  0.28112328368E+02  0.28887953444E+02  0.40659143771E+02  0.00000000000E+00 0. -1.
         11    1    3    3    0    0 -0.66772106914E+01  0.74667292550E+00 -0.56960011930E+01  0.88083535878E+01  0.51100000000E-03 0. -1.
        -11    1    3    3    0    0  0.53962419079E+01 -0.20167463051E+02 -0.66676993907E+01  0.21915843768E+02  0.51100000000E-03 0.  1.
         12    1    3    3    0    0  0.66053571791E+01 -0.86915382423E+01 -0.16524252860E+02  0.19804658873E+02  0.00000000000E+00 0. -1.
</event>
<event>
 7    1  0.3041451E-011  0.5052885E+02  0.7816164E-02  0.1300439E+00
        -11   -1    0    0    0    0  0.00000000000E+00  0.00000000000E+00  0.45593999997E+02  0.45594000000E+02  0.51100000000E-03 0.  1.
         11   -1    0    0    0    0 -0.00000000000E+00 -0.00000000000E+00 -0.45593999997E+02  0.45594000000E+02  0.51100000000E-03 0. -1.
    9900012    2    1    2    0    0 -0.26185558398E+02  0.17853189169E+02  0.25470500081E+02  0.50528853348E+02  0.29999980236E+02 0.  0.
         12    1    1    2    0    0  0.26185558398E+02 -0.17853189169E+02 -0.25470500081E+02  0.40659146652E+02  0.00000000000E+00 0. -1.
         11    1    3    3    0    0  0.25866274932E+01  0.86249760647E+00 -0.39590117179E+01  0.48071111859E+01  0.51100000000E-03 0.  1.
        -11    1    3    3    0    0 -0.20292026866E+02  0.11556809047E+02  0.13790556188E+02  0.27120207040E+02  0.51100000000E-03 0. -1.
        -12    1    3    3    0    0 -0.84801590254E+01  0.54338825156E+01  0.15638955611E+02  0.18601535122E+02  0.00000000000E+00 0.  1.
</event>
<event>
 7    1  0.3041451E-011  0.5052886E+02  0.7816164E-02  0.1300439E+00
        -11   -1    0    0    0    0  0.00000000000E+00  0.00000000000E+00  0.45593999997E+02  0.45594000000E+02  0.51100000000E-03 0.  1.
         11   -1    0    0    0    0 -0.00000000000E+00 -0.00000000000E+00 -0.45593999997E+02  0.45594000000E+02  0.51100000000E-03 0. -1.
    9900012    2    1    2    0    0 -0.26105478845E+02 -0.35669636210E+01  0.30966855302E+02  0.50528863481E+02  0.30000011037E+02 0.  0.
         12    1    1    2    0    0  0.26105478845E+02  0.35669636210E+01 -0.30966855302E+02  0.40659136519E+02  0.00000000000E+00 0. -1.
         11    1    3    3    0    0 -0.12615348699E+02 -0.14591788021E+00 -0.25687532576E+01  0.12875045956E+02  0.51100000000E-03 0. -1.
        -11    1    3    3    0    0 -0.13075879371E+02  0.37226722536E+00  0.28281569035E+02  0.31160300890E+02  0.51100000000E-03 0.  1.
        -12    1    3    3    0    0 -0.41425077555E+00 -0.37933129661E+01  0.52540395241E+01  0.64935166347E+01  0.00000000000E+00 0.  1.
</event>
<event>
 7    1  0.3041451E-011  0.5052886E+02  0.7816164E-02  0.1300439E+00
        -11   -1    0    0    0    0  0.00000000000E+00  0.00000000000E+00  0.45593999997E+02  0.45594000000E+02  0.51100000000E-03 0. -1.
         11   -1    0    0    0    0 -0.00000000000E+00 -0.00000000000E+00 -0.45593999997E+02  0.45594000000E+02  0.51100000000E-03 0.  1.
    9900012    2    1    2    0    0 -0.29021936687E+02  0.22323377740E+02  0.17679352408E+02  0.50528861982E+02  0.30000006482E+02 0.  0.
         12    1    1    2    0    0  0.29021936687E+02 -0.22323377740E+02 -0.17679352408E+02  0.40659138018E+02  0.00000000000E+00 0. -1.
         11    1    3    3    0    0  0.28531633055E+01  0.33660412502E+01 -0.43029291516E+01  0.61632762465E+01  0.51100000000E-03 0. -1.
        -11    1    3    3    0    0 -0.16654762611E+02  0.64221820176E+01  0.15409203935E+02  0.23581117566E+02  0.51100000000E-03 0.  1.
        -12    1    3    3    0    0 -0.15220337381E+02  0.12535154472E+02  0.65730776245E+01  0.20784468170E+02  0.00000000000E+00 0.  1.
</event>
<event>
 7    1  0.3041451E-011  0.5052886E+02  0.7816164E-02  0.1300439E+00
        -11   -1    0    0    0    0  0.00000000000E+00  0.00000000000E+00  0.45593999997E+02  0.45594000000E+02  0.51100000000E-03 0. -1.
         11   -1    0    0    0    0 -0.00000000000E+00 -0.00000000000E+00 -0.45593999997E+02  0.45594000000E+02  0.51100000000E-03 0.  1.
    9900012    2    1    2    0    0  0.21957900333E+02 -0.73836669169E+01 -0.33414034058E+02  0.50528860853E+02  0.30000003048E+02 0.  0.
         12    1    1    2    0    0 -0.21957900333E+02  0.73836669169E+01  0.33414034058E+02  0.40659139147E+02  0.00000000000E+00 0. -1.
         11    1    3    3    0    0  0.80656754431E+01  0.61970844548E+01 -0.85671594421E+01  0.13298691562E+02  0.51100000000E-03 0. -1.
        -11    1    3    3    0    0 -0.44126591765E+01 -0.61569757648E+01 -0.42222196535E+01  0.86721998731E+01  0.51100000000E-03 0.  1.
        -12    1    3    3    0    0  0.18304884067E+02 -0.74237756069E+01 -0.20624654962E+02  0.28557969418E+02  0.00000000000E+00 0.  1.
</event>
<event>
 7    1  0.3041451E-011  0.5052886E+02  0.7816164E-02  0.1300439E+00
        -11   -1    0    0    0    0  0.00000000000E+00  0.00000000000E+00  0.45593999997E+02  0.45594000000E+02  0.51100000000E-03 0.  1.
         11   -1    0    0    0    0 -0.00000000000E+00 -0.00000000000E+00 -0.45593999997E+02  0.45594000000E+02  0.51100000000E-03 0. -1.
    9900012    2    1    2    0    0 -0.34822446351E+02 -0.77211556483E+01  0.19517855231E+02  0.50528859733E+02  0.29999999646E+02 0.  0.
         12    1    1    2    0    0  0.34822446351E+02  0.77211556483E+01 -0.19517855231E+02  0.40659140267E+02  0.00000000000E+00 0. -1.
         11    1    3    3    0    0 -0.66672375106E+01  0.60845958435E+01  0.93975349978E+01  0.13030273477E+02  0.51100000000E-03 0. -1.
        -11    1    3    3    0    0 -0.31319013859E+01 -0.81139393009E+01 -0.22885413625E+01  0.89934553481E+01  0.51100000000E-03 0.  1.
        -12    1    3    3    0    0 -0.25023307454E+02 -0.56918121909E+01  0.12408861596E+02  0.28505130908E+02  0.00000000000E+00 0.  1.
</event>
<event>
 7    1  0.3041451E-011  0.5052900E+02  0.7816164E-02  0.1300438E+00
        -11   -1    0    0    0    0  0.00000000000E+00  0.00000000000E+00  0.45593999997E+02  0.45594000000E+02  0.51100000000E-03 0.  1.
         11   -1    0    0    0    0 -0.00000000000E+00 -0.00000000000E+00 -0.45593999997E+02  0.45594000000E+02  0.51100000000E-03 0. -1.
    9900012    2    1    2    0    0 -0.17533361660E+01 -0.18532982828E+02  0.36147044775E+02  0.50528997477E+02  0.30000418328E+02 0.  0.
         12    1    1    2    0    0  0.17533361660E+01  0.18532982828E+02 -0.36147044775E+02  0.40659002523E+02  0.00000000000E+00 0. -1.
         11    1    3    3    0    0 -0.12944000843E+02 -0.59728075683E+01  0.72816746695E+01  0.16007634876E+02  0.51100000000E-03 0. -1.
        -11    1    3    3    0    0  0.62231810400E+01 -0.12058611631E+02  0.17806688766E+02  0.22387859697E+02  0.51100000000E-03 0.  1.
        -12    1    3    3    0    0  0.49674836374E+01 -0.50156362925E+00  0.11058681339E+02  0.12133502904E+02  0.00000000000E+00 0.  1.
</event>
<event>
 7    1  0.3041451E-011  0.5052885E+02  0.7816164E-02  0.1300439E+00
        -11   -1    0    0    0    0  0.00000000000E+00  0.00000000000E+00  0.45593999997E+02  0.45594000000E+02  0.51100000000E-03 0. -1.
         11   -1    0    0    0    0 -0.00000000000E+00 -0.00000000000E+00 -0.45593999997E+02  0.45594000000E+02  0.51100000000E-03 0.  1.
    9900012    2    1    2    0    0  0.19630862997E+02 -0.22417396933E+02 -0.27663258204E+02  0.50528851931E+02  0.29999975929E+02 0.  0.
         12    1    1    2    0    0 -0.19630862997E+02  0.22417396933E+02  0.27663258204E+02  0.40659148069E+02  0.00000000000E+00 0. -1.
         11    1    3    3    0    0  0.62139446330E+00 -0.18489874212E+01 -0.15350582796E+02  0.15474019452E+02  0.51100000000E-03 0. -1.
        -11    1    3    3    0    0  0.19394559283E+02 -0.10078820443E+02 -0.11022713086E+02  0.24479210677E+02  0.51100000000E-03 0.  1.
         12    1    3    3    0    0 -0.38509074954E+00 -0.10489589069E+02 -0.12899623218E+01  0.10575621803E+02  0.00000000000E+00 0. -1.
</event>
<event>
 7    1  0.4059638E-011  0.5052886E+02  0.7816164E-02  0.1300439E+00
        -11   -1    0    0    0    0  0.00000000000E+00  0.00000000000E+00  0.45593999997E+02  0.45594000000E+02  0.51100000000E-03 0.  1.
         11   -1    0    0    0    0 -0.00000000000E+00 -0.00000000000E+00 -0.45593999997E+02  0.45594000000E+02  0.51100000000E-03 0. -1.
    9900012    2    1    2    0    0 -0.38094792600E+02  0.13280067745E+02  0.50588889429E+01  0.50528858594E+02  0.29999996182E+02 0.  0.
         12    1    1    2    0    0  0.38094792600E+02 -0.13280067745E+02 -0.50588889429E+01  0.40659141406E+02  0.00000000000E+00 0. -1.
         11    1    3    3    0    0 -0.69793071562E+01  0.45683987569E+01 -0.96492627897E+01  0.12754970334E+02  0.51100000000E-03 0. -1.
        -11    1    3    3    0    0 -0.23095629817E+02  0.46292529145E+01  0.41787303537E+01  0.23922790114E+02  0.51100000000E-03 0.  1.
         12    1    3    3    0    0 -0.80198556261E+01  0.40824160741E+01  0.10529421379E+02  0.13851098146E+02  0.00000000000E+00 0. -1.
</event>
<event>
 7    1  0.3041451E-011  0.5052885E+02  0.7816164E-02  0.1300439E+00
        -11   -1    0    0    0    0  0.00000000000E+00  0.00000000000E+00  0.45593999997E+02  0.45594000000E+02  0.51100000000E-03 0.  1.
         11   -1    0    0    0    0 -0.00000000000E+00 -0.00000000000E+00 -0.45593999997E+02  0.45594000000E+02  0.51100000000E-03 0. -1.
    9900012    2    1    2    0    0  0.18935826391E+01  0.33194003653E+02 -0.23403815481E+02  0.50528854500E+02  0.29999983738E+02 0.  0.
         12    1    1    2    0    0 -0.18935826391E+01 -0.33194003653E+02  0.23403815481E+02  0.40659145500E+02  0.00000000000E+00 0. -1.
         11    1    3    3    0    0 -0.35409142150E+01  0.38979876372E+01  0.46118972122E+01  0.70001412310E+01  0.51100000000E-03 0. -1.
        -11    1    3    3    0    0  0.55958175635E+01  0.29245340961E+02 -0.20824288687E+02  0.36335301590E+02  0.51100000000E-03 0.  1.
        -12    1    3    3    0    0 -0.16132070942E+00  0.50675055159E-01 -0.71914240066E+01  0.71934116784E+01  0.00000000000E+00 0.  1.
</event>
<event>
 7    1  0.3041451E-011  0.5052886E+02  0.7816164E-02  0.1300439E+00
        -11   -1    0    0    0    0  0.00000000000E+00  0.00000000000E+00  0.45593999997E+02  0.45594000000E+02  0.51100000000E-03 0.  1.
         11   -1    0    0    0    0 -0.00000000000E+00 -0.00000000000E+00 -0.45593999997E+02  0.45594000000E+02  0.51100000000E-03 0. -1.
    9900012    2    1    2    0    0  0.26537642849E+01 -0.35273508420E+02  0.20047518951E+02  0.50528857397E+02  0.29999992544E+02 0.  0.
         12    1    1    2    0    0 -0.26537642849E+01  0.35273508420E+02 -0.20047518951E+02  0.40659142603E+02  0.00000000000E+00 0. -1.
         11    1    3    3    0    0 -0.73452347782E+01 -0.45113338695E+01 -0.25675994261E+01  0.89942856471E+01  0.51100000000E-03 0. -1.
        -11    1    3    3    0    0  0.60746704318E+01 -0.29678876640E+02  0.21947810804E+02  0.37409139777E+02  0.51100000000E-03 0.  1.
         12    1    3    3    0    0  0.39243286313E+01 -0.10832979099E+01  0.66730757273E+00  0.41254319731E+01  0.00000000000E+00 0. -1.
</event>
<event>
 7    1  0.3041451E-011  0.5052886E+02  0.7816164E-02  0.1300439E+00
        -11   -1    0    0    0    0  0.00000000000E+00  0.00000000000E+00  0.45593999997E+02  0.45594000000E+02  0.51100000000E-03 0.  1.
         11   -1    0    0    0    0 -0.00000000000E+00 -0.00000000000E+00 -0.45593999997E+02  0.45594000000E+02  0.51100000000E-03 0. -1.
    9900012    2    1    2    0    0  0.32460924304E+02 -0.99428960013E+01  0.22373940059E+02  0.50528856117E+02  0.29999988652E+02 0.  0.
         12    1    1    2    0    0 -0.32460924304E+02  0.99428960013E+01 -0.22373940059E+02  0.40659143883E+02  0.00000000000E+00 0. -1.
         11    1    3    3    0    0 -0.40154438479E+01  0.30013068916E+01  0.15176037788E+01  0.52378195696E+01  0.51100000000E-03 0. -1.
        -11    1    3    3    0    0  0.25973760965E+02 -0.13041685601E+02  0.11607679564E+02  0.31296326415E+02  0.51100000000E-03 0.  1.
        -12    1    3    3    0    0  0.10502607187E+02  0.97482708173E-01  0.92486567171E+01  0.13994710132E+02  0.00000000000E+00 0.  1.
</event>
<event>
 7    1  0.3041451E-011  0.5052887E+02  0.7816164E-02  0.1300439E+00
        -11   -1    0    0    0    0  0.00000000000E+00  0.00000000000E+00  0.45593999997E+02  0.45594000000E+02  0.51100000000E-03 0.  1.
         11   -1    0    0    0    0 -0.00000000000E+00 -0.00000000000E+00 -0.45593999997E+02  0.45594000000E+02  0.51100000000E-03 0. -1.
    9900012    2    1    2    0    0  0.37044297484E+02  0.14802325428E+02 -0.78597932465E+01  0.50528866168E+02  0.30000019203E+02 0.  0.
         12    1    1    2    0    0 -0.37044297484E+02 -0.14802325428E+02  0.78597932465E+01  0.40659133832E+02  0.00000000000E+00 0. -1.
         11    1    3    3    0    0  0.14269023777E+02 -0.66287669136E+01  0.17051083061E+01  0.15825706459E+02  0.51100000000E-03 0. -1.
        -11    1    3    3    0    0  0.61342135181E+01  0.11573771241E+02  0.60432270320E-01  0.13099023190E+02  0.51100000000E-03 0.  1.
        -12    1    3    3    0    0  0.16641060189E+02  0.98573211007E+01 -0.96253338230E+01  0.21604136518E+02  0.00000000000E+00 0.  1.
</event>
<event>
 7    1  0.3041451E-011  0.5052885E+02  0.7816164E-02  0.1300439E+00
        -11   -1    0    0    0    0  0.00000000000E+00  0.00000000000E+00  0.45593999997E+02  0.45594000000E+02  0.51100000000E-03 0.  1.
         11   -1    0    0    0    0 -0.00000000000E+00 -0.00000000000E+00 -0.45593999997E+02  0.45594000000E+02  0.51100000000E-03 0. -1.
    9900012    2    1    2    0    0  0.32446409518E+02  0.23841735225E+02  0.56540669031E+01  0.50528852177E+02  0.29999976678E+02 0.  0.
         12    1    1    2    0    0 -0.32446409518E+02 -0.23841735225E+02 -0.56540669031E+01  0.40659147823E+02  0.00000000000E+00 0. -1.
         11    1    3    3    0    0 -0.47806807150E+01  0.48997048732E+01  0.35465041337E+01  0.77097151552E+01  0.51100000000E-03 0. -1.
        -11    1    3    3    0    0  0.22890488183E+02  0.12960390797E+02  0.56061268485E+01  0.26895628592E+02  0.51100000000E-03 0.  1.
        -12    1    3    3    0    0  0.14336602050E+02  0.59816395556E+01 -0.34985640792E+01  0.15923508430E+02  0.00000000000E+00 0.  1.
</event>
<event>
 7    1  0.3041451E-011  0.5052886E+02  0.7816164E-02  0.1300439E+00
        -11   -1    0    0    0    0  0.00000000000E+00  0.00000000000E+00  0.45593999997E+02  0.45594000000E+02  0.51100000000E-03 0.  1.
         11   -1    0    0    0    0 -0.00000000000E+00 -0.00000000000E+00 -0.45593999997E+02  0.45594000000E+02  0.51100000000E-03 0. -1.
    9900012    2    1    2    0    0  0.13623682588E+02 -0.17895012317E+02  0.33872252337E+02  0.50528859927E+02  0.30000000234E+02 0.  0.
         12    1    1    2    0    0 -0.13623682588E+02  0.17895012317E+02 -0.33872252337E+02  0.40659140073E+02  0.00000000000E+00 0. -1.
         11    1    3    3    0    0 -0.72634551644E+01  0.15059251189E+01  0.68924555512E+01  0.10125785657E+02  0.51100000000E-03 0. -1.
        -11    1    3    3    0    0  0.49246964629E+01 -0.29578258569E+01  0.11174173015E+02  0.12564374711E+02  0.51100000000E-03 0.  1.
         12    1    3    3    0    0  0.15962441290E+02 -0.16443111579E+02  0.15805623770E+02  0.27838699558E+02  0.00000000000E+00 0. -1.
</event>
<event>
 7    1  0.3041451E-011  0.5052884E+02  0.7816164E-02  0.1300439E+00
        -11   -1    0    0    0    0  0.00000000000E+00  0.00000000000E+00  0.45593999997E+02  0.45594000000E+02  0.51100000000E-03 0.  1.
         11   -1    0    0    0    0 -0.00000000000E+00 -0.00000000000E+00 -0.45593999997E+02  0.45594000000E+02  0.51100000000E-03 0. -1.
    9900012    2    1    2    0    0 -0.30191811697E+02  0.25666029321E+02 -0.91036708629E+01  0.50528838943E+02  0.29999936451E+02 0.  0.
         12    1    1    2    0    0  0.30191811697E+02 -0.25666029321E+02  0.91036708629E+01  0.40659161057E+02  0.00000000000E+00 0. -1.
         11    1    3    3    0    0 -0.77013805646E+01  0.10146151747E+02  0.79828421224E+01  0.15032678620E+02  0.51100000000E-03 0.  1.
        -11    1    3    3    0    0 -0.95148409066E+01 -0.15747751347E+01 -0.49400680440E+01  0.10835884216E+02  0.51100000000E-03 0. -1.
        -12    1    3    3    0    0 -0.12975590226E+02  0.17094652709E+02 -0.12146444941E+02  0.24660276107E+02  0.00000000000E+00 0.  1.
</event>
<event>
 7    1  0.3041451E-011  0.5052884E+02  0.7816164E-02  0.1300439E+00
        -11   -1    0    0    0    0  0.00000000000E+00  0.00000000000E+00  0.45593999997E+02  0.45594000000E+02  0.51100000000E-03 0.  1.
         11   -1    0    0    0    0 -0.00000000000E+00 -0.00000000000E+00 -0.45593999997E+02  0.45594000000E+02  0.51100000000E-03 0. -1.
    9900012    2    1    2    0    0  0.17431389852E+01 -0.26304375657E+02  0.30954944934E+02  0.50528839555E+02  0.29999938311E+02 0.  0.
         12    1    1    2    0    0 -0.17431389852E+01  0.26304375657E+02 -0.30954944934E+02  0.40659160445E+02  0.00000000000E+00 0. -1.
         11    1    3    3    0    0 -0.43644237611E+01 -0.29244541622E+01 -0.15649007128E+01  0.54817462013E+01  0.51100000000E-03 0. -1.
        -11    1    3    3    0    0  0.76988257947E+01 -0.18844237525E+01  0.16119529911E+02  0.17962800904E+02  0.51100000000E-03 0.  1.
        -12    1    3    3    0    0 -0.15912630484E+01 -0.21495497742E+02  0.16400315736E+02  0.27084292450E+02  0.00000000000E+00 0.  1.
</event>
<event>
 7    1  0.3041451E-011  0.5052886E+02  0.7816164E-02  0.1300439E+00
        -11   -1    0    0    0    0  0.00000000000E+00  0.00000000000E+00  0.45593999997E+02  0.45594000000E+02  0.51100000000E-03 0.  1.
         11   -1    0    0    0    0 -0.00000000000E+00 -0.00000000000E+00 -0.45593999997E+02  0.45594000000E+02  0.51100000000E-03 0. -1.
    9900012    2    1    2    0    0 -0.35768301139E+02  0.34392552128E+01  0.19025390092E+02  0.50528864361E+02  0.30000013711E+02 0.  0.
         12    1    1    2    0    0  0.35768301139E+02 -0.34392552128E+01 -0.19025390092E+02  0.40659135639E+02  0.00000000000E+00 0. -1.
         11    1    3    3    0    0  0.14663966533E+01  0.59435809548E+01 -0.23274586704E+01  0.65493158295E+01  0.51100000000E-03 0. -1.
        -11    1    3    3    0    0 -0.22760220739E+01 -0.23143124775E+01  0.33212154026E+01  0.46440058932E+01  0.51100000000E-03 0.  1.
         12    1    3    3    0    0 -0.34958675718E+02 -0.19001326457E+00  0.18031633360E+02  0.39335542638E+02  0.00000000000E+00 0. -1.
</event>
<event>
 7    1  0.3041451E-011  0.5052887E+02  0.7816164E-02  0.1300439E+00
        -11   -1    0    0    0    0  0.00000000000E+00  0.00000000000E+00  0.45593999997E+02  0.45594000000E+02  0.51100000000E-03 0.  1.
         11   -1    0    0    0    0 -0.00000000000E+00 -0.00000000000E+00 -0.45593999997E+02  0.45594000000E+02  0.51100000000E-03 0. -1.
    9900012    2    1    2    0    0 -0.10779030494E+02  0.96252448601E+01  0.38004370209E+02  0.50528868283E+02  0.30000025634E+02 0.  0.
         12    1    1    2    0    0  0.10779030494E+02 -0.96252448601E+01 -0.38004370209E+02  0.40659131717E+02  0.00000000000E+00 0. -1.
         11    1    3    3    0    0  0.34009035916E+01 -0.33686605922E+00 -0.14453376296E+01  0.37106098024E+01  0.51100000000E-03 0. -1.
        -11    1    3    3    0    0 -0.13056497509E+02  0.15068951845E+02  0.30076856753E+02  0.36085492228E+02  0.51100000000E-03 0.  1.
         12    1    3    3    0    0 -0.11234365762E+01 -0.51068409258E+01  0.93728510849E+01  0.10732766253E+02  0.00000000000E+00 0. -1.
</event>
<event>
 7    1  0.3041451E-011  0.5052885E+02  0.7816164E-02  0.1300439E+00
        -11   -1    0    0    0    0  0.00000000000E+00  0.00000000000E+00  0.45593999997E+02  0.45594000000E+02  0.51100000000E-03 0.  1.
         11   -1    0    0    0    0 -0.00000000000E+00 -0.00000000000E+00 -0.45593999997E+02  0.45594000000E+02  0.51100000000E-03 0. -1.
    9900012    2    1    2    0    0 -0.17209156648E+02  0.28687864914E+02  0.23108818433E+02  0.50528853978E+02  0.29999982153E+02 0.  0.
         12    1    1    2    0    0  0.17209156648E+02 -0.28687864914E+02 -0.23108818433E+02  0.40659146022E+02  0.00000000000E+00 0. -1.
         11    1    3    3    0    0  0.46354997652E+00  0.20752004027E+02  0.19952249242E+02  0.28791540420E+02  0.51100000000E-03 0. -1.
        -11    1    3    3    0    0 -0.15058225271E+02  0.10083916542E+02  0.27068660005E+01  0.18323827246E+02  0.51100000000E-03 0.  1.
        -12    1    3    3    0    0 -0.26144813532E+01 -0.21480556548E+01  0.44970319020E+00  0.34134863119E+01  0.00000000000E+00 0.  1.
</event>
<event>
 7    1  0.3041451E-011  0.5052886E+02  0.7816164E-02  0.1300439E+00
        -11   -1    0    0    0    0  0.00000000000E+00  0.00000000000E+00  0.45593999997E+02  0.45594000000E+02  0.51100000000E-03 0.  1.
         11   -1    0    0    0    0 -0.00000000000E+00 -0.00000000000E+00 -0.45593999997E+02  0.45594000000E+02  0.51100000000E-03 0. -1.
    9900012    2    1    2    0    0  0.39403948416E+02 -0.93918476586E+01 -0.35053512668E+01  0.50528862765E+02  0.30000008859E+02 0.  0.
         12    1    1    2    0    0 -0.39403948416E+02  0.93918476586E+01  0.35053512668E+01  0.40659137235E+02  0.00000000000E+00 0. -1.
         11    1    3    3    0    0  0.43958376034E+01  0.86145010067E+01 -0.34078131929E+01  0.10254082448E+02  0.51100000000E-03 0. -1.
        -11    1    3    3    0    0  0.82594420588E+01 -0.64389820744E+00 -0.11725820608E+01  0.83670745768E+01  0.51100000000E-03 0.  1.
         12    1    3    3    0    0  0.26748668754E+02 -0.17362450458E+02  0.10750439868E+01  0.31907705740E+02  0.00000000000E+00 0. -1.
</event>
<event>
 7    1  0.3041451E-011  0.5052887E+02  0.7816164E-02  0.1300439E+00
        -11   -1    0    0    0    0  0.00000000000E+00  0.00000000000E+00  0.45593999997E+02  0.45594000000E+02  0.51100000000E-03 0.  1.
         11   -1    0    0    0    0 -0.00000000000E+00 -0.00000000000E+00 -0.45593999997E+02  0.45594000000E+02  0.51100000000E-03 0. -1.
    9900012    2    1    2    0    0  0.20549348406E+02  0.25083492321E+02  0.24529730971E+02  0.50528868080E+02  0.30000025017E+02 0.  0.
         12    1    1    2    0    0 -0.20549348406E+02 -0.25083492321E+02 -0.24529730971E+02  0.40659131920E+02  0.00000000000E+00 0. -1.
         11    1    3    3    0    0  0.45762664524E+01 -0.19702276760E+01 -0.15135768347E+01  0.52071995194E+01  0.51100000000E-03 0. -1.
        -11    1    3    3    0    0  0.16780009393E+02  0.15953449065E+02  0.25106335799E+02  0.34152735613E+02  0.51100000000E-03 0.  1.
        -12    1    3    3    0    0 -0.80692743944E+00  0.11100270932E+02  0.93697200623E+00  0.11168932948E+02  0.00000000000E+00 0.  1.
</event>
<event>
 7    1  0.3041451E-011  0.5052886E+02  0.7816164E-02  0.1300439E+00
        -11   -1    0    0    0    0  0.00000000000E+00  0.00000000000E+00  0.45593999997E+02  0.45594000000E+02  0.51100000000E-03 0.  1.
         11   -1    0    0    0    0 -0.00000000000E+00 -0.00000000000E+00 -0.45593999997E+02  0.45594000000E+02  0.51100000000E-03 0. -1.
    9900012    2    1    2    0    0  0.36494330009E+01  0.40062050013E+02 -0.59059160353E+01  0.50528855190E+02  0.29999985835E+02 0.  0.
         12    1    1    2    0    0 -0.36494330009E+01 -0.40062050013E+02  0.59059160353E+01  0.40659144810E+02  0.00000000000E+00 0. -1.
         11    1    3    3    0    0 -0.57350722761E+01  0.11148440850E+02 -0.14568285507E+01  0.12621455427E+02  0.51100000000E-03 0. -1.
        -11    1    3    3    0    0  0.92382046341E+01  0.24593697266E+01 -0.62007398861E+01  0.11394827761E+02  0.51100000000E-03 0.  1.
        -12    1    3    3    0    0  0.14630064291E+00  0.26454239436E+02  0.17516524015E+01  0.26512572002E+02  0.00000000000E+00 0.  1.
</event>
<event>
 7    1  0.3041451E-011  0.5052886E+02  0.7816164E-02  0.1300439E+00
        -11   -1    0    0    0    0  0.00000000000E+00  0.00000000000E+00  0.45593999997E+02  0.45594000000E+02  0.51100000000E-03 0.  1.
         11   -1    0    0    0    0 -0.00000000000E+00 -0.00000000000E+00 -0.45593999997E+02  0.45594000000E+02  0.51100000000E-03 0. -1.
    9900012    2    1    2    0    0 -0.13351212748E+02  0.28351587174E+02  0.25905557938E+02  0.50528864382E+02  0.30000013776E+02 0.  0.
         12    1    1    2    0    0  0.13351212748E+02 -0.28351587174E+02 -0.25905557938E+02  0.40659135618E+02  0.00000000000E+00 0. -1.
         11    1    3    3    0    0 -0.15175292143E+02  0.18603551584E+02  0.88984589664E+01  0.25603987880E+02  0.51100000000E-03 0. -1.
        -11    1    3    3    0    0  0.49339029656E+01  0.26611914474E+01 -0.65272221397E+00  0.56437031233E+01  0.51100000000E-03 0.  1.
        -12    1    3    3    0    0 -0.31098235707E+01  0.70868441431E+01  0.17659821185E+02  0.19281173378E+02  0.00000000000E+00 0.  1.
</event>
<event>
 7    1  0.3041451E-011  0.5052888E+02  0.7816164E-02  0.1300439E+00
        -11   -1    0    0    0    0  0.00000000000E+00  0.00000000000E+00  0.45593999997E+02  0.45594000000E+02  0.51100000000E-03 0.  1.
         11   -1    0    0    0    0 -0.00000000000E+00 -0.00000000000E+00 -0.45593999997E+02  0.45594000000E+02  0.51100000000E-03 0. -1.
    9900012    2    1    2    0    0 -0.19451336377E+02  0.27494388092E+02  0.22778685702E+02  0.50528875739E+02  0.30000048295E+02 0.  0.
         12    1    1    2    0    0  0.19451336377E+02 -0.27494388092E+02 -0.22778685702E+02  0.40659124261E+02  0.00000000000E+00 0. -1.
         11    1    3    3    0    0 -0.17312202129E+01  0.19335416531E+02  0.18380199123E+02  0.26733633796E+02  0.51100000000E-03 0. -1.
        -11    1    3    3    0    0 -0.12764062621E+02  0.11433822661E+02  0.49295179778E+01  0.17831257471E+02  0.51100000000E-03 0.  1.
         12    1    3    3    0    0 -0.49560535426E+01 -0.32748510996E+01 -0.53103139913E+00  0.59639844725E+01  0.00000000000E+00 0. -1.
</event>
<event>
 7    1  0.3041451E-011  0.5052885E+02  0.7816164E-02  0.1300439E+00
        -11   -1    0    0    0    0  0.00000000000E+00  0.00000000000E+00  0.45593999997E+02  0.45594000000E+02  0.51100000000E-03 0.  1.
         11   -1    0    0    0    0 -0.00000000000E+00 -0.00000000000E+00 -0.45593999997E+02  0.45594000000E+02  0.51100000000E-03 0. -1.
    9900012    2    1    2    0    0  0.27168645855E+02  0.24413279822E+02  0.17861214419E+02  0.50528849372E+02  0.29999968151E+02 0.  0.
         12    1    1    2    0    0 -0.27168645855E+02 -0.24413279822E+02 -0.17861214419E+02  0.40659150628E+02  0.00000000000E+00 0. -1.
         11    1    3    3    0    0  0.49755017352E+00  0.64795176348E+00 -0.38259003857E+01  0.39121492412E+01  0.51100000000E-03 0. -1.
        -11    1    3    3    0    0  0.13233210189E+02  0.22123585244E+02  0.20666451891E+02  0.33040476843E+02  0.51100000000E-03 0.  1.
        -12    1    3    3    0    0  0.13437885493E+02  0.16417428146E+01  0.10206629134E+01  0.13576223288E+02  0.00000000000E+00 0.  1.
</event>
<event>
 7    1  0.3041451E-011  0.5052886E+02  0.7816164E-02  0.1300439E+00
        -11   -1    0    0    0    0  0.00000000000E+00  0.00000000000E+00  0.45593999997E+02  0.45594000000E+02  0.51100000000E-03 0. -1.
         11   -1    0    0    0    0 -0.00000000000E+00 -0.00000000000E+00 -0.45593999997E+02  0.45594000000E+02  0.51100000000E-03 0.  1.
    9900012    2    1    2    0    0  0.34455098710E+01  0.24093134839E+02 -0.32570153710E+02  0.50528860838E+02  0.30000003005E+02 0.  0.
         12    1    1    2    0    0 -0.34455098710E+01 -0.24093134839E+02  0.32570153710E+02  0.40659139162E+02  0.00000000000E+00 0. -1.
         11    1    3    3    0    0  0.82556530152E+01  0.19960398449E+02 -0.12534104058E+02  0.24973527539E+02  0.51100000000E-03 0. -1.
        -11    1    3    3    0    0 -0.36766990072E+01  0.82738898970E+01 -0.19134150725E+02  0.21168162269E+02  0.51100000000E-03 0.  1.
         12    1    3    3    0    0 -0.11334441370E+01 -0.41411535064E+01 -0.90189892656E+00  0.43871710303E+01  0.00000000000E+00 0. -1.
</event>
<event>
 7    1  0.3041451E-011  0.5052882E+02  0.7816164E-02  0.1300439E+00
        -11   -1    0    0    0    0  0.00000000000E+00  0.00000000000E+00  0.45593999997E+02  0.45594000000E+02  0.51100000000E-03 0.  1.
         11   -1    0    0    0    0 -0.00000000000E+00 -0.00000000000E+00 -0.45593999997E+02  0.45594000000E+02  0.51100000000E-03 0. -1.
    9900012    2    1    2    0    0  0.34783402987E+02  0.77159912527E+00  0.21040155116E+02  0.50528823719E+02  0.29999890176E+02 0.  0.
         12    1    1    2    0    0 -0.34783402987E+02 -0.77159912527E+00 -0.21040155116E+02  0.40659176281E+02  0.00000000000E+00 0. -1.
         11    1    3    3    0    0 -0.33223111515E+01 -0.20236910424E+01 -0.95316651469E+00  0.40051970598E+01  0.51100000000E-03 0. -1.
        -11    1    3    3    0    0  0.39414398108E+02  0.33220457862E+01  0.21556690026E+02  0.45046882818E+02  0.51100000000E-03 0.  1.
        -12    1    3    3    0    0 -0.13086839701E+01 -0.52675561857E+00  0.43663160463E+00  0.14767438416E+01  0.00000000000E+00 0.  1.
</event>
<event>
 7    1  0.3041451E-011  0.5052886E+02  0.7816164E-02  0.1300439E+00
        -11   -1    0    0    0    0  0.00000000000E+00  0.00000000000E+00  0.45593999997E+02  0.45594000000E+02  0.51100000000E-03 0. -1.
         11   -1    0    0    0    0 -0.00000000000E+00 -0.00000000000E+00 -0.45593999997E+02  0.45594000000E+02  0.51100000000E-03 0.  1.
    9900012    2    1    2    0    0  0.16240982738E+02 -0.28242237813E+02 -0.24326372129E+02  0.50528857142E+02  0.29999991770E+02 0.  0.
         12    1    1    2    0    0 -0.16240982738E+02  0.28242237813E+02  0.24326372129E+02  0.40659142858E+02  0.00000000000E+00 0. -1.
         11    1    3    3    0    0 -0.43230934060E+01 -0.10874535786E+02  0.46199291905E+00  0.11711451783E+02  0.51100000000E-03 0. -1.
        -11    1    3    3    0    0  0.17542751775E+02 -0.77543291215E+01 -0.19824405947E+02  0.27584140939E+02  0.51100000000E-03 0.  1.
        -12    1    3    3    0    0  0.30213243689E+01 -0.96133729062E+01 -0.49639591011E+01  0.11233264420E+02  0.00000000000E+00 0.  1.
</event>
<event>
 7    1  0.3041451E-011  0.5052885E+02  0.7816164E-02  0.1300439E+00
        -11   -1    0    0    0    0  0.00000000000E+00  0.00000000000E+00  0.45593999997E+02  0.45594000000E+02  0.51100000000E-03 0. -1.
         11   -1    0    0    0    0 -0.00000000000E+00 -0.00000000000E+00 -0.45593999997E+02  0.45594000000E+02  0.51100000000E-03 0.  1.
    9900012    2    1    2    0    0 -0.28437804686E+02  0.29058829399E+02 -0.20459035717E+00  0.50528853937E+02  0.29999982026E+02 0.  0.
         12    1    1    2    0    0  0.28437804686E+02 -0.29058829399E+02  0.20459035717E+00  0.40659146063E+02  0.00000000000E+00 0. -1.
         11    1    3    3    0    0 -0.55456259576E+01  0.77474591904E+01 -0.10803845284E+02  0.14404865996E+02  0.51100000000E-03 0. -1.
        -11    1    3    3    0    0 -0.12513388320E+02  0.60462179183E+01  0.10900202979E+02  0.17662277984E+02  0.51100000000E-03 0.  1.
        -12    1    3    3    0    0 -0.10378790408E+02  0.15265152290E+02 -0.30094805196E+00  0.18461709956E+02  0.00000000000E+00 0.  1.
</event>
<event>
 7    1  0.3041451E-011  0.5052887E+02  0.7816164E-02  0.1300439E+00
        -11   -1    0    0    0    0  0.00000000000E+00  0.00000000000E+00  0.45593999997E+02  0.45594000000E+02  0.51100000000E-03 0.  1.
         11   -1    0    0    0    0 -0.00000000000E+00 -0.00000000000E+00 -0.45593999997E+02  0.45594000000E+02  0.51100000000E-03 0. -1.
    9900012    2    1    2    0    0 -0.99986237253E+01 -0.24557181898E+01  0.39333981815E+02  0.50528866294E+02  0.30000019589E+02 0.  0.
         12    1    1    2    0    0  0.99986237253E+01  0.24557181898E+01 -0.39333981815E+02  0.40659133706E+02  0.00000000000E+00 0. -1.
         11    1    3    3    0    0  0.61006911544E+01 -0.73052276620E+01  0.20360493329E+02  0.22475196831E+02  0.51100000000E-03 0. -1.
        -11    1    3    3    0    0 -0.82102349274E+01  0.71622566839E+01  0.53404635831E+01  0.12133689872E+02  0.51100000000E-03 0.  1.
        -12    1    3    3    0    0 -0.78890799523E+01 -0.23127472117E+01  0.13633024904E+02  0.15919979591E+02  0.00000000000E+00 0.  1.
</event>
<event>
 7    1  0.3041451E-011  0.5052887E+02  0.7816164E-02  0.1300439E+00
        -11   -1    0    0    0    0  0.00000000000E+00  0.00000000000E+00  0.45593999997E+02  0.45594000000E+02  0.51100000000E-03 0.  1.
         11   -1    0    0    0    0 -0.00000000000E+00 -0.00000000000E+00 -0.45593999997E+02  0.45594000000E+02  0.51100000000E-03 0. -1.
    9900012    2    1    2    0    0 -0.18275853110E+02 -0.28742812965E+01  0.36206308458E+02  0.50528867298E+02  0.30000022640E+02 0.  0.
         12    1    1    2    0    0  0.18275853110E+02  0.28742812965E+01 -0.36206308458E+02  0.40659132702E+02  0.00000000000E+00 0. -1.
         11    1    3    3    0    0 -0.31817442193E+01  0.60568300731E+01  0.69662835296E+01  0.97641073984E+01  0.51100000000E-03 0. -1.
        -11    1    3    3    0    0 -0.14877519223E+02 -0.64748811887E+01  0.32706952644E+02  0.36510401479E+02  0.51100000000E-03 0.  1.
        -12    1    3    3    0    0 -0.21658966710E+00 -0.24562301809E+01 -0.34669277156E+01  0.42543584206E+01  0.00000000000E+00 0.  1.
</event>
<event>
 7    1  0.3041451E-011  0.5052887E+02  0.7816164E-02  0.1300439E+00
        -11   -1    0    0    0    0  0.00000000000E+00  0.00000000000E+00  0.45593999997E+02  0.45594000000E+02  0.51100000000E-03 0. -1.
         11   -1    0    0    0    0 -0.00000000000E+00 -0.00000000000E+00 -0.45593999997E+02  0.45594000000E+02  0.51100000000E-03 0.  1.
    9900012    2    1    2    0    0  0.28525921653E+02 -0.74623144728E+01 -0.27995543988E+02  0.50528870316E+02  0.30000031813E+02 0.  0.
         12    1    1    2    0    0 -0.28525921653E+02  0.74623144728E+01  0.27995543988E+02  0.40659129684E+02  0.00000000000E+00 0. -1.
         11    1    3    3    0    0 -0.91367739411E+00  0.37251216922E+01  0.76440398088E+00  0.39109655725E+01  0.51100000000E-03 0. -1.
        -11    1    3    3    0    0  0.30825714665E+02 -0.12105341369E+02 -0.29887012277E+02  0.44609387772E+02  0.51100000000E-03 0.  1.
        -12    1    3    3    0    0 -0.13861156178E+01  0.91790520442E+00  0.11270643080E+01  0.20085169715E+01  0.00000000000E+00 0.  1.
</event>
<event>
 7    1  0.3041451E-011  0.5052887E+02  0.7816164E-02  0.1300439E+00
        -11   -1    0    0    0    0  0.00000000000E+00  0.00000000000E+00  0.45593999997E+02  0.45594000000E+02  0.51100000000E-03 0.  1.
         11   -1    0    0    0    0 -0.00000000000E+00 -0.00000000000E+00 -0.45593999997E+02  0.45594000000E+02  0.51100000000E-03 0. -1.
    9900012    2    1    2    0    0  0.87450340434E+01 -0.15525564917E+02  0.36546486779E+02  0.50528874551E+02  0.30000044684E+02 0.  0.
         12    1    1    2    0    0 -0.87450340434E+01  0.15525564917E+02 -0.36546486779E+02  0.40659125449E+02  0.00000000000E+00 0. -1.
         11    1    3    3    0    0 -0.66230793822E+01  0.23137557540E-01  0.36966492004E+01  0.75849147274E+01  0.51100000000E-03 0. -1.
        -11    1    3    3    0    0  0.18346584137E+02 -0.16328401675E+02  0.28648457402E+02  0.37735235026E+02  0.51100000000E-03 0.  1.
        -12    1    3    3    0    0 -0.29784707111E+01  0.77969919995E+00  0.42013801769E+01  0.52087247970E+01  0.00000000000E+00 0.  1.
</event>
<event>
 7    1  0.3041451E-011  0.5052887E+02  0.7816164E-02  0.1300439E+00
        -11   -1    0    0    0    0  0.00000000000E+00  0.00000000000E+00  0.45593999997E+02  0.45594000000E+02  0.51100000000E-03 0.  1.
         11   -1    0    0    0    0 -0.00000000000E+00 -0.00000000000E+00 -0.45593999997E+02  0.45594000000E+02  0.51100000000E-03 0. -1.
    9900012    2    1    2    0    0  0.33583153082E+02 -0.11885017654E+02  0.19598037186E+02  0.50528869696E+02  0.30000029927E+02 0.  0.
         12    1    1    2    0    0 -0.33583153082E+02  0.11885017654E+02 -0.19598037186E+02  0.40659130304E+02  0.00000000000E+00 0. -1.
         11    1    3    3    0    0  0.84035982261E+01 -0.16749275035E+02  0.10048496331E+02  0.21263371231E+02  0.51100000000E-03 0. -1.
        -11    1    3    3    0    0  0.11094146085E+02  0.72818904027E+01  0.33462688484E+01  0.13685887646E+02  0.51100000000E-03 0.  1.
         12    1    3    3    0    0  0.14085408771E+02 -0.24176330211E+01  0.62032720066E+01  0.15579610818E+02  0.00000000000E+00 0. -1.
</event>
<event>
 7    1  0.3041451E-011  0.5052886E+02  0.7816164E-02  0.1300439E+00
        -11   -1    0    0    0    0  0.00000000000E+00  0.00000000000E+00  0.45593999997E+02  0.45594000000E+02  0.51100000000E-03 0.  1.
         11   -1    0    0    0    0 -0.00000000000E+00 -0.00000000000E+00 -0.45593999997E+02  0.45594000000E+02  0.51100000000E-03 0. -1.
    9900012    2    1    2    0    0  0.77799500876E+01  0.19529266303E+02  0.34802953311E+02  0.50528862959E+02  0.30000009451E+02 0.  0.
         12    1    1    2    0    0 -0.77799500876E+01 -0.19529266303E+02 -0.34802953311E+02  0.40659137041E+02  0.00000000000E+00 0. -1.
         11    1    3    3    0    0 -0.15906912062E+01 -0.64725829235E+01  0.44932412548E+01  0.80382737854E+01  0.51100000000E-03 0. -1.
        -11    1    3    3    0    0  0.24868493073E+01  0.18469863973E+02  0.24385935190E+02  0.30691922879E+02  0.51100000000E-03 0.  1.
         12    1    3    3    0    0  0.68837919866E+01  0.75319852536E+01  0.59237768667E+01  0.11798666295E+02  0.00000000000E+00 0. -1.
</event>
<event>
 7    1  0.3041451E-011  0.5052884E+02  0.7816164E-02  0.1300439E+00
        -11   -1    0    0    0    0  0.00000000000E+00  0.00000000000E+00  0.45593999997E+02  0.45594000000E+02  0.51100000000E-03 0. -1.
         11   -1    0    0    0    0 -0.00000000000E+00 -0.00000000000E+00 -0.45593999997E+02  0.45594000000E+02  0.51100000000E-03 0.  1.
    9900012    2    1    2    0    0 -0.40162340169E+02  0.52930401885E+01  0.34838656852E+01  0.50528841592E+02  0.29999944504E+02 0.  0.
         12    1    1    2    0    0  0.40162340169E+02 -0.52930401885E+01 -0.34838656852E+01  0.40659158408E+02  0.00000000000E+00 0. -1.
         11    1    3    3    0    0  0.19211674199E+01 -0.63674773168E+00  0.74020975659E+01  0.76738113455E+01  0.51100000000E-03 0. -1.
        -11    1    3    3    0    0 -0.27388097231E+02  0.54430089838E+01 -0.15958881583E+01  0.27969288086E+02  0.51100000000E-03 0.  1.
         12    1    3    3    0    0 -0.14695410358E+02  0.48677893639E+00 -0.23223437225E+01  0.14885742161E+02  0.00000000000E+00 0. -1.
</event>
<event>
 7    1  0.3041451E-011  0.5052885E+02  0.7816164E-02  0.1300439E+00
        -11   -1    0    0    0    0  0.00000000000E+00  0.00000000000E+00  0.45593999997E+02  0.45594000000E+02  0.51100000000E-03 0.  1.
         11   -1    0    0    0    0 -0.00000000000E+00 -0.00000000000E+00 -0.45593999997E+02  0.45594000000E+02  0.51100000000E-03 0. -1.
    9900012    2    1    2    0    0 -0.22260991037E+02 -0.13308542709E+02  0.31312896773E+02  0.50528849304E+02  0.29999967944E+02 0.  0.
         12    1    1    2    0    0  0.22260991037E+02  0.13308542709E+02 -0.31312896773E+02  0.40659150696E+02  0.00000000000E+00 0. -1.
         11    1    3    3    0    0 -0.22313868179E+02  0.13925710208E+00  0.14866951102E+02  0.26813323945E+02  0.51100000000E-03 0. -1.
        -11    1    3    3    0    0 -0.11642159561E+01 -0.12800488978E+02  0.17684684065E+02  0.21862204089E+02  0.51100000000E-03 0.  1.
         12    1    3    3    0    0  0.12170930975E+01 -0.64731083272E+00 -0.12387383938E+01  0.18533212701E+01  0.00000000000E+00 0. -1.
</event>
<event>
 7    1  0.3041451E-011  0.5052885E+02  0.7816164E-02  0.1300439E+00
        -11   -1    0    0    0    0  0.00000000000E+00  0.00000000000E+00  0.45593999997E+02  0.45594000000E+02  0.51100000000E-03 0.  1.
         11   -1    0    0    0    0 -0.00000000000E+00 -0.00000000000E+00 -0.45593999997E+02  0.45594000000E+02  0.51100000000E-03 0. -1.
    9900012    2    1    2    0    0 -0.31786702290E+01  0.40526572699E+02 -0.81209490382E+00  0.50528849280E+02  0.29999967870E+02 0.  0.
         12    1    1    2    0    0  0.31786702290E+01 -0.40526572699E+02  0.81209490382E+00  0.40659150720E+02  0.00000000000E+00 0. -1.
         11    1    3    3    0    0 -0.30729606027E+01  0.30566676590E+02 -0.16557045033E+01  0.30765340276E+02  0.51100000000E-03 0. -1.
        -11    1    3    3    0    0 -0.80984342225E-01  0.52271835289E+00  0.79389352219E+01  0.79565372907E+01  0.51100000000E-03 0.  1.
         12    1    3    3    0    0 -0.24725284098E-01  0.94371777562E+01 -0.70953256224E+01  0.11806971713E+02  0.00000000000E+00 0. -1.
</event>
<event>
 7    1  0.3041451E-011  0.5052886E+02  0.7816164E-02  0.1300439E+00
        -11   -1    0    0    0    0  0.00000000000E+00  0.00000000000E+00  0.45593999997E+02  0.45594000000E+02  0.51100000000E-03 0.  1.
         11   -1    0    0    0    0 -0.00000000000E+00 -0.00000000000E+00 -0.45593999997E+02  0.45594000000E+02  0.51100000000E-03 0. -1.
    9900012    2    1    2    0    0  0.83078096712E+01 -0.39159366610E+02  0.71196871092E+01  0.50528860322E+02  0.30000001436E+02 0.  0.
         12    1    1    2    0    0 -0.83078096712E+01  0.39159366610E+02 -0.71196871092E+01  0.40659139678E+02  0.00000000000E+00 0. -1.
         11    1    3    3    0    0  0.12609077538E+01 -0.52647049393E+01 -0.73767052585E+01  0.91500156936E+01  0.51100000000E-03 0. -1.
        -11    1    3    3    0    0  0.54405383970E+01 -0.17256992817E+02  0.16570799154E+02  0.24535579145E+02  0.51100000000E-03 0.  1.
        -12    1    3    3    0    0  0.16063635204E+01 -0.16637668854E+02 -0.20744067862E+01  0.16843265484E+02  0.00000000000E+00 0.  1.
</event>
<event>
 7    1  0.3041451E-011  0.5052885E+02  0.7816164E-02  0.1300439E+00
        -11   -1    0    0    0    0  0.00000000000E+00  0.00000000000E+00  0.45593999997E+02  0.45594000000E+02  0.51100000000E-03 0. -1.
         11   -1    0    0    0    0 -0.00000000000E+00 -0.00000000000E+00 -0.45593999997E+02  0.45594000000E+02  0.51100000000E-03 0.  1.
    9900012    2    1    2    0    0 -0.31257025027E+02 -0.22193331501E+02 -0.13550665489E+02  0.50528854511E+02  0.29999983772E+02 0.  0.
         12    1    1    2    0    0  0.31257025027E+02  0.22193331501E+02  0.13550665489E+02  0.40659145489E+02  0.00000000000E+00 0. -1.
         11    1    3    3    0    0  0.23173602666E+00 -0.44452001606E+01  0.21134778170E+01  0.49275039115E+01  0.51100000000E-03 0. -1.
        -11    1    3    3    0    0 -0.34273003306E+02 -0.14217875084E+02 -0.17135454474E+02  0.40870656072E+02  0.51100000000E-03 0.  1.
        -12    1    3    3    0    0  0.27842422519E+01 -0.35302562569E+01  0.14713111680E+01  0.47306945272E+01  0.00000000000E+00 0.  1.
</event>
<event>
 7    1  0.3041451E-011  0.5052888E+02  0.7816164E-02  0.1300439E+00
        -11   -1    0    0    0    0  0.00000000000E+00  0.00000000000E+00  0.45593999997E+02  0.45594000000E+02  0.51100000000E-03 0.  1.
         11   -1    0    0    0    0 -0.00000000000E+00 -0.00000000000E+00 -0.45593999997E+02  0.45594000000E+02  0.51100000000E-03 0. -1.
    9900012    2    1    2    0    0 -0.31556183016E+01  0.13062675551E+02  0.38374119024E+02  0.50528875190E+02  0.30000046628E+02 0.  0.
         12    1    1    2    0    0  0.31556183016E+01 -0.13062675551E+02 -0.38374119024E+02  0.40659124810E+02  0.00000000000E+00 0. -1.
         11    1    3    3    0    0  0.10914968346E+01 -0.25624578656E+01 -0.99413833090E-01  0.27870125627E+01  0.51100000000E-03 0. -1.
        -11    1    3    3    0    0 -0.10724225164E+02  0.93064473380E+01  0.87668389792E+01  0.16687613172E+02  0.51100000000E-03 0.  1.
        -12    1    3    3    0    0  0.64771100280E+01  0.63186860783E+01  0.29706693878E+02  0.31054249456E+02  0.00000000000E+00 0.  1.
</event>
<event>
 7    1  0.3967303E-011  0.5052889E+02  0.7816164E-02  0.1300439E+00
        -11   -1    0    0    0    0  0.00000000000E+00  0.00000000000E+00  0.45593999997E+02  0.45594000000E+02  0.51100000000E-03 0. -1.
         11   -1    0    0    0    0 -0.00000000000E+00 -0.00000000000E+00 -0.45593999997E+02  0.45594000000E+02  0.51100000000E-03 0.  1.
    9900012    2    1    2    0    0  0.24437678191E+01  0.26761859207E+02 -0.30512202654E+02  0.50528885152E+02  0.30000076909E+02 0.  0.
         12    1    1    2    0    0 -0.24437678191E+01 -0.26761859207E+02  0.30512202654E+02  0.40659114848E+02  0.00000000000E+00 0. -1.
         11    1    3    3    0    0  0.46761258355E+01  0.77756279087E+01  0.18196751630E+01  0.92540672228E+01  0.51100000000E-03 0. -1.
        -11    1    3    3    0    0  0.33431088918E+01  0.74013257856E+01 -0.25403480681E+02  0.26670073705E+02  0.51100000000E-03 0.  1.
         12    1    3    3    0    0 -0.55754669081E+01  0.11584905513E+02 -0.69283971356E+01  0.14604744224E+02  0.00000000000E+00 0. -1.
</event>
<event>
 7    1  0.3041451E-011  0.5052885E+02  0.7816164E-02  0.1300439E+00
        -11   -1    0    0    0    0  0.00000000000E+00  0.00000000000E+00  0.45593999997E+02  0.45594000000E+02  0.51100000000E-03 0.  1.
         11   -1    0    0    0    0 -0.00000000000E+00 -0.00000000000E+00 -0.45593999997E+02  0.45594000000E+02  0.51100000000E-03 0. -1.
    9900012    2    1    2    0    0 -0.32725891017E+01  0.31998116750E+02  0.24871204976E+02  0.50528854019E+02  0.29999982276E+02 0.  0.
         12    1    1    2    0    0  0.32725891017E+01 -0.31998116750E+02 -0.24871204976E+02  0.40659145981E+02  0.00000000000E+00 0. -1.
         11    1    3    3    0    0  0.56583000834E-01 -0.27930996985E+01  0.67300438957E+01  0.72868442183E+01  0.51100000000E-03 0. -1.
        -11    1    3    3    0    0 -0.10428241397E+02  0.18538371596E+02  0.74709409355E+01  0.22544054622E+02  0.51100000000E-03 0.  1.
         12    1    3    3    0    0  0.70990692946E+01  0.16252844852E+02  0.10670220145E+02  0.20697955179E+02  0.00000000000E+00 0. -1.
</event>
<event>
 7    1  0.3041451E-011  0.5052886E+02  0.7816164E-02  0.1300439E+00
        -11   -1    0    0    0    0  0.00000000000E+00  0.00000000000E+00  0.45593999997E+02  0.45594000000E+02  0.51100000000E-03 0.  1.
         11   -1    0    0    0    0 -0.00000000000E+00 -0.00000000000E+00 -0.45593999997E+02  0.45594000000E+02  0.51100000000E-03 0. -1.
    9900012    2    1    2    0    0  0.33683144746E+02  0.18682070198E+02  0.13022741399E+02  0.50528858588E+02  0.29999996163E+02 0.  0.
         12    1    1    2    0    0 -0.33683144746E+02 -0.18682070198E+02 -0.13022741399E+02  0.40659141412E+02  0.00000000000E+00 0. -1.
         11    1    3    3    0    0  0.18731719758E+02 -0.24165477755E+01 -0.27574223575E+01  0.19087179114E+02  0.51100000000E-03 0. -1.
        -11    1    3    3    0    0  0.88563999056E+01  0.11740840816E+02  0.13665412027E+02  0.20075523616E+02  0.51100000000E-03 0.  1.
         12    1    3    3    0    0  0.60950250826E+01  0.93577771575E+01  0.21147517299E+01  0.11366155857E+02  0.00000000000E+00 0. -1.
</event>
<event>
 7    1  0.3041451E-011  0.5052886E+02  0.7816164E-02  0.1300439E+00
        -11   -1    0    0    0    0  0.00000000000E+00  0.00000000000E+00  0.45593999997E+02  0.45594000000E+02  0.51100000000E-03 0.  1.
         11   -1    0    0    0    0 -0.00000000000E+00 -0.00000000000E+00 -0.45593999997E+02  0.45594000000E+02  0.51100000000E-03 0. -1.
    9900012    2    1    2    0    0  0.22580085399E+02  0.13728828083E+02  0.30900241370E+02  0.50528857192E+02  0.29999991922E+02 0.  0.
         12    1    1    2    0    0 -0.22580085399E+02 -0.13728828083E+02 -0.30900241370E+02  0.40659142808E+02  0.00000000000E+00 0. -1.
         11    1    3    3    0    0  0.32634141537E+01  0.39632812067E+01 -0.33411922040E+01  0.61254416549E+01  0.51100000000E-03 0. -1.
        -11    1    3    3    0    0  0.56867440445E+01  0.24131129372E+01  0.26268301367E+02  0.26984918544E+02  0.51100000000E-03 0.  1.
        -12    1    3    3    0    0  0.13629927200E+02  0.73524339391E+01  0.79731322067E+01  0.17418496993E+02  0.00000000000E+00 0.  1.
</event>
<event>
 7    1  0.3041451E-011  0.5052887E+02  0.7816164E-02  0.1300439E+00
        -11   -1    0    0    0    0  0.00000000000E+00  0.00000000000E+00  0.45593999997E+02  0.45594000000E+02  0.51100000000E-03 0.  1.
         11   -1    0    0    0    0 -0.00000000000E+00 -0.00000000000E+00 -0.45593999997E+02  0.45594000000E+02  0.51100000000E-03 0. -1.
    9900012    2    1    2    0    0 -0.71188190315E+01  0.49036130997E+01  0.39729609985E+02  0.50528869225E+02  0.30000028497E+02 0.  0.
         12    1    1    2    0    0  0.71188190315E+01 -0.49036130997E+01 -0.39729609985E+02  0.40659130775E+02  0.00000000000E+00 0. -1.
         11    1    3    3    0    0  0.17139882348E+01  0.18354458324E+01 -0.17826029600E+01  0.30796575535E+01  0.51100000000E-03 0. -1.
        -11    1    3    3    0    0 -0.47113180422E+01 -0.19030141934E+00  0.41915409096E+02  0.42179784877E+02  0.51100000000E-03 0.  1.
        -12    1    3    3    0    0 -0.41214892241E+01  0.32584686867E+01 -0.40319615133E+00  0.52694267945E+01  0.00000000000E+00 0.  1.
</event>
<event>
 7    1  0.3041451E-011  0.5052886E+02  0.7816164E-02  0.1300439E+00
        -11   -1    0    0    0    0  0.00000000000E+00  0.00000000000E+00  0.45593999997E+02  0.45594000000E+02  0.51100000000E-03 0. -1.
         11   -1    0    0    0    0 -0.00000000000E+00 -0.00000000000E+00 -0.45593999997E+02  0.45594000000E+02  0.51100000000E-03 0.  1.
    9900012    2    1    2    0    0 -0.13990394150E+02 -0.84076318481E+01 -0.37239045103E+02  0.50528857339E+02  0.29999992367E+02 0.  0.
         12    1    1    2    0    0  0.13990394150E+02  0.84076318481E+01  0.37239045103E+02  0.40659142661E+02  0.00000000000E+00 0. -1.
         11    1    3    3    0    0  0.26470180713E+01  0.13031882866E+00 -0.93554454390E+00  0.28105037844E+01  0.51100000000E-03 0. -1.
        -11    1    3    3    0    0 -0.19450859087E+02 -0.68908217556E+01 -0.38573171298E+02  0.43745958532E+02  0.51100000000E-03 0.  1.
        -12    1    3    3    0    0  0.28134468662E+01 -0.16471289211E+01  0.22696707383E+01  0.39723950222E+01  0.00000000000E+00 0.  1.
</event>
<event>
 7    1  0.3041451E-011  0.5052886E+02  0.7816164E-02  0.1300439E+00
        -11   -1    0    0    0    0  0.00000000000E+00  0.00000000000E+00  0.45593999997E+02  0.45594000000E+02  0.51100000000E-03 0.  1.
         11   -1    0    0    0    0 -0.00000000000E+00 -0.00000000000E+00 -0.45593999997E+02  0.45594000000E+02  0.51100000000E-03 0. -1.
    9900012    2    1    2    0    0 -0.19593903655E+02 -0.13328542694E+02  0.33039290865E+02  0.50528857711E+02  0.29999993499E+02 0.  0.
         12    1    1    2    0    0  0.19593903655E+02  0.13328542694E+02 -0.33039290865E+02  0.40659142289E+02  0.00000000000E+00 0. -1.
         11    1    3    3    0    0  0.51068234405E+00 -0.10433703496E+02  0.44670047776E+01  0.11361210192E+02  0.51100000000E-03 0. -1.
        -11    1    3    3    0    0 -0.14909194595E+02 -0.99703229237E+01  0.20546607575E+02  0.27273696225E+02  0.51100000000E-03 0.  1.
         12    1    3    3    0    0 -0.51953914035E+01  0.70754837253E+01  0.80256785129E+01  0.11893951294E+02  0.00000000000E+00 0. -1.
</event>
<event>
 7    1  0.3041451E-011  0.5052883E+02  0.7816164E-02  0.1300439E+00
        -11   -1    0    0    0    0  0.00000000000E+00  0.00000000000E+00  0.45593999997E+02  0.45594000000E+02  0.51100000000E-03 0.  1.
         11   -1    0    0    0    0 -0.00000000000E+00 -0.00000000000E+00 -0.45593999997E+02  0.45594000000E+02  0.51100000000E-03 0. -1.
    9900012    2    1    2    0    0 -0.31701392903E+02 -0.17107617187E+02  0.18855219928E+02  0.50528828878E+02  0.29999905856E+02 0.  0.
         12    1    1    2    0    0  0.31701392903E+02  0.17107617187E+02 -0.18855219928E+02  0.40659171122E+02  0.00000000000E+00 0. -1.
         11    1    3    3    0    0 -0.99223865188E+01 -0.13676191979E+02 -0.48062681985E+01  0.17566792409E+02  0.51100000000E-03 0. -1.
        -11    1    3    3    0    0 -0.20113619912E+02 -0.12995342781E+01  0.21726948712E+02  0.29636241258E+02  0.51100000000E-03 0.  1.
         12    1    3    3    0    0 -0.16653864725E+01 -0.21318909302E+01  0.19345394148E+01  0.33257952114E+01  0.00000000000E+00 0. -1.
</event>
<event>
 7    1  0.3041451E-011  0.5052886E+02  0.7816164E-02  0.1300439E+00
        -11   -1    0    0    0    0  0.00000000000E+00  0.00000000000E+00  0.45593999997E+02  0.45594000000E+02  0.51100000000E-03 0.  1.
         11   -1    0    0    0    0 -0.00000000000E+00 -0.00000000000E+00 -0.45593999997E+02  0.45594000000E+02  0.51100000000E-03 0. -1.
    9900012    2    1    2    0    0  0.35210599372E+02  0.19280504571E+02 -0.64530306256E+01  0.50528858729E+02  0.29999996592E+02 0.  0.
         12    1    1    2    0    0 -0.35210599372E+02 -0.19280504571E+02  0.64530306256E+01  0.40659141271E+02  0.00000000000E+00 0. -1.
         11    1    3    3    0    0  0.29090633596E+02  0.21516021794E+02 -0.15171120929E+02  0.39234768604E+02  0.51100000000E-03 0. -1.
        -11    1    3    3    0    0  0.25676344813E+01 -0.21757861297E+01  0.57592972575E+01  0.66705544952E+01  0.51100000000E-03 0.  1.
         12    1    3    3    0    0  0.35523312950E+01 -0.59731093656E-01  0.29587930459E+01  0.46235356299E+01  0.00000000000E+00 0. -1.
</event>
<event>
 7    1  0.3041451E-011  0.5052888E+02  0.7816164E-02  0.1300439E+00
        -11   -1    0    0    0    0  0.00000000000E+00  0.00000000000E+00  0.45593999997E+02  0.45594000000E+02  0.51100000000E-03 0.  1.
         11   -1    0    0    0    0 -0.00000000000E+00 -0.00000000000E+00 -0.45593999997E+02  0.45594000000E+02  0.51100000000E-03 0. -1.
    9900012    2    1    2    0    0 -0.31790376544E+02 -0.16349450449E+02  0.19370898062E+02  0.50528877253E+02  0.30000052900E+02 0.  0.
         12    1    1    2    0    0  0.31790376544E+02  0.16349450449E+02 -0.19370898062E+02  0.40659122747E+02  0.00000000000E+00 0. -1.
         11    1    3    3    0    0 -0.26376804748E+00  0.39874731078E+01 -0.99120052425E-01  0.39974167176E+01  0.51100000000E-03 0. -1.
        -11    1    3    3    0    0 -0.32242931358E+02 -0.22793000725E+02  0.17049400821E+02  0.43009412612E+02  0.51100000000E-03 0.  1.
        -12    1    3    3    0    0  0.71632286120E+00  0.24560771685E+01  0.24206172932E+01  0.35220479240E+01  0.00000000000E+00 0.  1.
</event>
<event>
 7    1  0.3041451E-011  0.5052883E+02  0.7816164E-02  0.1300439E+00
        -11   -1    0    0    0    0  0.00000000000E+00  0.00000000000E+00  0.45593999997E+02  0.45594000000E+02  0.51100000000E-03 0. -1.
         11   -1    0    0    0    0 -0.00000000000E+00 -0.00000000000E+00 -0.45593999997E+02  0.45594000000E+02  0.51100000000E-03 0.  1.
    9900012    2    1    2    0    0 -0.26118392288E+02 -0.10161228504E+01 -0.31144268127E+02  0.50528826883E+02  0.29999899794E+02 0.  0.
         12    1    1    2    0    0  0.26118392288E+02  0.10161228504E+01  0.31144268127E+02  0.40659173117E+02  0.00000000000E+00 0. -1.
         11    1    3    3    0    0 -0.73915853440E+01  0.12666353575E+01 -0.14754195563E+01  0.76430859053E+01  0.51100000000E-03 0. -1.
        -11    1    3    3    0    0 -0.11370990460E+02  0.48479623668E+01 -0.30195185951E+02  0.32627464168E+02  0.51100000000E-03 0.  1.
        -12    1    3    3    0    0 -0.73558164839E+01 -0.71307205748E+01  0.52633738057E+00  0.10258276809E+02  0.00000000000E+00 0.  1.
</event>
<event>
 7    1  0.3041451E-011  0.5052886E+02  0.7816164E-02  0.1300439E+00
        -11   -1    0    0    0    0  0.00000000000E+00  0.00000000000E+00  0.45593999997E+02  0.45594000000E+02  0.51100000000E-03 0. -1.
         11   -1    0    0    0    0 -0.00000000000E+00 -0.00000000000E+00 -0.45593999997E+02  0.45594000000E+02  0.51100000000E-03 0.  1.
    9900012    2    1    2    0    0 -0.39381227527E+02 -0.93852837586E+01  0.37684778469E+01  0.50528855174E+02  0.29999985786E+02 0.  0.
         12    1    1    2    0    0  0.39381227527E+02  0.93852837586E+01 -0.37684778469E+01  0.40659144826E+02  0.00000000000E+00 0. -1.
         11    1    3    3    0    0 -0.39228936896E+01 -0.10504708351E+02 -0.14936297442E+01  0.11312334971E+02  0.51100000000E-03 0. -1.
        -11    1    3    3    0    0 -0.16344964737E+02  0.33504449946E+01  0.99288410339E+01  0.19415592663E+02  0.51100000000E-03 0.  1.
        -12    1    3    3    0    0 -0.19113369100E+02 -0.22310204026E+01 -0.46667334428E+01  0.19800927539E+02  0.00000000000E+00 0.  1.
</event>
<event>
 7    1  0.3041451E-011  0.5052886E+02  0.7816164E-02  0.1300439E+00
        -11   -1    0    0    0    0  0.00000000000E+00  0.00000000000E+00  0.45593999997E+02  0.45594000000E+02  0.51100000000E-03 0. -1.
         11   -1    0    0    0    0 -0.00000000000E+00 -0.00000000000E+00 -0.45593999997E+02  0.45594000000E+02  0.51100000000E-03 0.  1.
    9900012    2    1    2    0    0 -0.25257822682E+01 -0.25800919853E+01 -0.40498506686E+02  0.50528862103E+02  0.30000006849E+02 0.  0.
         12    1    1    2    0    0  0.25257822682E+01  0.25800919853E+01  0.40498506686E+02  0.40659137897E+02  0.00000000000E+00 0. -1.
         11    1    3    3    0    0  0.10134841495E+02  0.57763732028E+01 -0.17110969473E+02  0.20709098872E+02  0.51100000000E-03 0. -1.
        -11    1    3    3    0    0 -0.75411258119E+01 -0.10419912849E+02 -0.14765063504E+02  0.19581886090E+02  0.51100000000E-03 0.  1.
        -12    1    3    3    0    0 -0.51194979512E+01  0.20634476605E+01 -0.86224737085E+01  0.10237877142E+02  0.00000000000E+00 0.  1.
</event>
<event>
 7    1  0.3041451E-011  0.5052885E+02  0.7816164E-02  0.1300439E+00
        -11   -1    0    0    0    0  0.00000000000E+00  0.00000000000E+00  0.45593999997E+02  0.45594000000E+02  0.51100000000E-03 0. -1.
         11   -1    0    0    0    0 -0.00000000000E+00 -0.00000000000E+00 -0.45593999997E+02  0.45594000000E+02  0.51100000000E-03 0.  1.
    9900012    2    1    2    0    0 -0.20452911299E+01 -0.33550834086E+02 -0.22876293137E+02  0.50528850090E+02  0.29999970335E+02 0.  0.
         12    1    1    2    0    0  0.20452911299E+01  0.33550834086E+02  0.22876293137E+02  0.40659149910E+02  0.00000000000E+00 0. -1.
         11    1    3    3    0    0 -0.12755218549E+02 -0.75241944357E+01 -0.14253411144E+02  0.20554046600E+02  0.51100000000E-03 0. -1.
        -11    1    3    3    0    0  0.37523035375E+01 -0.16006825835E+02 -0.39242259658E+01  0.16902597577E+02  0.51100000000E-03 0.  1.
         12    1    3    3    0    0  0.69576238818E+01 -0.10019813815E+02 -0.46986560275E+01  0.13072205913E+02  0.00000000000E+00 0. -1.
</event>
<event>
 7    1  0.3041451E-011  0.5052888E+02  0.7816164E-02  0.1300439E+00
        -11   -1    0    0    0    0  0.00000000000E+00  0.00000000000E+00  0.45593999997E+02  0.45594000000E+02  0.51100000000E-03 0. -1.
         11   -1    0    0    0    0 -0.00000000000E+00 -0.00000000000E+00 -0.45593999997E+02  0.45594000000E+02  0.51100000000E-03 0.  1.
    9900012    2    1    2    0    0  0.28668511679E+02 -0.14413461663E+02 -0.24970639604E+02  0.50528877024E+02  0.30000052201E+02 0.  0.
         12    1    1    2    0    0 -0.28668511679E+02  0.14413461663E+02  0.24970639604E+02  0.40659122976E+02  0.00000000000E+00 0. -1.
         11    1    3    3    0    0  0.16048802216E+01 -0.71706125693E+01  0.29405394214E+01  0.79145497341E+01  0.51100000000E-03 0. -1.
        -11    1    3    3    0    0  0.36115938262E+01 -0.69560379709E+00 -0.14203875764E+02  0.14672340018E+02  0.51100000000E-03 0.  1.
         12    1    3    3    0    0  0.23452037631E+02 -0.65472452962E+01 -0.13707303261E+02  0.27941987272E+02  0.00000000000E+00 0. -1.
</event>
<event>
 7    1  0.3041451E-011  0.5052886E+02  0.7816164E-02  0.1300439E+00
        -11   -1    0    0    0    0  0.00000000000E+00  0.00000000000E+00  0.45593999997E+02  0.45594000000E+02  0.51100000000E-03 0.  1.
         11   -1    0    0    0    0 -0.00000000000E+00 -0.00000000000E+00 -0.45593999997E+02  0.45594000000E+02  0.51100000000E-03 0. -1.
    9900012    2    1    2    0    0  0.12709401549E+02  0.26631528762E+02  0.27971388119E+02  0.50528858774E+02  0.29999996730E+02 0.  0.
         12    1    1    2    0    0 -0.12709401549E+02 -0.26631528762E+02 -0.27971388119E+02  0.40659141226E+02  0.00000000000E+00 0. -1.
         11    1    3    3    0    0  0.10475492364E+02  0.40611939695E+01  0.13055830564E+02  0.17224515920E+02  0.51100000000E-03 0. -1.
        -11    1    3    3    0    0 -0.78616434075E+01  0.13886834984E+02  0.11145618717E+02  0.19464697269E+02  0.51100000000E-03 0.  1.
        -12    1    3    3    0    0  0.10095552592E+02  0.86834998083E+01  0.37699388382E+01  0.13839645585E+02  0.00000000000E+00 0.  1.
</event>
<event>
 7    1  0.3041451E-011  0.5052886E+02  0.7816164E-02  0.1300439E+00
        -11   -1    0    0    0    0  0.00000000000E+00  0.00000000000E+00  0.45593999997E+02  0.45594000000E+02  0.51100000000E-03 0. -1.
         11   -1    0    0    0    0 -0.00000000000E+00 -0.00000000000E+00 -0.45593999997E+02  0.45594000000E+02  0.51100000000E-03 0.  1.
    9900012    2    1    2    0    0 -0.19341443760E+02  0.25472046893E+02 -0.25104764758E+02  0.50528857938E+02  0.29999994189E+02 0.  0.
         12    1    1    2    0    0  0.19341443760E+02 -0.25472046893E+02  0.25104764758E+02  0.40659142062E+02  0.00000000000E+00 0. -1.
         11    1    3    3    0    0  0.73082786301E+01  0.10711012481E+01 -0.53538686057E+01  0.91226149610E+01  0.51100000000E-03 0. -1.
        -11    1    3    3    0    0 -0.12074741806E+02  0.83100347109E+01 -0.72329081250E+01  0.16345367135E+02  0.51100000000E-03 0.  1.
         12    1    3    3    0    0 -0.14574980584E+02  0.16090910934E+02 -0.12517988028E+02  0.25060875842E+02  0.00000000000E+00 0. -1.
</event>
<event>
 7    1  0.3041451E-011  0.5052886E+02  0.7816164E-02  0.1300439E+00
        -11   -1    0    0    0    0  0.00000000000E+00  0.00000000000E+00  0.45593999997E+02  0.45594000000E+02  0.51100000000E-03 0.  1.
         11   -1    0    0    0    0 -0.00000000000E+00 -0.00000000000E+00 -0.45593999997E+02  0.45594000000E+02  0.51100000000E-03 0. -1.
    9900012    2    1    2    0    0  0.24634531600E+02  0.11936239575E+02  0.30063791915E+02  0.50528861462E+02  0.30000004900E+02 0.  0.
         12    1    1    2    0    0 -0.24634531600E+02 -0.11936239575E+02 -0.30063791915E+02  0.40659138538E+02  0.00000000000E+00 0. -1.
         11    1    3    3    0    0 -0.26368074839E+01  0.36106762942E+01  0.72141454106E+01  0.84872628848E+01  0.51100000000E-03 0. -1.
        -11    1    3    3    0    0  0.27736717459E+02  0.74518329304E+01  0.25999075031E+02  0.38740253124E+02  0.51100000000E-03 0.  1.
        -12    1    3    3    0    0 -0.46537837448E+00  0.87373035062E+00 -0.31494285265E+01  0.33013454531E+01  0.00000000000E+00 0.  1.
</event>
<event>
 7    1  0.3041451E-011  0.5052887E+02  0.7816164E-02  0.1300439E+00
        -11   -1    0    0    0    0  0.00000000000E+00  0.00000000000E+00  0.45593999997E+02  0.45594000000E+02  0.51100000000E-03 0.  1.
         11   -1    0    0    0    0 -0.00000000000E+00 -0.00000000000E+00 -0.45593999997E+02  0.45594000000E+02  0.51100000000E-03 0. -1.
    9900012    2    1    2    0    0  0.19720358793E+02  0.98716084499E+01  0.34158800618E+02  0.50528869857E+02  0.30000030417E+02 0.  0.
         12    1    1    2    0    0 -0.19720358793E+02 -0.98716084499E+01 -0.34158800618E+02  0.40659130143E+02  0.00000000000E+00 0. -1.
         11    1    3    3    0    0 -0.32114748808E+01  0.78147804697E+01  0.14284164462E+01  0.85688236360E+01  0.51100000000E-03 0. -1.
        -11    1    3    3    0    0  0.10987224937E+02 -0.52422900350E+01  0.16902393795E+02  0.20830065600E+02  0.51100000000E-03 0.  1.
         12    1    3    3    0    0  0.11944608737E+02  0.72991180151E+01  0.15827990377E+02  0.21129980621E+02  0.00000000000E+00 0. -1.
</event>
<event>
 7    1  0.3041451E-011  0.5052901E+02  0.7816164E-02  0.1300438E+00
        -11   -1    0    0    0    0  0.00000000000E+00  0.00000000000E+00  0.45593999997E+02  0.45594000000E+02  0.51100000000E-03 0. -1.
         11   -1    0    0    0    0 -0.00000000000E+00 -0.00000000000E+00 -0.45593999997E+02  0.45594000000E+02  0.51100000000E-03 0.  1.
    9900012    2    1    2    0    0 -0.22940014162E+02 -0.16057686048E+02 -0.29479827260E+02  0.50529006576E+02  0.30000445986E+02 0.  0.
         12    1    1    2    0    0  0.22940014162E+02  0.16057686048E+02  0.29479827260E+02  0.40658993424E+02  0.00000000000E+00 0. -1.
         11    1    3    3    0    0  0.47019259362E+01 -0.29645936789E+01 -0.74841731913E+01  0.93225410596E+01  0.51100000000E-03 0. -1.
        -11    1    3    3    0    0 -0.60789069739E+01 -0.11295543061E+02 -0.53129261837E+01  0.13884148801E+02  0.51100000000E-03 0.  1.
         12    1    3    3    0    0 -0.21563033124E+02 -0.17975493079E+01 -0.16682727885E+02  0.27322316716E+02  0.00000000000E+00 0. -1.
</event>
<event>
 7    1  0.3041451E-011  0.5052886E+02  0.7816164E-02  0.1300439E+00
        -11   -1    0    0    0    0  0.00000000000E+00  0.00000000000E+00  0.45593999997E+02  0.45594000000E+02  0.51100000000E-03 0.  1.
         11   -1    0    0    0    0 -0.00000000000E+00 -0.00000000000E+00 -0.45593999997E+02  0.45594000000E+02  0.51100000000E-03 0. -1.
    9900012    2    1    2    0    0 -0.33599766741E+02  0.12336112492E+02  0.19288383079E+02  0.50528859352E+02  0.29999998486E+02 0.  0.
         12    1    1    2    0    0  0.33599766741E+02 -0.12336112492E+02 -0.19288383079E+02  0.40659140648E+02  0.00000000000E+00 0. -1.
         11    1    3    3    0    0 -0.31873392412E+02  0.53100842398E+01  0.50290944253E+01  0.32701711416E+02  0.51100000000E-03 0. -1.
        -11    1    3    3    0    0  0.30326662141E+01  0.41462969714E+01  0.68256744904E+01  0.85427557293E+01  0.51100000000E-03 0.  1.
        -12    1    3    3    0    0 -0.47590405425E+01  0.28797312803E+01  0.74336141629E+01  0.92843922071E+01  0.00000000000E+00 0.  1.
</event>
<event>
 7    1  0.3041451E-011  0.5052886E+02  0.7816164E-02  0.1300439E+00
        -11   -1    0    0    0    0  0.00000000000E+00  0.00000000000E+00  0.45593999997E+02  0.45594000000E+02  0.51100000000E-03 0.  1.
         11   -1    0    0    0    0 -0.00000000000E+00 -0.00000000000E+00 -0.45593999997E+02  0.45594000000E+02  0.51100000000E-03 0. -1.
    9900012    2    1    2    0    0 -0.26782067900E+02 -0.20549094707E+02  0.22663213577E+02  0.50528859528E+02  0.29999999022E+02 0.  0.
         12    1    1    2    0    0  0.26782067900E+02  0.20549094707E+02 -0.22663213577E+02  0.40659140472E+02  0.00000000000E+00 0. -1.
         11    1    3    3    0    0 -0.14552582155E+02 -0.10804923421E+02 -0.16204419230E+01  0.18197523177E+02  0.51100000000E-03 0. -1.
        -11    1    3    3    0    0 -0.10058453235E+02 -0.13500238502E+02  0.20851465197E+02  0.26799487350E+02  0.51100000000E-03 0.  1.
        -12    1    3    3    0    0 -0.21710325102E+01  0.37560672160E+01  0.34321903026E+01  0.55318490005E+01  0.00000000000E+00 0.  1.
</event>
<event>
 7    1  0.3041451E-011  0.5052883E+02  0.7816164E-02  0.1300439E+00
        -11   -1    0    0    0    0  0.00000000000E+00  0.00000000000E+00  0.45593999997E+02  0.45594000000E+02  0.51100000000E-03 0.  1.
         11   -1    0    0    0    0 -0.00000000000E+00 -0.00000000000E+00 -0.45593999997E+02  0.45594000000E+02  0.51100000000E-03 0. -1.
    9900012    2    1    2    0    0 -0.25356733002E+02  0.31307527548E+02 -0.54811655449E+01  0.50528826798E+02  0.29999899536E+02 0.  0.
         12    1    1    2    0    0  0.25356733002E+02 -0.31307527548E+02  0.54811655449E+01  0.40659173202E+02  0.00000000000E+00 0. -1.
         11    1    3    3    0    0 -0.70107830707E+01 -0.48325103051E+01 -0.83694239632E+00  0.85559749853E+01  0.51100000000E-03 0. -1.
        -11    1    3    3    0    0 -0.82638651209E+01  0.15034323868E+02  0.28935172687E+01  0.17398126433E+02  0.51100000000E-03 0.  1.
         12    1    3    3    0    0 -0.10082084810E+02  0.21105713985E+02 -0.75377404174E+01  0.24574725381E+02  0.00000000000E+00 0. -1.
</event>
<event>
 7    1  0.3041451E-011  0.5052885E+02  0.7816164E-02  0.1300439E+00
        -11   -1    0    0    0    0  0.00000000000E+00  0.00000000000E+00  0.45593999997E+02  0.45594000000E+02  0.51100000000E-03 0.  1.
         11   -1    0    0    0    0 -0.00000000000E+00 -0.00000000000E+00 -0.45593999997E+02  0.45594000000E+02  0.51100000000E-03 0. -1.
    9900012    2    1    2    0    0 -0.21352283687E+02  0.19897533999E+02  0.28307859818E+02  0.50528845983E+02  0.29999957849E+02 0.  0.
         12    1    1    2    0    0  0.21352283687E+02 -0.19897533999E+02 -0.28307859818E+02  0.40659154017E+02  0.00000000000E+00 0. -1.
         11    1    3    3    0    0 -0.91850513001E+01  0.56505609672E+00  0.22527336422E+02  0.24334447648E+02  0.51100000000E-03 0. -1.
        -11    1    3    3    0    0 -0.19244698135E+01  0.13303144350E+02  0.13473940016E+01  0.13508986065E+02  0.51100000000E-03 0.  1.
         12    1    3    3    0    0 -0.10242762574E+02  0.60293335530E+01  0.44331293942E+01  0.12685412270E+02  0.00000000000E+00 0. -1.
</event>
<event>
 7    1  0.3041451E-011  0.5052886E+02  0.7816164E-02  0.1300439E+00
        -11   -1    0    0    0    0  0.00000000000E+00  0.00000000000E+00  0.45593999997E+02  0.45594000000E+02  0.51100000000E-03 0. -1.
         11   -1    0    0    0    0 -0.00000000000E+00 -0.00000000000E+00 -0.45593999997E+02  0.45594000000E+02  0.51100000000E-03 0.  1.
    9900012    2    1    2    0    0  0.12749769671E+01  0.26594647766E+02 -0.30728895327E+02  0.50528857558E+02  0.29999993035E+02 0.  0.
         12    1    1    2    0    0 -0.12749769671E+01 -0.26594647766E+02  0.30728895327E+02  0.40659142442E+02  0.00000000000E+00 0. -1.
         11    1    3    3    0    0 -0.37459377947E+01 -0.27718760817E+01 -0.14730659368E+00  0.46623005553E+01  0.51100000000E-03 0. -1.
        -11    1    3    3    0    0  0.24209378070E+01  0.28310659629E+02 -0.31939479579E+02  0.42749090570E+02  0.51100000000E-03 0.  1.
        -12    1    3    3    0    0  0.25999769547E+01  0.10558642187E+01  0.13578908460E+01  0.31174664334E+01  0.00000000000E+00 0.  1.
</event>
<event>
 7    1  0.3041451E-011  0.5052886E+02  0.7816164E-02  0.1300439E+00
        -11   -1    0    0    0    0  0.00000000000E+00  0.00000000000E+00  0.45593999997E+02  0.45594000000E+02  0.51100000000E-03 0. -1.
         11   -1    0    0    0    0 -0.00000000000E+00 -0.00000000000E+00 -0.45593999997E+02  0.45594000000E+02  0.51100000000E-03 0.  1.
    9900012    2    1    2    0    0 -0.32525733912E+02  0.10701100712E+02 -0.21925524602E+02  0.50528861396E+02  0.30000004699E+02 0.  0.
         12    1    1    2    0    0  0.32525733912E+02 -0.10701100712E+02  0.21925524602E+02  0.40659138604E+02  0.00000000000E+00 0. -1.
         11    1    3    3    0    0  0.50356233404E+01  0.22659519996E+01 -0.93741610197E+00  0.56009633189E+01  0.51100000000E-03 0. -1.
        -11    1    3    3    0    0 -0.31551400469E+02  0.40984810132E+01 -0.19654336068E+02  0.37397611484E+02  0.51100000000E-03 0.  1.
        -12    1    3    3    0    0 -0.60099567829E+01  0.43366676989E+01 -0.13337724320E+01  0.75302865924E+01  0.00000000000E+00 0.  1.
</event>
<event>
 7    1  0.3041451E-011  0.5052886E+02  0.7816164E-02  0.1300439E+00
        -11   -1    0    0    0    0  0.00000000000E+00  0.00000000000E+00  0.45593999997E+02  0.45594000000E+02  0.51100000000E-03 0.  1.
         11   -1    0    0    0    0 -0.00000000000E+00 -0.00000000000E+00 -0.45593999997E+02  0.45594000000E+02  0.51100000000E-03 0. -1.
    9900012    2    1    2    0    0 -0.12114563261E+02 -0.34606399755E+02 -0.17572698351E+02  0.50528864810E+02  0.30000015078E+02 0.  0.
         12    1    1    2    0    0  0.12114563261E+02  0.34606399755E+02  0.17572698351E+02  0.40659135190E+02  0.00000000000E+00 0. -1.
         11    1    3    3    0    0 -0.25576550131E+01 -0.12635558617E+01 -0.11173128851E+02  0.11531564558E+02  0.51100000000E-03 0. -1.
        -11    1    3    3    0    0 -0.79328250113E+01 -0.24522299996E+02  0.30686934691E+01  0.25955534856E+02  0.51100000000E-03 0.  1.
        -12    1    3    3    0    0 -0.16240832371E+01 -0.88205438970E+01 -0.94682629695E+01  0.13041765397E+02  0.00000000000E+00 0.  1.
</event>
<event>
 7    1  0.3041451E-011  0.5052884E+02  0.7816164E-02  0.1300439E+00
        -11   -1    0    0    0    0  0.00000000000E+00  0.00000000000E+00  0.45593999997E+02  0.45594000000E+02  0.51100000000E-03 0. -1.
         11   -1    0    0    0    0 -0.00000000000E+00 -0.00000000000E+00 -0.45593999997E+02  0.45594000000E+02  0.51100000000E-03 0.  1.
    9900012    2    1    2    0    0  0.10039202487E+02  0.26392703300E+02 -0.29254183754E+02  0.50528835705E+02  0.29999926608E+02 0.  0.
         12    1    1    2    0    0 -0.10039202487E+02 -0.26392703300E+02  0.29254183754E+02  0.40659164295E+02  0.00000000000E+00 0. -1.
         11    1    3    3    0    0  0.51285226960E+01  0.18131331288E+01 -0.52162804386E+00  0.54645487337E+01  0.51100000000E-03 0. -1.
        -11    1    3    3    0    0  0.27531418073E+00  0.27940517053E+02 -0.19057983154E+02  0.33822404013E+02  0.51100000000E-03 0.  1.
        -12    1    3    3    0    0  0.46353656108E+01 -0.33609468813E+01 -0.96745725567E+01  0.11241882958E+02  0.00000000000E+00 0.  1.
</event>
<event>
 7    1  0.3041451E-011  0.5052886E+02  0.7816164E-02  0.1300439E+00
        -11   -1    0    0    0    0  0.00000000000E+00  0.00000000000E+00  0.45593999997E+02  0.45594000000E+02  0.51100000000E-03 0. -1.
         11   -1    0    0    0    0 -0.00000000000E+00 -0.00000000000E+00 -0.45593999997E+02  0.45594000000E+02  0.51100000000E-03 0.  1.
    9900012    2    1    2    0    0 -0.37818812684E+02  0.14758903622E+02 -0.22533526099E+01  0.50528862934E+02  0.30000009375E+02 0.  0.
         12    1    1    2    0    0  0.37818812684E+02 -0.14758903622E+02  0.22533526099E+01  0.40659137066E+02  0.00000000000E+00 0. -1.
         11    1    3    3    0    0 -0.13427334130E+02  0.69150128216E-01 -0.13389702351E+02  0.18962653108E+02  0.51100000000E-03 0. -1.
        -11    1    3    3    0    0 -0.65478070064E+01  0.82150580066E+01  0.31004454172E+01  0.10953251421E+02  0.51100000000E-03 0.  1.
         12    1    3    3    0    0 -0.17843671547E+02  0.64746954872E+01  0.80359043236E+01  0.20612958406E+02  0.00000000000E+00 0. -1.
</event>
<event>
 7    1  0.3041451E-011  0.5052885E+02  0.7816164E-02  0.1300439E+00
        -11   -1    0    0    0    0  0.00000000000E+00  0.00000000000E+00  0.45593999997E+02  0.45594000000E+02  0.51100000000E-03 0. -1.
         11   -1    0    0    0    0 -0.00000000000E+00 -0.00000000000E+00 -0.45593999997E+02  0.45594000000E+02  0.51100000000E-03 0.  1.
    9900012    2    1    2    0    0  0.14249036612E+02 -0.83294401127E+01 -0.37158465273E+02  0.50528853939E+02  0.29999982034E+02 0.  0.
         12    1    1    2    0    0 -0.14249036612E+02  0.83294401127E+01  0.37158465273E+02  0.40659146061E+02  0.00000000000E+00 0. -1.
         11    1    3    3    0    0  0.37483283583E+01 -0.98993050293E+01 -0.31771047620E+01  0.11051705772E+02  0.51100000000E-03 0. -1.
        -11    1    3    3    0    0  0.10289089741E+02  0.80039890901E+01 -0.26991357326E+02  0.29974365375E+02  0.51100000000E-03 0.  1.
         12    1    3    3    0    0  0.21161851264E+00 -0.64341241735E+01 -0.69900031847E+01  0.95027827922E+01  0.00000000000E+00 0. -1.
</event>
<event>
 7    1  0.3041451E-011  0.5052887E+02  0.7816164E-02  0.1300439E+00
        -11   -1    0    0    0    0  0.00000000000E+00  0.00000000000E+00  0.45593999997E+02  0.45594000000E+02  0.51100000000E-03 0. -1.
         11   -1    0    0    0    0 -0.00000000000E+00 -0.00000000000E+00 -0.45593999997E+02  0.45594000000E+02  0.51100000000E-03 0.  1.
    9900012    2    1    2    0    0 -0.40142925619E+02 -0.26332555067E+01 -0.58971610266E+01  0.50528867939E+02  0.30000024587E+02 0.  0.
         12    1    1    2    0    0  0.40142925619E+02  0.26332555067E+01  0.58971610266E+01  0.40659132061E+02  0.00000000000E+00 0. -1.
         11    1    3    3    0    0  0.12550899594E+01  0.58214132748E+01 -0.53624564337E+01  0.80137408610E+01  0.51100000000E-03 0. -1.
        -11    1    3    3    0    0 -0.16932613477E+02 -0.38399111965E+01 -0.24965532863E+01  0.17541125839E+02  0.51100000000E-03 0.  1.
         12    1    3    3    0    0 -0.24465402102E+02 -0.46147575850E+01  0.19618486934E+01  0.24974001238E+02  0.00000000000E+00 0. -1.
</event>
<event>
 7    1  0.3041451E-011  0.5052885E+02  0.7816164E-02  0.1300439E+00
        -11   -1    0    0    0    0  0.00000000000E+00  0.00000000000E+00  0.45593999997E+02  0.45594000000E+02  0.51100000000E-03 0.  1.
         11   -1    0    0    0    0 -0.00000000000E+00 -0.00000000000E+00 -0.45593999997E+02  0.45594000000E+02  0.51100000000E-03 0. -1.
    9900012    2    1    2    0    0  0.18467397040E+02 -0.19177573835E+01  0.36172417007E+02  0.50528852211E+02  0.29999976782E+02 0.  0.
         12    1    1    2    0    0 -0.18467397040E+02  0.19177573835E+01 -0.36172417007E+02  0.40659147789E+02  0.00000000000E+00 0. -1.
         11    1    3    3    0    0  0.40508127246E+01  0.69140358947E+01 -0.46091986069E+00  0.80265449269E+01  0.51100000000E-03 0. -1.
        -11    1    3    3    0    0  0.24248125930E+01 -0.90238093252E+01  0.13124227633E+02  0.16110685959E+02  0.51100000000E-03 0.  1.
         12    1    3    3    0    0  0.11991771722E+02  0.19201604692E+00  0.23509109234E+02  0.26391621325E+02  0.00000000000E+00 0. -1.
</event>
<event>
 7    1  0.3041451E-011  0.5052883E+02  0.7816164E-02  0.1300439E+00
        -11   -1    0    0    0    0  0.00000000000E+00  0.00000000000E+00  0.45593999997E+02  0.45594000000E+02  0.51100000000E-03 0. -1.
         11   -1    0    0    0    0 -0.00000000000E+00 -0.00000000000E+00 -0.45593999997E+02  0.45594000000E+02  0.51100000000E-03 0.  1.
    9900012    2    1    2    0    0  0.14761357212E+02 -0.21302188147E+02 -0.31328696690E+02  0.50528829781E+02  0.29999908602E+02 0.  0.
         12    1    1    2    0    0 -0.14761357212E+02  0.21302188147E+02  0.31328696690E+02  0.40659170219E+02  0.00000000000E+00 0. -1.
         11    1    3    3    0    0 -0.27639287092E+01  0.51375658171E+01 -0.33534992251E+01  0.67290297777E+01  0.51100000000E-03 0. -1.
        -11    1    3    3    0    0  0.11152755434E+02 -0.23788508613E+02 -0.18746061509E+02  0.32275252410E+02  0.51100000000E-03 0.  1.
         12    1    3    3    0    0  0.63725304873E+01 -0.26512453511E+01 -0.92291359563E+01  0.11524547593E+02  0.00000000000E+00 0. -1.
</event>
<event>
 7    1  0.3041451E-011  0.5052888E+02  0.7816164E-02  0.1300439E+00
        -11   -1    0    0    0    0  0.00000000000E+00  0.00000000000E+00  0.45593999997E+02  0.45594000000E+02  0.51100000000E-03 0.  1.
         11   -1    0    0    0    0 -0.00000000000E+00 -0.00000000000E+00 -0.45593999997E+02  0.45594000000E+02  0.51100000000E-03 0. -1.
    9900012    2    1    2    0    0  0.80870317299E+01 -0.22932245092E+02  0.32586435257E+02  0.50528884049E+02  0.30000073556E+02 0.  0.
         12    1    1    2    0    0 -0.80870317299E+01  0.22932245092E+02 -0.32586435257E+02  0.40659115951E+02  0.00000000000E+00 0. -1.
         11    1    3    3    0    0  0.94095872929E+01 -0.14638360012E+02  0.16488571489E+02  0.23972795141E+02  0.51100000000E-03 0. -1.
        -11    1    3    3    0    0 -0.75612825358E+01 -0.78327146598E+01  0.17048931630E+02  0.20228457245E+02  0.51100000000E-03 0.  1.
        -12    1    3    3    0    0  0.62387269728E+01 -0.46117041996E+00 -0.95106786106E+00  0.63276316639E+01  0.00000000000E+00 0.  1.
</event>
<event>
 7    1  0.3041451E-011  0.5052887E+02  0.7816164E-02  0.1300439E+00
        -11   -1    0    0    0    0  0.00000000000E+00  0.00000000000E+00  0.45593999997E+02  0.45594000000E+02  0.51100000000E-03 0.  1.
         11   -1    0    0    0    0 -0.00000000000E+00 -0.00000000000E+00 -0.45593999997E+02  0.45594000000E+02  0.51100000000E-03 0. -1.
    9900012    2    1    2    0    0 -0.27012485213E+02  0.10451943389E+02  0.28535024231E+02  0.50528867129E+02  0.30000022126E+02 0.  0.
         12    1    1    2    0    0  0.27012485213E+02 -0.10451943389E+02 -0.28535024231E+02  0.40659132871E+02  0.00000000000E+00 0. -1.
         11    1    3    3    0    0 -0.62133232022E+01 -0.40649349135E+01  0.17508328906E+02  0.19017640821E+02  0.51100000000E-03 0. -1.
        -11    1    3    3    0    0 -0.22241683092E+02  0.13854576360E+02  0.12773131039E+02  0.29151237190E+02  0.51100000000E-03 0.  1.
        -12    1    3    3    0    0  0.14425210820E+01  0.66230194175E+00 -0.17464357143E+01  0.23599891182E+01  0.00000000000E+00 0.  1.
</event>
<event>
 7    1  0.3041451E-011  0.5052886E+02  0.7816164E-02  0.1300439E+00
        -11   -1    0    0    0    0  0.00000000000E+00  0.00000000000E+00  0.45593999997E+02  0.45594000000E+02  0.51100000000E-03 0. -1.
         11   -1    0    0    0    0 -0.00000000000E+00 -0.00000000000E+00 -0.45593999997E+02  0.45594000000E+02  0.51100000000E-03 0.  1.
    9900012    2    1    2    0    0  0.30565369959E+02 -0.67737366150E+01 -0.25943013001E+02  0.50528864839E+02  0.30000015164E+02 0.  0.
         12    1    1    2    0    0 -0.30565369959E+02  0.67737366150E+01  0.25943013001E+02  0.40659135161E+02  0.00000000000E+00 0. -1.
         11    1    3    3    0    0  0.22745220849E+02 -0.11270859673E+02 -0.21696784394E+02  0.33393529351E+02  0.51100000000E-03 0. -1.
        -11    1    3    3    0    0 -0.29730450415E+01 -0.19744882950E+01  0.65741560027E+00  0.36290214078E+01  0.51100000000E-03 0.  1.
         12    1    3    3    0    0  0.10793194152E+02  0.64716113533E+01 -0.49036442075E+01  0.13506314080E+02  0.00000000000E+00 0. -1.
</event>
<event>
 7    1  0.3041451E-011  0.5052886E+02  0.7816164E-02  0.1300439E+00
        -11   -1    0    0    0    0  0.00000000000E+00  0.00000000000E+00  0.45593999997E+02  0.45594000000E+02  0.51100000000E-03 0. -1.
         11   -1    0    0    0    0 -0.00000000000E+00 -0.00000000000E+00 -0.45593999997E+02  0.45594000000E+02  0.51100000000E-03 0.  1.
    9900012    2    1    2    0    0 -0.23314589389E+02  0.26656004689E+02 -0.19976317888E+02  0.50528856616E+02  0.29999990169E+02 0.  0.
         12    1    1    2    0    0  0.23314589389E+02 -0.26656004689E+02  0.19976317888E+02  0.40659143384E+02  0.00000000000E+00 0. -1.
         11    1    3    3    0    0 -0.16485346987E+02  0.38023905861E+01  0.76252153873E+00  0.16935355881E+02  0.51100000000E-03 0. -1.
        -11    1    3    3    0    0 -0.19678230610E+01  0.20475117453E+02 -0.13698656729E+02  0.24713477270E+02  0.51100000000E-03 0.  1.
        -12    1    3    3    0    0 -0.48614193414E+01  0.23784966500E+01 -0.70401826977E+01  0.88800234652E+01  0.00000000000E+00 0.  1.
</event>
<event>
 7    1  0.3041451E-011  0.5052886E+02  0.7816164E-02  0.1300439E+00
        -11   -1    0    0    0    0  0.00000000000E+00  0.00000000000E+00  0.45593999997E+02  0.45594000000E+02  0.51100000000E-03 0.  1.
         11   -1    0    0    0    0 -0.00000000000E+00 -0.00000000000E+00 -0.45593999997E+02  0.45594000000E+02  0.51100000000E-03 0. -1.
    9900012    2    1    2    0    0  0.29404200690E+02  0.53494378539E+01  0.27567050920E+02  0.50528858346E+02  0.29999995429E+02 0.  0.
         12    1    1    2    0    0 -0.29404200690E+02 -0.53494378539E+01 -0.27567050920E+02  0.40659141654E+02  0.00000000000E+00 0. -1.
         11    1    3    3    0    0  0.10919198667E+02  0.12152778196E+02  0.91841033936E+01  0.18742109615E+02  0.51100000000E-03 0. -1.
        -11    1    3    3    0    0  0.21241973158E+02 -0.37161032672E+01  0.16871828698E+02  0.27380457465E+02  0.51100000000E-03 0.  1.
         12    1    3    3    0    0 -0.27569711355E+01 -0.30872370753E+01  0.15111188289E+01  0.44062912655E+01  0.00000000000E+00 0. -1.
</event>
<event>
 7    1  0.3041451E-011  0.5052888E+02  0.7816164E-02  0.1300439E+00
        -11   -1    0    0    0    0  0.00000000000E+00  0.00000000000E+00  0.45593999997E+02  0.45594000000E+02  0.51100000000E-03 0.  1.
         11   -1    0    0    0    0 -0.00000000000E+00 -0.00000000000E+00 -0.45593999997E+02  0.45594000000E+02  0.51100000000E-03 0. -1.
    9900012    2    1    2    0    0 -0.23721492072E+02  0.31372029049E+02  0.10307814429E+02  0.50528875181E+02  0.30000046600E+02 0.  0.
         12    1    1    2    0    0  0.23721492072E+02 -0.31372029049E+02 -0.10307814429E+02  0.40659124819E+02  0.00000000000E+00 0. -1.
         11    1    3    3    0    0 -0.39664207676E+01  0.12918700295E+02  0.52472431918E+01  0.14496857329E+02  0.51100000000E-03 0. -1.
        -11    1    3    3    0    0 -0.35703294654E+01  0.11387493327E+01 -0.80980691952E+01  0.89231568117E+01  0.51100000000E-03 0.  1.
        -12    1    3    3    0    0 -0.16184741839E+02  0.17314579420E+02  0.13158640433E+02  0.27108861041E+02  0.00000000000E+00 0.  1.
</event>
<event>
 7    1  0.3041451E-011  0.5052889E+02  0.7816164E-02  0.1300439E+00
        -11   -1    0    0    0    0  0.00000000000E+00  0.00000000000E+00  0.45593999997E+02  0.45594000000E+02  0.51100000000E-03 0.  1.
         11   -1    0    0    0    0 -0.00000000000E+00 -0.00000000000E+00 -0.45593999997E+02  0.45594000000E+02  0.51100000000E-03 0. -1.
    9900012    2    1    2    0    0  0.68614444993E+01 -0.30712902038E+02  0.25744926591E+02  0.50528892566E+02  0.30000099442E+02 0.  0.
         12    1    1    2    0    0 -0.68614444993E+01  0.30712902038E+02 -0.25744926591E+02  0.40659107434E+02  0.00000000000E+00 0. -1.
         11    1    3    3    0    0  0.24444367531E+01 -0.23838689015E+01 -0.30340369090E+01  0.45676560954E+01  0.51100000000E-03 0. -1.
        -11    1    3    3    0    0  0.11563089579E+02 -0.18670659168E+02  0.11156002737E+02  0.24632396386E+02  0.51100000000E-03 0.  1.
         12    1    3    3    0    0 -0.71460818332E+01 -0.96583739681E+01  0.17622960763E+02  0.21328840084E+02  0.00000000000E+00 0. -1.
</event>
<event>
 7    1  0.3041451E-011  0.5052886E+02  0.7816164E-02  0.1300439E+00
        -11   -1    0    0    0    0  0.00000000000E+00  0.00000000000E+00  0.45593999997E+02  0.45594000000E+02  0.51100000000E-03 0. -1.
         11   -1    0    0    0    0 -0.00000000000E+00 -0.00000000000E+00 -0.45593999997E+02  0.45594000000E+02  0.51100000000E-03 0.  1.
    9900012    2    1    2    0    0  0.22275821483E+02 -0.29820838513E+02  0.16360663427E+02  0.50528856623E+02  0.29999990192E+02 0.  0.
         12    1    1    2    0    0 -0.22275821483E+02  0.29820838513E+02 -0.16360663427E+02  0.40659143377E+02  0.00000000000E+00 0. -1.
         11    1    3    3    0    0  0.15984790306E+02 -0.70925199144E+01  0.12822259121E+02  0.21684734010E+02  0.51100000000E-03 0.  1.
        -11    1    3    3    0    0  0.32211774169E+01 -0.32480231276E-01 -0.36230555876E+01  0.48480481607E+01  0.51100000000E-03 0. -1.
         12    1    3    3    0    0  0.30698537596E+01 -0.22695838367E+02  0.71614598938E+01  0.23996074452E+02  0.00000000000E+00 0. -1.
</event>
<event>
 7    1  0.3041451E-011  0.5052886E+02  0.7816164E-02  0.1300439E+00
        -11   -1    0    0    0    0  0.00000000000E+00  0.00000000000E+00  0.45593999997E+02  0.45594000000E+02  0.51100000000E-03 0. -1.
         11   -1    0    0    0    0 -0.00000000000E+00 -0.00000000000E+00 -0.45593999997E+02  0.45594000000E+02  0.51100000000E-03 0.  1.
    9900012    2    1    2    0    0 -0.36932906359E+02 -0.16304553049E+02  0.48257531288E+01  0.50528856926E+02  0.29999991111E+02 0.  0.
         12    1    1    2    0    0  0.36932906359E+02  0.16304553049E+02 -0.48257531288E+01  0.40659143074E+02  0.00000000000E+00 0. -1.
         11    1    3    3    0    0 -0.93674925056E+01 -0.17473507610E+02  0.20971438797E+01  0.19936684698E+02  0.51100000000E-03 0. -1.
        -11    1    3    3    0    0 -0.11602841137E+02  0.38058640065E+01 -0.43087928012E+01  0.12948985248E+02  0.51100000000E-03 0.  1.
         12    1    3    3    0    0 -0.15962572717E+02 -0.26369094454E+01  0.70374020502E+01  0.17643186979E+02  0.00000000000E+00 0. -1.
</event>
<event>
 7    1  0.3041451E-011  0.5052887E+02  0.7816164E-02  0.1300439E+00
        -11   -1    0    0    0    0  0.00000000000E+00  0.00000000000E+00  0.45593999997E+02  0.45594000000E+02  0.51100000000E-03 0. -1.
         11   -1    0    0    0    0 -0.00000000000E+00 -0.00000000000E+00 -0.45593999997E+02  0.45594000000E+02  0.51100000000E-03 0.  1.
    9900012    2    1    2    0    0  0.36936695131E+02 -0.16270523595E+02  0.49107588846E+01  0.50528868946E+02  0.30000027649E+02 0.  0.
         12    1    1    2    0    0 -0.36936695131E+02  0.16270523595E+02 -0.49107588846E+01  0.40659131054E+02  0.00000000000E+00 0. -1.
         11    1    3    3    0    0  0.25522030796E+01 -0.41328701957E+01 -0.26985571945E+01  0.55566687689E+01  0.51100000000E-03 0. -1.
        -11    1    3    3    0    0  0.13554057215E+02 -0.50643277591E+01  0.15867961464E+02  0.21474451889E+02  0.51100000000E-03 0.  1.
        -12    1    3    3    0    0  0.20830434836E+02 -0.70733256402E+01 -0.82586453844E+01  0.23497748289E+02  0.00000000000E+00 0.  1.
</event>
<event>
 7    1  0.3041451E-011  0.5052886E+02  0.7816164E-02  0.1300439E+00
        -11   -1    0    0    0    0  0.00000000000E+00  0.00000000000E+00  0.45593999997E+02  0.45594000000E+02  0.51100000000E-03 0.  1.
         11   -1    0    0    0    0 -0.00000000000E+00 -0.00000000000E+00 -0.45593999997E+02  0.45594000000E+02  0.51100000000E-03 0. -1.
    9900012    2    1    2    0    0  0.38433331178E+02  0.12196125943E+02  0.52248887170E+01  0.50528857171E+02  0.29999991858E+02 0.  0.
         12    1    1    2    0    0 -0.38433331178E+02 -0.12196125943E+02 -0.52248887170E+01  0.40659142829E+02  0.00000000000E+00 0. -1.
         11    1    3    3    0    0  0.22723965843E+02  0.20909770658E+01  0.11318402289E+02  0.25472672403E+02  0.51100000000E-03 0. -1.
        -11    1    3    3    0    0  0.19425425513E+01  0.99331288145E+01 -0.48759252939E+01  0.11234552387E+02  0.51100000000E-03 0.  1.
         12    1    3    3    0    0  0.13766822784E+02  0.17202006279E+00 -0.12175882783E+01  0.13821632381E+02  0.00000000000E+00 0. -1.
</event>
<event>
 7    1  0.3041451E-011  0.5052886E+02  0.7816164E-02  0.1300439E+00
        -11   -1    0    0    0    0  0.00000000000E+00  0.00000000000E+00  0.45593999997E+02  0.45594000000E+02  0.51100000000E-03 0.  1.
         11   -1    0    0    0    0 -0.00000000000E+00 -0.00000000000E+00 -0.45593999997E+02  0.45594000000E+02  0.51100000000E-03 0. -1.
    9900012    2    1    2    0    0 -0.24951282440E+02  0.25012881984E+02  0.20123496248E+02  0.50528857586E+02  0.29999993119E+02 0.  0.
         12    1    1    2    0    0  0.24951282440E+02 -0.25012881984E+02 -0.20123496248E+02  0.40659142414E+02  0.00000000000E+00 0. -1.
         11    1    3    3    0    0  0.82151883138E+00  0.13290350258E+02  0.98799918108E+01  0.16580788329E+02  0.51100000000E-03 0. -1.
        -11    1    3    3    0    0 -0.19049568169E+02  0.13651570223E+02  0.25882588019E+01  0.23578602606E+02  0.51100000000E-03 0.  1.
         12    1    3    3    0    0 -0.67232331031E+01 -0.19290384968E+01  0.76552456356E+01  0.10369466651E+02  0.00000000000E+00 0. -1.
</event>
<event>
 7    1  0.3041451E-011  0.5052886E+02  0.7816164E-02  0.1300439E+00
        -11   -1    0    0    0    0  0.00000000000E+00  0.00000000000E+00  0.45593999997E+02  0.45594000000E+02  0.51100000000E-03 0.  1.
         11   -1    0    0    0    0 -0.00000000000E+00 -0.00000000000E+00 -0.45593999997E+02  0.45594000000E+02  0.51100000000E-03 0. -1.
    9900012    2    1    2    0    0  0.27914168122E+02 -0.49129977042E+01  0.29151793740E+02  0.50528863184E+02  0.30000010135E+02 0.  0.
         12    1    1    2    0    0 -0.27914168122E+02  0.49129977042E+01 -0.29151793740E+02  0.40659136816E+02  0.00000000000E+00 0. -1.
         11    1    3    3    0    0 -0.19713028907E+01 -0.77531899402E+01  0.12739849201E+02  0.15043328995E+02  0.51100000000E-03 0.  1.
        -11    1    3    3    0    0  0.29876811018E+02  0.25302945122E+01  0.17250160854E+02  0.34591823841E+02  0.51100000000E-03 0. -1.
         12    1    3    3    0    0  0.86599947877E-02  0.30989772369E+00 -0.83821631535E+00  0.89371034792E+00  0.00000000000E+00 0. -1.
</event>
<event>
 7    1  0.3041451E-011  0.5052886E+02  0.7816164E-02  0.1300439E+00
        -11   -1    0    0    0    0  0.00000000000E+00  0.00000000000E+00  0.45593999997E+02  0.45594000000E+02  0.51100000000E-03 0. -1.
         11   -1    0    0    0    0 -0.00000000000E+00 -0.00000000000E+00 -0.45593999997E+02  0.45594000000E+02  0.51100000000E-03 0.  1.
    9900012    2    1    2    0    0  0.11590783262E+01 -0.22564577701E+02 -0.33803287433E+02  0.50528857478E+02  0.29999992790E+02 0.  0.
         12    1    1    2    0    0 -0.11590783262E+01  0.22564577701E+02  0.33803287433E+02  0.40659142522E+02  0.00000000000E+00 0. -1.
         11    1    3    3    0    0  0.11094459922E+02 -0.12241007637E+02 -0.12992905465E+02  0.21017728269E+02  0.51100000000E-03 0. -1.
        -11    1    3    3    0    0 -0.76517341824E+01  0.16557279065E+01 -0.41392168765E+01  0.88557093172E+01  0.51100000000E-03 0.  1.
        -12    1    3    3    0    0 -0.22836474135E+01 -0.11979297970E+02 -0.16671165092E+02  0.20655419891E+02  0.00000000000E+00 0.  1.
</event>
<event>
 7    1  0.3041451E-011  0.5052887E+02  0.7816164E-02  0.1300439E+00
        -11   -1    0    0    0    0  0.00000000000E+00  0.00000000000E+00  0.45593999997E+02  0.45594000000E+02  0.51100000000E-03 0.  1.
         11   -1    0    0    0    0 -0.00000000000E+00 -0.00000000000E+00 -0.45593999997E+02  0.45594000000E+02  0.51100000000E-03 0. -1.
    9900012    2    1    2    0    0 -0.58564332196E+01 -0.19018351777E+02  0.35456587861E+02  0.50528866498E+02  0.30000020209E+02 0.  0.
         12    1    1    2    0    0  0.58564332196E+01  0.19018351777E+02 -0.35456587861E+02  0.40659133502E+02  0.00000000000E+00 0. -1.
         11    1    3    3    0    0  0.10353965973E+02 -0.15395529997E+02  0.20214128022E+02  0.27437892179E+02  0.51100000000E-03 0. -1.
        -11    1    3    3    0    0 -0.82500362607E+01 -0.30507810430E+01  0.50394957424E+01  0.10137400104E+02  0.51100000000E-03 0.  1.
         12    1    3    3    0    0 -0.79603629317E+01 -0.57204073745E+00  0.10202964096E+02  0.12953574215E+02  0.00000000000E+00 0. -1.
</event>
<event>
 7    1  0.3041451E-011  0.5052884E+02  0.7816164E-02  0.1300439E+00
        -11   -1    0    0    0    0  0.00000000000E+00  0.00000000000E+00  0.45593999997E+02  0.45594000000E+02  0.51100000000E-03 0. -1.
         11   -1    0    0    0    0 -0.00000000000E+00 -0.00000000000E+00 -0.45593999997E+02  0.45594000000E+02  0.51100000000E-03 0.  1.
    9900012    2    1    2    0    0 -0.21548550297E+02 -0.85290502407E+01 -0.33407821589E+02  0.50528840377E+02  0.29999940810E+02 0.  0.
         12    1    1    2    0    0  0.21548550297E+02  0.85290502407E+01  0.33407821589E+02  0.40659159623E+02  0.00000000000E+00 0. -1.
         11    1    3    3    0    0  0.22943095548E+01 -0.11523212012E+01 -0.39360764509E+01  0.46994040657E+01  0.51100000000E-03 0. -1.
        -11    1    3    3    0    0 -0.25090987625E+02 -0.12174232271E+02 -0.17634571310E+02  0.32996177005E+02  0.51100000000E-03 0.  1.
        -12    1    3    3    0    0  0.12481277724E+01  0.47975032318E+01 -0.11837173828E+02  0.12833259306E+02  0.00000000000E+00 0.  1.
</event>
<event>
 7    1  0.3041451E-011  0.5052886E+02  0.7816164E-02  0.1300439E+00
        -11   -1    0    0    0    0  0.00000000000E+00  0.00000000000E+00  0.45593999997E+02  0.45594000000E+02  0.51100000000E-03 0. -1.
         11   -1    0    0    0    0 -0.00000000000E+00 -0.00000000000E+00 -0.45593999997E+02  0.45594000000E+02  0.51100000000E-03 0.  1.
    9900012    2    1    2    0    0  0.59562511417E+01  0.70453612082E+01 -0.39598631832E+02  0.50528859758E+02  0.29999999720E+02 0.  0.
         12    1    1    2    0    0 -0.59562511417E+01 -0.70453612082E+01  0.39598631832E+02  0.40659140242E+02  0.00000000000E+00 0. -1.
         11    1    3    3    0    0 -0.36544516860E+01  0.17094366222E+01 -0.11966134763E+01  0.42082151518E+01  0.51100000000E-03 0. -1.
        -11    1    3    3    0    0  0.16884827168E+02  0.56609458417E+01 -0.21504684811E+02  0.27921231446E+02  0.51100000000E-03 0.  1.
        -12    1    3    3    0    0 -0.72741243407E+01 -0.32502125573E+00 -0.16897333545E+02  0.18399413161E+02  0.00000000000E+00 0.  1.
</event>
<event>
 7    1  0.3041451E-011  0.5052882E+02  0.7816164E-02  0.1300439E+00
        -11   -1    0    0    0    0  0.00000000000E+00  0.00000000000E+00  0.45593999997E+02  0.45594000000E+02  0.51100000000E-03 0.  1.
         11   -1    0    0    0    0 -0.00000000000E+00 -0.00000000000E+00 -0.45593999997E+02  0.45594000000E+02  0.51100000000E-03 0. -1.
    9900012    2    1    2    0    0 -0.37533923088E+02 -0.13671452115E+02 -0.75805754117E+01  0.50528817656E+02  0.29999871746E+02 0.  0.
         12    1    1    2    0    0  0.37533923088E+02  0.13671452115E+02  0.75805754117E+01  0.40659182344E+02  0.00000000000E+00 0. -1.
         11    1    3    3    0    0 -0.76972064471E+01 -0.10757049935E+02  0.51720535232E+01  0.14202508521E+02  0.51100000000E-03 0.  1.
        -11    1    3    3    0    0 -0.17278029529E+02  0.58189916344E+01 -0.99661792041E+01  0.20777769280E+02  0.51100000000E-03 0. -1.
        -12    1    3    3    0    0 -0.12558687112E+02 -0.87333938148E+01 -0.27864497308E+01  0.15548539854E+02  0.00000000000E+00 0.  1.
</event>
<event>
 7    1  0.3041451E-011  0.5052886E+02  0.7816164E-02  0.1300439E+00
        -11   -1    0    0    0    0  0.00000000000E+00  0.00000000000E+00  0.45593999997E+02  0.45594000000E+02  0.51100000000E-03 0. -1.
         11   -1    0    0    0    0 -0.00000000000E+00 -0.00000000000E+00 -0.45593999997E+02  0.45594000000E+02  0.51100000000E-03 0.  1.
    9900012    2    1    2    0    0  0.11689533793E+02  0.19373100991E+02 -0.33781704719E+02  0.50528858149E+02  0.29999994831E+02 0.  0.
         12    1    1    2    0    0 -0.11689533793E+02 -0.19373100991E+02  0.33781704719E+02  0.40659141851E+02  0.00000000000E+00 0. -1.
         11    1    3    3    0    0  0.10501155728E+01  0.17946501055E+02 -0.64496666377E+01  0.19099158170E+02  0.51100000000E-03 0. -1.
        -11    1    3    3    0    0  0.47259508775E+01 -0.18019394755E+01 -0.22692596262E+02  0.23249419841E+02  0.51100000000E-03 0.  1.
         12    1    3    3    0    0  0.59134673422E+01  0.32285394117E+01 -0.46394418194E+01  0.81802801380E+01  0.00000000000E+00 0. -1.
</event>
<event>
 7    1  0.3041451E-011  0.5052885E+02  0.7816164E-02  0.1300439E+00
        -11   -1    0    0    0    0  0.00000000000E+00  0.00000000000E+00  0.45593999997E+02  0.45594000000E+02  0.51100000000E-03 0. -1.
         11   -1    0    0    0    0 -0.00000000000E+00 -0.00000000000E+00 -0.45593999997E+02  0.45594000000E+02  0.51100000000E-03 0.  1.
    9900012    2    1    2    0    0  0.66448168779E+01 -0.34624961273E+02 -0.20251533661E+02  0.50528854041E+02  0.29999982342E+02 0.  0.
         12    1    1    2    0    0 -0.66448168779E+01  0.34624961273E+02  0.20251533661E+02  0.40659145959E+02  0.00000000000E+00 0. -1.
         11    1    3    3    0    0  0.13649713281E+02 -0.11332687945E+02  0.13277184065E+01  0.17790652747E+02  0.51100000000E-03 0. -1.
        -11    1    3    3    0    0 -0.19944303154E+01 -0.11637808942E+02 -0.12061386384E+02  0.16878785235E+02  0.51100000000E-03 0.  1.
         12    1    3    3    0    0 -0.50104660879E+01 -0.11654464386E+02 -0.95178656838E+01  0.15859416059E+02  0.00000000000E+00 0. -1.
</event>
<event>
 7    1  0.3041451E-011  0.5052884E+02  0.7816164E-02  0.1300439E+00
        -11   -1    0    0    0    0  0.00000000000E+00  0.00000000000E+00  0.45593999997E+02  0.45594000000E+02  0.51100000000E-03 0.  1.
         11   -1    0    0    0    0 -0.00000000000E+00 -0.00000000000E+00 -0.45593999997E+02  0.45594000000E+02  0.51100000000E-03 0. -1.
    9900012    2    1    2    0    0 -0.50797393999E+01 -0.30682250181E+02  0.26190890360E+02  0.50528844003E+02  0.29999951832E+02 0.  0.
         12    1    1    2    0    0  0.50797393999E+01  0.30682250181E+02 -0.26190890360E+02  0.40659155997E+02  0.00000000000E+00 0. -1.
         11    1    3    3    0    0 -0.50377401404E+01 -0.10345189052E+01  0.35106133466E+00  0.51548326267E+01  0.51100000000E-03 0. -1.
        -11    1    3    3    0    0 -0.46917559895E+00 -0.32983320881E+02  0.19832748191E+02  0.38489706197E+02  0.51100000000E-03 0.  1.
        -12    1    3    3    0    0  0.42717633946E+00  0.33355896061E+01  0.60070808346E+01  0.68843051791E+01  0.00000000000E+00 0.  1.
</event>
<event>
 7    1  0.3041451E-011  0.5052886E+02  0.7816164E-02  0.1300439E+00
        -11   -1    0    0    0    0  0.00000000000E+00  0.00000000000E+00  0.45593999997E+02  0.45594000000E+02  0.51100000000E-03 0.  1.
         11   -1    0    0    0    0 -0.00000000000E+00 -0.00000000000E+00 -0.45593999997E+02  0.45594000000E+02  0.51100000000E-03 0. -1.
    9900012    2    1    2    0    0  0.30847640288E+02 -0.26396829677E+02  0.21899464909E+01  0.50528863339E+02  0.30000010606E+02 0.  0.
         12    1    1    2    0    0 -0.30847640288E+02  0.26396829677E+02 -0.21899464909E+01  0.40659136661E+02  0.00000000000E+00 0. -1.
         11    1    3    3    0    0  0.23478737769E+02 -0.15925988640E+02 -0.92751043406E+01  0.29848212713E+02  0.51100000000E-03 0. -1.
        -11    1    3    3    0    0  0.56735630922E+01 -0.12935846077E+02  0.85946513964E+01  0.16534614141E+02  0.51100000000E-03 0.  1.
        -12    1    3    3    0    0  0.16953394274E+01  0.24650050400E+01  0.28703994351E+01  0.41460364855E+01  0.00000000000E+00 0.  1.
</event>
<event>
 7    1  0.3041451E-011  0.5052894E+02  0.7816164E-02  0.1300439E+00
        -11   -1    0    0    0    0  0.00000000000E+00  0.00000000000E+00  0.45593999997E+02  0.45594000000E+02  0.51100000000E-03 0.  1.
         11   -1    0    0    0    0 -0.00000000000E+00 -0.00000000000E+00 -0.45593999997E+02  0.45594000000E+02  0.51100000000E-03 0. -1.
    9900012    2    1    2    0    0  0.11189282949E+02 -0.31467886738E+01  0.38962253825E+02  0.50528935144E+02  0.30000228862E+02 0.  0.
         12    1    1    2    0    0 -0.11189282949E+02  0.31467886738E+01 -0.38962253825E+02  0.40659064856E+02  0.00000000000E+00 0. -1.
         11    1    3    3    0    0  0.23554406604E+01  0.29895771835E+01  0.45009305340E+01  0.58944082293E+01  0.51100000000E-03 0.  1.
        -11    1    3    3    0    0 -0.52484854138E+01 -0.88890587423E+01  0.26005666318E+02  0.27979575504E+02  0.51100000000E-03 0. -1.
        -12    1    3    3    0    0  0.14082327702E+02  0.27526928850E+01  0.84556569728E+01  0.16654951410E+02  0.00000000000E+00 0.  1.
</event>
<event>
 7    1  0.3041451E-011  0.5052885E+02  0.7816164E-02  0.1300439E+00
        -11   -1    0    0    0    0  0.00000000000E+00  0.00000000000E+00  0.45593999997E+02  0.45594000000E+02  0.51100000000E-03 0.  1.
         11   -1    0    0    0    0 -0.00000000000E+00 -0.00000000000E+00 -0.45593999997E+02  0.45594000000E+02  0.51100000000E-03 0. -1.
    9900012    2    1    2    0    0 -0.14378936037E+02 -0.34471302845E+02 -0.16066805381E+02  0.50528846584E+02  0.29999959676E+02 0.  0.
         12    1    1    2    0    0  0.14378936037E+02  0.34471302845E+02  0.16066805381E+02  0.40659153416E+02  0.00000000000E+00 0. -1.
         11    1    3    3    0    0  0.65069550130E+00 -0.46638308685E+01  0.63917128741E+01  0.79390627111E+01  0.51100000000E-03 0. -1.
        -11    1    3    3    0    0 -0.13115245268E+02 -0.15602835695E+02 -0.18955923232E+02  0.27834963015E+02  0.51100000000E-03 0.  1.
         12    1    3    3    0    0 -0.19143862706E+01 -0.14204636281E+02 -0.35025950224E+01  0.14754820858E+02  0.00000000000E+00 0. -1.
</event>
<event>
 7    1  0.3041451E-011  0.5052886E+02  0.7816164E-02  0.1300439E+00
        -11   -1    0    0    0    0  0.00000000000E+00  0.00000000000E+00  0.45593999997E+02  0.45594000000E+02  0.51100000000E-03 0.  1.
         11   -1    0    0    0    0 -0.00000000000E+00 -0.00000000000E+00 -0.45593999997E+02  0.45594000000E+02  0.51100000000E-03 0. -1.
    9900012    2    1    2    0    0 -0.14636904229E+02 -0.34496043891E+02 -0.15778127751E+02  0.50528864189E+02  0.30000013190E+02 0.  0.
         12    1    1    2    0    0  0.14636904229E+02  0.34496043891E+02  0.15778127751E+02  0.40659135811E+02  0.00000000000E+00 0. -1.
         11    1    3    3    0    0 -0.78916414946E+01 -0.13725268696E+01 -0.13891463703E+02  0.16035417037E+02  0.51100000000E-03 0. -1.
        -11    1    3    3    0    0 -0.37246872465E+01 -0.28033434939E+02  0.45430877750E-02  0.28279794739E+02  0.51100000000E-03 0.  1.
         12    1    3    3    0    0 -0.30205754879E+01 -0.50900820828E+01 -0.18912071355E+01  0.62136524136E+01  0.00000000000E+00 0. -1.
</event>
<event>
 7    1  0.3041451E-011  0.5052885E+02  0.7816164E-02  0.1300439E+00
        -11   -1    0    0    0    0  0.00000000000E+00  0.00000000000E+00  0.45593999997E+02  0.45594000000E+02  0.51100000000E-03 0.  1.
         11   -1    0    0    0    0 -0.00000000000E+00 -0.00000000000E+00 -0.45593999997E+02  0.45594000000E+02  0.51100000000E-03 0. -1.
    9900012    2    1    2    0    0 -0.72989851849E+01 -0.12556413470E+01  0.39978929951E+02  0.50528847771E+02  0.29999963284E+02 0.  0.
         12    1    1    2    0    0  0.72989851849E+01  0.12556413470E+01 -0.39978929951E+02  0.40659152229E+02  0.00000000000E+00 0. -1.
         11    1    3    3    0    0 -0.10244613438E+02 -0.10749654353E+02  0.14962637431E+02  0.21080505031E+02  0.51100000000E-03 0. -1.
        -11    1    3    3    0    0  0.19149495773E+01  0.53666006577E+01  0.19948325013E+01  0.60371178117E+01  0.51100000000E-03 0.  1.
         12    1    3    3    0    0  0.10306786762E+01  0.41274123479E+01  0.23021460020E+02  0.23411224929E+02  0.00000000000E+00 0. -1.
</event>
<event>
 7    1  0.3041451E-011  0.5052884E+02  0.7816164E-02  0.1300439E+00
        -11   -1    0    0    0    0  0.00000000000E+00  0.00000000000E+00  0.45593999997E+02  0.45594000000E+02  0.51100000000E-03 0.  1.
         11   -1    0    0    0    0 -0.00000000000E+00 -0.00000000000E+00 -0.45593999997E+02  0.45594000000E+02  0.51100000000E-03 0. -1.
    9900012    2    1    2    0    0  0.75457622956E+01  0.17511678040E+02  0.35910584342E+02  0.50528837881E+02  0.29999933223E+02 0.  0.
         12    1    1    2    0    0 -0.75457622956E+01 -0.17511678040E+02 -0.35910584342E+02  0.40659162119E+02  0.00000000000E+00 0. -1.
         11    1    3    3    0    0 -0.99128778978E+00 -0.37029759135E+00 -0.20749393045E+01  0.23291941025E+01  0.51100000000E-03 0. -1.
        -11    1    3    3    0    0  0.51650849013E+01  0.18515430626E+02  0.39886852479E+02  0.44277085205E+02  0.51100000000E-03 0.  1.
        -12    1    3    3    0    0  0.33719651841E+01 -0.63345499454E+00 -0.19013288322E+01  0.39225585733E+01  0.00000000000E+00 0.  1.
</event>
<event>
 7    1  0.3041451E-011  0.5052885E+02  0.7816164E-02  0.1300439E+00
        -11   -1    0    0    0    0  0.00000000000E+00  0.00000000000E+00  0.45593999997E+02  0.45594000000E+02  0.51100000000E-03 0.  1.
         11   -1    0    0    0    0 -0.00000000000E+00 -0.00000000000E+00 -0.45593999997E+02  0.45594000000E+02  0.51100000000E-03 0. -1.
    9900012    2    1    2    0    0  0.23980418115E+02 -0.27686998503E+02  0.17650376841E+02  0.50528854145E+02  0.29999982658E+02 0.  0.
         12    1    1    2    0    0 -0.23980418115E+02  0.27686998503E+02 -0.17650376841E+02  0.40659145855E+02  0.00000000000E+00 0. -1.
         11    1    3    3    0    0  0.79032061979E+01  0.36950489736E+01  0.97181066123E+01  0.13059695690E+02  0.51100000000E-03 0. -1.
        -11    1    3    3    0    0  0.86541439456E+01 -0.95763939162E+01 -0.55871683880E+00  0.12919508220E+02  0.51100000000E-03 0.  1.
         12    1    3    3    0    0  0.74230679710E+01 -0.21805653560E+02  0.84909870676E+01  0.24549650235E+02  0.00000000000E+00 0. -1.
</event>
<event>
 7    1  0.3041451E-011  0.5052886E+02  0.7816164E-02  0.1300439E+00
        -11   -1    0    0    0    0  0.00000000000E+00  0.00000000000E+00  0.45593999997E+02  0.45594000000E+02  0.51100000000E-03 0.  1.
         11   -1    0    0    0    0 -0.00000000000E+00 -0.00000000000E+00 -0.45593999997E+02  0.45594000000E+02  0.51100000000E-03 0. -1.
    9900012    2    1    2    0    0  0.84878171970E+01 -0.33299461723E+02  0.21731738930E+02  0.50528859961E+02  0.30000000336E+02 0.  0.
         12    1    1    2    0    0 -0.84878171970E+01  0.33299461723E+02 -0.21731738930E+02  0.40659140039E+02  0.00000000000E+00 0. -1.
         11    1    3    3    0    0  0.69499338508E+01 -0.68100462568E+01 -0.48644326580E+01  0.10878465696E+02  0.51100000000E-03 0. -1.
        -11    1    3    3    0    0  0.32454671129E+01 -0.27123921505E+02  0.26053793677E+02  0.37749706487E+02  0.51100000000E-03 0.  1.
        -12    1    3    3    0    0 -0.17075837667E+01  0.63450603825E+00  0.54237791036E+00  0.19006877783E+01  0.00000000000E+00 0.  1.
</event>
<event>
 7    1  0.3041451E-011  0.5052877E+02  0.7816164E-02  0.1300439E+00
        -11   -1    0    0    0    0  0.00000000000E+00  0.00000000000E+00  0.45593999997E+02  0.45594000000E+02  0.51100000000E-03 0. -1.
         11   -1    0    0    0    0 -0.00000000000E+00 -0.00000000000E+00 -0.45593999997E+02  0.45594000000E+02  0.51100000000E-03 0.  1.
    9900012    2    1    2    0    0  0.17663099638E+02  0.21824827570E+02 -0.29408585467E+02  0.50528768742E+02  0.29999723068E+02 0.  0.
         12    1    1    2    0    0 -0.17663099638E+02 -0.21824827570E+02  0.29408585467E+02  0.40659231258E+02  0.00000000000E+00 0. -1.
         11    1    3    3    0    0 -0.61276941170E+01 -0.16981555427E+01 -0.99461731597E+01  0.11805029785E+02  0.51100000000E-03 0. -1.
        -11    1    3    3    0    0  0.60898348931E+01  0.54083354178E+01 -0.44324152819E+01  0.92726741833E+01  0.51100000000E-03 0.  1.
         12    1    3    3    0    0  0.17700958862E+02  0.18114647695E+02 -0.15029997025E+02  0.29451064774E+02  0.00000000000E+00 0. -1.
</event>
<event>
 7    1  0.3041451E-011  0.5052886E+02  0.7816164E-02  0.1300439E+00
        -11   -1    0    0    0    0  0.00000000000E+00  0.00000000000E+00  0.45593999997E+02  0.45594000000E+02  0.51100000000E-03 0. -1.
         11   -1    0    0    0    0 -0.00000000000E+00 -0.00000000000E+00 -0.45593999997E+02  0.45594000000E+02  0.51100000000E-03 0.  1.
    9900012    2    1    2    0    0 -0.35080312197E+02  0.84161814124E+01 -0.18753817083E+02  0.50528855044E+02  0.29999985392E+02 0.  0.
         12    1    1    2    0    0  0.35080312197E+02 -0.84161814124E+01  0.18753817083E+02  0.40659144956E+02  0.00000000000E+00 0. -1.
         11    1    3    3    0    0  0.10203507396E+01  0.30807855731E+01  0.34617136380E+01  0.47450834505E+01  0.51100000000E-03 0. -1.
        -11    1    3    3    0    0 -0.24765657371E+02  0.11081469190E+02 -0.17183252314E+02  0.32115430945E+02  0.51100000000E-03 0.  1.
        -12    1    3    3    0    0 -0.11335005565E+02 -0.57460733512E+01 -0.50322784067E+01  0.13668340648E+02  0.00000000000E+00 0.  1.
</event>
<event>
 7    1  0.3041451E-011  0.5052886E+02  0.7816164E-02  0.1300439E+00
        -11   -1    0    0    0    0  0.00000000000E+00  0.00000000000E+00  0.45593999997E+02  0.45594000000E+02  0.51100000000E-03 0.  1.
         11   -1    0    0    0    0 -0.00000000000E+00 -0.00000000000E+00 -0.45593999997E+02  0.45594000000E+02  0.51100000000E-03 0. -1.
    9900012    2    1    2    0    0 -0.38088792732E+02  0.60870095673E+01  0.12859156448E+02  0.50528859308E+02  0.29999998352E+02 0.  0.
         12    1    1    2    0    0  0.38088792732E+02 -0.60870095673E+01 -0.12859156448E+02  0.40659140692E+02  0.00000000000E+00 0. -1.
         11    1    3    3    0    0 -0.92546861077E+00  0.88153564355E+01 -0.26766268668E+01  0.92591216041E+01  0.51100000000E-03 0. -1.
        -11    1    3    3    0    0 -0.28725702485E+02 -0.39802210903E+01  0.15178742821E+02  0.32732283408E+02  0.51100000000E-03 0.  1.
        -12    1    3    3    0    0 -0.84376216363E+01  0.12518742221E+01  0.35704049415E+00  0.85374542962E+01  0.00000000000E+00 0.  1.
</event>
<event>
 7    1  0.3041451E-011  0.5052885E+02  0.7816164E-02  0.1300439E+00
        -11   -1    0    0    0    0  0.00000000000E+00  0.00000000000E+00  0.45593999997E+02  0.45594000000E+02  0.51100000000E-03 0.  1.
         11   -1    0    0    0    0 -0.00000000000E+00 -0.00000000000E+00 -0.45593999997E+02  0.45594000000E+02  0.51100000000E-03 0. -1.
    9900012    2    1    2    0    0 -0.16236976352E+02  0.33327523618E+02  0.16697396839E+02  0.50528852287E+02  0.29999977011E+02 0.  0.
         12    1    1    2    0    0  0.16236976352E+02 -0.33327523618E+02 -0.16697396839E+02  0.40659147713E+02  0.00000000000E+00 0. -1.
         11    1    3    3    0    0  0.13990361164E+01  0.25047237874E+02  0.45885450757E+01  0.25502473867E+02  0.51100000000E-03 0. -1.
        -11    1    3    3    0    0 -0.17578707965E+02  0.75724485982E+01  0.78151884143E+01  0.20674383224E+02  0.51100000000E-03 0.  1.
        -12    1    3    3    0    0 -0.57304503824E-01  0.70783714579E+00  0.42936633490E+01  0.43519951960E+01  0.00000000000E+00 0.  1.
</event>
<event>
 7    1  0.3041451E-011  0.5052889E+02  0.7816164E-02  0.1300439E+00
        -11   -1    0    0    0    0  0.00000000000E+00  0.00000000000E+00  0.45593999997E+02  0.45594000000E+02  0.51100000000E-03 0.  1.
         11   -1    0    0    0    0 -0.00000000000E+00 -0.00000000000E+00 -0.45593999997E+02  0.45594000000E+02  0.51100000000E-03 0. -1.
    9900012    2    1    2    0    0  0.40110590036E+02  0.66092072252E+01 -0.78887557206E+00  0.50528888133E+02  0.30000085967E+02 0.  0.
         12    1    1    2    0    0 -0.40110590036E+02 -0.66092072252E+01  0.78887557206E+00  0.40659111867E+02  0.00000000000E+00 0. -1.
         11    1    3    3    0    0  0.27938405325E+02 -0.40000472045E+01 -0.10719553023E+02  0.30190456887E+02  0.51100000000E-03 0. -1.
        -11    1    3    3    0    0  0.12411045947E+01  0.27628497530E+01  0.53071106381E+01  0.61105730466E+01  0.51100000000E-03 0.  1.
         12    1    3    3    0    0  0.10931080116E+02  0.78464046767E+01  0.46235668133E+01  0.14227858199E+02  0.00000000000E+00 0. -1.
</event>
<event>
 7    1  0.3041451E-011  0.5052886E+02  0.7816164E-02  0.1300439E+00
        -11   -1    0    0    0    0  0.00000000000E+00  0.00000000000E+00  0.45593999997E+02  0.45594000000E+02  0.51100000000E-03 0. -1.
         11   -1    0    0    0    0 -0.00000000000E+00 -0.00000000000E+00 -0.45593999997E+02  0.45594000000E+02  0.51100000000E-03 0.  1.
    9900012    2    1    2    0    0 -0.35076323010E+02  0.20406010108E+02  0.25322050457E+01  0.50528859000E+02  0.29999997416E+02 0.  0.
         12    1    1    2    0    0  0.35076323010E+02 -0.20406010108E+02 -0.25322050457E+01  0.40659141000E+02  0.00000000000E+00 0. -1.
         11    1    3    3    0    0 -0.12536977951E+02  0.19333203851E+01  0.88264500113E+01  0.15453794483E+02  0.51100000000E-03 0. -1.
        -11    1    3    3    0    0 -0.24591482145E+02  0.13842469309E+02 -0.86129970120E+01  0.29504892280E+02  0.51100000000E-03 0.  1.
         12    1    3    3    0    0  0.20521370855E+01  0.46302204141E+01  0.23187520464E+01  0.55701722374E+01  0.00000000000E+00 0. -1.
</event>
<event>
 7    1  0.3041451E-011  0.5052885E+02  0.7816164E-02  0.1300439E+00
        -11   -1    0    0    0    0  0.00000000000E+00  0.00000000000E+00  0.45593999997E+02  0.45594000000E+02  0.51100000000E-03 0.  1.
         11   -1    0    0    0    0 -0.00000000000E+00 -0.00000000000E+00 -0.45593999997E+02  0.45594000000E+02  0.51100000000E-03 0. -1.
    9900012    2    1    2    0    0 -0.18127004956E+02 -0.20382091037E+02  0.30152095522E+02  0.50528845949E+02  0.29999957747E+02 0.  0.
         12    1    1    2    0    0  0.18127004956E+02  0.20382091037E+02 -0.30152095522E+02  0.40659154051E+02  0.00000000000E+00 0. -1.
         11    1    3    3    0    0 -0.28169594629E+00 -0.22653657038E+01 -0.49678228661E+01  0.54672203786E+01  0.51100000000E-03 0. -1.
        -11    1    3    3    0    0 -0.17992174442E+02 -0.19588569264E+02  0.32012135627E+02  0.41619793543E+02  0.51100000000E-03 0.  1.
        -12    1    3    3    0    0  0.14686543183E+00  0.14718439302E+01  0.31077827615E+01  0.34418320271E+01  0.00000000000E+00 0.  1.
</event>
<event>
 7    1  0.3041451E-011  0.5052885E+02  0.7816164E-02  0.1300439E+00
        -11   -1    0    0    0    0  0.00000000000E+00  0.00000000000E+00  0.45593999997E+02  0.45594000000E+02  0.51100000000E-03 0. -1.
         11   -1    0    0    0    0 -0.00000000000E+00 -0.00000000000E+00 -0.45593999997E+02  0.45594000000E+02  0.51100000000E-03 0.  1.
    9900012    2    1    2    0    0  0.41463478607E+01  0.30108427577E+02 -0.27008463191E+02  0.50528847332E+02  0.29999961949E+02 0.  0.
         12    1    1    2    0    0 -0.41463478607E+01 -0.30108427577E+02  0.27008463191E+02  0.40659152668E+02  0.00000000000E+00 0. -1.
         11    1    3    3    0    0 -0.64987593633E+01  0.19937699455E+02 -0.11388208943E+02  0.23862879876E+02  0.51100000000E-03 0. -1.
        -11    1    3    3    0    0  0.13713559004E+02  0.11652739464E+02 -0.14394833350E+02  0.23044723149E+02  0.51100000000E-03 0.  1.
         12    1    3    3    0    0 -0.30684517804E+01 -0.14820113419E+01 -0.12254208986E+01  0.36212443062E+01  0.00000000000E+00 0. -1.
</event>
<event>
 7    1  0.3041451E-011  0.5052887E+02  0.7816164E-02  0.1300439E+00
        -11   -1    0    0    0    0  0.00000000000E+00  0.00000000000E+00  0.45593999997E+02  0.45594000000E+02  0.51100000000E-03 0.  1.
         11   -1    0    0    0    0 -0.00000000000E+00 -0.00000000000E+00 -0.45593999997E+02  0.45594000000E+02  0.51100000000E-03 0. -1.
    9900012    2    1    2    0    0  0.66049769535E-01 -0.24251684963E+02  0.32634592197E+02  0.50528865799E+02  0.30000018083E+02 0.  0.
         12    1    1    2    0    0 -0.66049769535E-01  0.24251684963E+02 -0.32634592197E+02  0.40659134201E+02  0.00000000000E+00 0. -1.
         11    1    3    3    0    0  0.48100845070E+01 -0.40474126016E+01  0.18390651687E+02  0.19435393782E+02  0.51100000000E-03 0. -1.
        -11    1    3    3    0    0 -0.11394374393E+01 -0.15660595319E+02 -0.12965146890E-01  0.15701997700E+02  0.51100000000E-03 0.  1.
        -12    1    3    3    0    0 -0.36045972981E+01 -0.45436770426E+01  0.14256905656E+02  0.15391474317E+02  0.00000000000E+00 0.  1.
</event>
<event>
 7    1  0.3041451E-011  0.5052886E+02  0.7816164E-02  0.1300439E+00
        -11   -1    0    0    0    0  0.00000000000E+00  0.00000000000E+00  0.45593999997E+02  0.45594000000E+02  0.51100000000E-03 0. -1.
         11   -1    0    0    0    0 -0.00000000000E+00 -0.00000000000E+00 -0.45593999997E+02  0.45594000000E+02  0.51100000000E-03 0.  1.
    9900012    2    1    2    0    0  0.34950425595E+02  0.91443097399E+00 -0.20755652561E+02  0.50528861463E+02  0.30000004904E+02 0.  0.
         12    1    1    2    0    0 -0.34950425595E+02 -0.91443097399E+00  0.20755652561E+02  0.40659138537E+02  0.00000000000E+00 0. -1.
         11    1    3    3    0    0  0.18329035714E+02 -0.20185821629E+01  0.47011108293E+01  0.19029678596E+02  0.51100000000E-03 0. -1.
        -11    1    3    3    0    0  0.40828424257E+01  0.31842559446E+01 -0.12184924076E+02  0.13239390590E+02  0.51100000000E-03 0.  1.
         12    1    3    3    0    0  0.12538547455E+02 -0.25124280773E+00 -0.13271839315E+02  0.18259792278E+02  0.00000000000E+00 0. -1.
</event>
<event>
 7    1  0.3041451E-011  0.5052886E+02  0.7816164E-02  0.1300439E+00
        -11   -1    0    0    0    0  0.00000000000E+00  0.00000000000E+00  0.45593999997E+02  0.45594000000E+02  0.51100000000E-03 0. -1.
         11   -1    0    0    0    0 -0.00000000000E+00 -0.00000000000E+00 -0.45593999997E+02  0.45594000000E+02  0.51100000000E-03 0.  1.
    9900012    2    1    2    0    0  0.39840935607E+02  0.42028815082E+01 -0.69427353766E+01  0.50528856655E+02  0.29999990288E+02 0.  0.
         12    1    1    2    0    0 -0.39840935607E+02 -0.42028815082E+01  0.69427353766E+01  0.40659143345E+02  0.00000000000E+00 0. -1.
         11    1    3    3    0    0  0.30003183623E+02 -0.52638010012E+01 -0.12016786916E+02  0.32746019553E+02  0.51100000000E-03 0. -1.
        -11    1    3    3    0    0  0.91485187751E+01  0.45434276437E+01  0.70733646391E+01  0.12424597302E+02  0.51100000000E-03 0.  1.
         12    1    3    3    0    0  0.68923320933E+00  0.49232548657E+01 -0.19993130992E+01  0.53582398004E+01  0.00000000000E+00 0. -1.
</event>
<event>
 7    1  0.3041451E-011  0.5052886E+02  0.7816164E-02  0.1300439E+00
        -11   -1    0    0    0    0  0.00000000000E+00  0.00000000000E+00  0.45593999997E+02  0.45594000000E+02  0.51100000000E-03 0. -1.
         11   -1    0    0    0    0 -0.00000000000E+00 -0.00000000000E+00 -0.45593999997E+02  0.45594000000E+02  0.51100000000E-03 0.  1.
    9900012    2    1    2    0    0  0.38110344714E+02 -0.75096247009E+01  0.12015514581E+02  0.50528862921E+02  0.30000009334E+02 0.  0.
         12    1    1    2    0    0 -0.38110344714E+02  0.75096247009E+01 -0.12015514581E+02  0.40659137079E+02  0.00000000000E+00 0. -1.
         11    1    3    3    0    0  0.20655622043E+02  0.72132645592E+01  0.90528557976E+01  0.23677839976E+02  0.51100000000E-03 0. -1.
        -11    1    3    3    0    0  0.44399398726E+01 -0.93012948962E+01  0.66652593864E+01  0.12274071687E+02  0.51100000000E-03 0.  1.
        -12    1    3    3    0    0  0.13014782799E+02 -0.54215943639E+01 -0.37026006034E+01  0.14576951258E+02  0.00000000000E+00 0.  1.
</event>
<event>
 7    1  0.3041451E-011  0.5052889E+02  0.7816164E-02  0.1300439E+00
        -11   -1    0    0    0    0  0.00000000000E+00  0.00000000000E+00  0.45593999997E+02  0.45594000000E+02  0.51100000000E-03 0. -1.
         11   -1    0    0    0    0 -0.00000000000E+00 -0.00000000000E+00 -0.45593999997E+02  0.45594000000E+02  0.51100000000E-03 0.  1.
    9900012    2    1    2    0    0 -0.21853865257E+02  0.53760180422E+01 -0.33862523379E+02  0.50528886799E+02  0.30000081915E+02 0.  0.
         12    1    1    2    0    0  0.21853865257E+02 -0.53760180422E+01  0.33862523379E+02  0.40659113201E+02  0.00000000000E+00 0. -1.
         11    1    3    3    0    0 -0.83435274435E+01  0.98221555148E+01 -0.67441303366E+01  0.14545531390E+02  0.51100000000E-03 0. -1.
        -11    1    3    3    0    0 -0.10017460388E+02 -0.92370223664E+01 -0.26776912462E+02  0.30044552519E+02  0.51100000000E-03 0.  1.
         12    1    3    3    0    0 -0.34928774260E+01  0.47908848938E+01 -0.34148058016E+00  0.59388028899E+01  0.00000000000E+00 0. -1.
</event>
<event>
 7    1  0.3041451E-011  0.5052889E+02  0.7816164E-02  0.1300439E+00
        -11   -1    0    0    0    0  0.00000000000E+00  0.00000000000E+00  0.45593999997E+02  0.45594000000E+02  0.51100000000E-03 0.  1.
         11   -1    0    0    0    0 -0.00000000000E+00 -0.00000000000E+00 -0.45593999997E+02  0.45594000000E+02  0.51100000000E-03 0. -1.
    9900012    2    1    2    0    0 -0.94778993556E+01  0.39243415255E+02  0.48256612459E+01  0.50528890031E+02  0.30000091737E+02 0.  0.
         12    1    1    2    0    0  0.94778993556E+01 -0.39243415255E+02 -0.48256612459E+01  0.40659109969E+02  0.00000000000E+00 0. -1.
         11    1    3    3    0    0 -0.11808094876E+00  0.98867376095E+00  0.91231861331E+01  0.91773604264E+01  0.51100000000E-03 0. -1.
        -11    1    3    3    0    0 -0.37082856381E+01  0.27611504914E+02  0.16597080081E+01  0.27908801782E+02  0.51100000000E-03 0.  1.
         12    1    3    3    0    0 -0.56515327687E+01  0.10643236579E+02 -0.59572328953E+01  0.13442727822E+02  0.00000000000E+00 0. -1.
</event>
<event>
 7    1  0.3041451E-011  0.5052886E+02  0.7816164E-02  0.1300439E+00
        -11   -1    0    0    0    0  0.00000000000E+00  0.00000000000E+00  0.45593999997E+02  0.45594000000E+02  0.51100000000E-03 0. -1.
         11   -1    0    0    0    0 -0.00000000000E+00 -0.00000000000E+00 -0.45593999997E+02  0.45594000000E+02  0.51100000000E-03 0.  1.
    9900012    2    1    2    0    0 -0.35402059294E+02 -0.19254982705E+02  0.53949785908E+01  0.50528856437E+02  0.29999989627E+02 0.  0.
         12    1    1    2    0    0  0.35402059294E+02  0.19254982705E+02 -0.53949785908E+01  0.40659143563E+02  0.00000000000E+00 0. -1.
         11    1    3    3    0    0 -0.20037872985E+01  0.34251413238E+01  0.35028295224E+01  0.52930682548E+01  0.51100000000E-03 0. -1.
        -11    1    3    3    0    0 -0.26709636563E+02 -0.25846005448E+02 -0.12683115926E+01  0.37189101865E+02  0.51100000000E-03 0.  1.
        -12    1    3    3    0    0 -0.66886354326E+01  0.31658814190E+01  0.31604606611E+01  0.80466863179E+01  0.00000000000E+00 0.  1.
</event>
<event>
 7    1  0.3041451E-011  0.5052886E+02  0.7816164E-02  0.1300439E+00
        -11   -1    0    0    0    0  0.00000000000E+00  0.00000000000E+00  0.45593999997E+02  0.45594000000E+02  0.51100000000E-03 0.  1.
         11   -1    0    0    0    0 -0.00000000000E+00 -0.00000000000E+00 -0.45593999997E+02  0.45594000000E+02  0.51100000000E-03 0. -1.
    9900012    2    1    2    0    0  0.27456595229E+01 -0.84531478218E+01  0.39675824413E+02  0.50528863300E+02  0.30000010488E+02 0.  0.
         12    1    1    2    0    0 -0.27456595229E+01  0.84531478218E+01 -0.39675824413E+02  0.40659136700E+02  0.00000000000E+00 0. -1.
         11    1    3    3    0    0 -0.27734753582E+01 -0.16703848574E+02  0.23630570638E+02  0.29070854677E+02  0.51100000000E-03 0. -1.
        -11    1    3    3    0    0  0.68760732493E+01  0.21584583855E+01  0.12070512497E+02  0.14058328426E+02  0.51100000000E-03 0.  1.
         12    1    3    3    0    0 -0.13569383683E+01  0.60922423666E+01  0.39747412776E+01  0.73996801966E+01  0.00000000000E+00 0. -1.
</event>
<event>
 7    1  0.3041451E-011  0.5052886E+02  0.7816164E-02  0.1300439E+00
        -11   -1    0    0    0    0  0.00000000000E+00  0.00000000000E+00  0.45593999997E+02  0.45594000000E+02  0.51100000000E-03 0.  1.
         11   -1    0    0    0    0 -0.00000000000E+00 -0.00000000000E+00 -0.45593999997E+02  0.45594000000E+02  0.51100000000E-03 0. -1.
    9900012    2    1    2    0    0 -0.25748859844E+02  0.31230976485E+02  0.38455173109E+01  0.50528859836E+02  0.29999999958E+02 0.  0.
         12    1    1    2    0    0  0.25748859844E+02 -0.31230976485E+02 -0.38455173109E+01  0.40659140164E+02  0.00000000000E+00 0. -1.
         11    1    3    3    0    0 -0.40112542909E+01 -0.32064884498E+01  0.66941490484E+01  0.84370232256E+01  0.51100000000E-03 0. -1.
        -11    1    3    3    0    0 -0.20803068144E+02  0.32694846710E+02 -0.15753145665E+00  0.38752360728E+02  0.51100000000E-03 0.  1.
        -12    1    3    3    0    0 -0.93453740925E+00  0.17426182246E+01 -0.26911002809E+01  0.33394758822E+01  0.00000000000E+00 0.  1.
</event>
<event>
 7    1  0.3041451E-011  0.5052885E+02  0.7816164E-02  0.1300439E+00
        -11   -1    0    0    0    0  0.00000000000E+00  0.00000000000E+00  0.45593999997E+02  0.45594000000E+02  0.51100000000E-03 0.  1.
         11   -1    0    0    0    0 -0.00000000000E+00 -0.00000000000E+00 -0.45593999997E+02  0.45594000000E+02  0.51100000000E-03 0. -1.
    9900012    2    1    2    0    0 -0.73617108257E+01 -0.39796504249E+02 -0.39000053791E+01  0.50528848770E+02  0.29999966323E+02 0.  0.
         12    1    1    2    0    0  0.73617108257E+01  0.39796504249E+02  0.39000053791E+01  0.40659151230E+02  0.00000000000E+00 0. -1.
         11    1    3    3    0    0 -0.13885616679E+02 -0.28034995351E+02  0.16894122581E+00  0.31285777220E+02  0.51100000000E-03 0. -1.
        -11    1    3    3    0    0  0.50787140684E+01 -0.26500541468E+01  0.39999930758E+01  0.69868496790E+01  0.51100000000E-03 0.  1.
         12    1    3    3    0    0  0.14451917846E+01 -0.91114547513E+01 -0.80689396807E+01  0.12256221871E+02  0.00000000000E+00 0. -1.
</event>
<event>
 7    1  0.3041451E-011  0.5052897E+02  0.7816164E-02  0.1300438E+00
        -11   -1    0    0    0    0  0.00000000000E+00  0.00000000000E+00  0.45593999997E+02  0.45594000000E+02  0.51100000000E-03 0.  1.
         11   -1    0    0    0    0 -0.00000000000E+00 -0.00000000000E+00 -0.45593999997E+02  0.45594000000E+02  0.51100000000E-03 0. -1.
    9900012    2    1    2    0    0  0.36263437219E+02 -0.81249110810E+01  0.16495624113E+02  0.50528970574E+02  0.30000336554E+02 0.  0.
         12    1    1    2    0    0 -0.36263437219E+02  0.81249110810E+01 -0.16495624113E+02  0.40659029426E+02  0.00000000000E+00 0. -1.
         11    1    3    3    0    0  0.66628869710E+01 -0.50493765664E+01 -0.20461059435E+01  0.86067889651E+01  0.51100000000E-03 0. -1.
        -11    1    3    3    0    0  0.25886516189E+02 -0.72089158926E+01  0.22542560582E+02  0.35074880279E+02  0.51100000000E-03 0.  1.
        -12    1    3    3    0    0  0.37140340589E+01  0.41333813779E+01 -0.40008305251E+01  0.68473013295E+01  0.00000000000E+00 0.  1.
</event>
<event>
 7    1  0.3041451E-011  0.5052879E+02  0.7816164E-02  0.1300439E+00
        -11   -1    0    0    0    0  0.00000000000E+00  0.00000000000E+00  0.45593999997E+02  0.45594000000E+02  0.51100000000E-03 0. -1.
         11   -1    0    0    0    0 -0.00000000000E+00 -0.00000000000E+00 -0.45593999997E+02  0.45594000000E+02  0.51100000000E-03 0.  1.
    9900012    2    1    2    0    0 -0.21713516181E+02  0.34321184739E+02 -0.19366690506E+01  0.50528792017E+02  0.29999793813E+02 0.  0.
         12    1    1    2    0    0  0.21713516181E+02 -0.34321184739E+02  0.19366690506E+01  0.40659207983E+02  0.00000000000E+00 0. -1.
         11    1    3    3    0    0 -0.47771625746E+01  0.21157625538E+01  0.65908521807E+01  0.84105330495E+01  0.51100000000E-03 0. -1.
        -11    1    3    3    0    0 -0.10651371183E+02  0.26637000892E+02 -0.14175227464E+02  0.31998728076E+02  0.51100000000E-03 0.  1.
        -12    1    3    3    0    0 -0.62849824233E+01  0.55684212936E+01  0.56477062327E+01  0.10119530891E+02  0.00000000000E+00 0.  1.
</event>
<event>
 7    1  0.3041451E-011  0.5052887E+02  0.7816164E-02  0.1300439E+00
        -11   -1    0    0    0    0  0.00000000000E+00  0.00000000000E+00  0.45593999997E+02  0.45594000000E+02  0.51100000000E-03 0. -1.
         11   -1    0    0    0    0 -0.00000000000E+00 -0.00000000000E+00 -0.45593999997E+02  0.45594000000E+02  0.51100000000E-03 0.  1.
    9900012    2    1    2    0    0 -0.10157244606E+01 -0.28666237869E+02 -0.28816317730E+02  0.50528867480E+02  0.30000023192E+02 0.  0.
         12    1    1    2    0    0  0.10157244606E+01  0.28666237869E+02  0.28816317730E+02  0.40659132520E+02  0.00000000000E+00 0. -1.
         11    1    3    3    0    0  0.23699775726E+01  0.29914955518E+01  0.10770020660E+01  0.39655734821E+01  0.51100000000E-03 0. -1.
        -11    1    3    3    0    0 -0.48446612845E+01 -0.28945268719E+02 -0.31530560013E+02  0.43075231157E+02  0.51100000000E-03 0.  1.
        -12    1    3    3    0    0  0.14589592513E+01 -0.27124647018E+01  0.16372402172E+01  0.34880628412E+01  0.00000000000E+00 0.  1.
</event>
<event>
 7    1  0.3041451E-011  0.5052885E+02  0.7816164E-02  0.1300439E+00
        -11   -1    0    0    0    0  0.00000000000E+00  0.00000000000E+00  0.45593999997E+02  0.45594000000E+02  0.51100000000E-03 0. -1.
         11   -1    0    0    0    0 -0.00000000000E+00 -0.00000000000E+00 -0.45593999997E+02  0.45594000000E+02  0.51100000000E-03 0.  1.
    9900012    2    1    2    0    0  0.23738566961E+01 -0.12262831061E+00 -0.40589603599E+02  0.50528853998E+02  0.29999982211E+02 0.  0.
         12    1    1    2    0    0 -0.23738566961E+01  0.12262831061E+00  0.40589603599E+02  0.40659146002E+02  0.00000000000E+00 0. -1.
         11    1    3    3    0    0 -0.92277385678E+01  0.10215515384E+02 -0.15278314469E+02  0.20565378842E+02  0.51100000000E-03 0. -1.
        -11    1    3    3    0    0  0.99656078473E+01 -0.95920524378E+01 -0.24126235548E+02  0.27809999132E+02  0.51100000000E-03 0.  1.
         12    1    3    3    0    0  0.16359874166E+01 -0.74609125725E+00 -0.11850535820E+01  0.21534760235E+01  0.00000000000E+00 0. -1.
</event>
<event>
 7    1  0.3041451E-011  0.5052886E+02  0.7816164E-02  0.1300439E+00
        -11   -1    0    0    0    0  0.00000000000E+00  0.00000000000E+00  0.45593999997E+02  0.45594000000E+02  0.51100000000E-03 0. -1.
         11   -1    0    0    0    0 -0.00000000000E+00 -0.00000000000E+00 -0.45593999997E+02  0.45594000000E+02  0.51100000000E-03 0.  1.
    9900012    2    1    2    0    0 -0.16449975354E+02  0.11664839806E+02 -0.35305743707E+02  0.50528859385E+02  0.29999998587E+02 0.  0.
         12    1    1    2    0    0  0.16449975354E+02 -0.11664839806E+02  0.35305743707E+02  0.40659140615E+02  0.00000000000E+00 0. -1.
         11    1    3    3    0    0  0.68975003247E+01 -0.28795343251E+01 -0.94542351219E+01  0.12051962108E+02  0.51100000000E-03 0. -1.
        -11    1    3    3    0    0 -0.22288521561E+02  0.13804815113E+02 -0.26274865725E+02  0.37117646515E+02  0.51100000000E-03 0.  1.
         12    1    3    3    0    0 -0.10589541185E+01  0.73955901786E+00  0.42335714005E+00  0.13592507620E+01  0.00000000000E+00 0. -1.
</event>
<event>
 7    1  0.3041451E-011  0.5052887E+02  0.7816164E-02  0.1300439E+00
        -11   -1    0    0    0    0  0.00000000000E+00  0.00000000000E+00  0.45593999997E+02  0.45594000000E+02  0.51100000000E-03 0. -1.
         11   -1    0    0    0    0 -0.00000000000E+00 -0.00000000000E+00 -0.45593999997E+02  0.45594000000E+02  0.51100000000E-03 0.  1.
    9900012    2    1    2    0    0  0.29740881964E+02 -0.99578351540E-01 -0.27724268822E+02  0.50528867477E+02  0.30000023182E+02 0.  0.
         12    1    1    2    0    0 -0.29740881964E+02  0.99578351540E-01  0.27724268822E+02  0.40659132523E+02  0.00000000000E+00 0. -1.
         11    1    3    3    0    0  0.40448461889E+01  0.87289298232E+01 -0.18446740679E-01  0.96205684392E+01  0.51100000000E-03 0. -1.
        -11    1    3    3    0    0  0.26097788543E+02 -0.81812774604E+01 -0.21858978319E+02  0.35012037946E+02  0.51100000000E-03 0.  1.
        -12    1    3    3    0    0 -0.40175276755E+00 -0.64723071432E+00 -0.58468437614E+01  0.58962610911E+01  0.00000000000E+00 0.  1.
</event>
<event>
 7    1  0.3041451E-011  0.5052887E+02  0.7816164E-02  0.1300439E+00
        -11   -1    0    0    0    0  0.00000000000E+00  0.00000000000E+00  0.45593999997E+02  0.45594000000E+02  0.51100000000E-03 0.  1.
         11   -1    0    0    0    0 -0.00000000000E+00 -0.00000000000E+00 -0.45593999997E+02  0.45594000000E+02  0.51100000000E-03 0. -1.
    9900012    2    1    2    0    0 -0.24179410820E+02 -0.13106889097E+02  0.29945452758E+02  0.50528873222E+02  0.30000040646E+02 0.  0.
         12    1    1    2    0    0  0.24179410820E+02  0.13106889097E+02 -0.29945452758E+02  0.40659126778E+02  0.00000000000E+00 0. -1.
         11    1    3    3    0    0 -0.13928444046E+02 -0.14651469550E+02  0.20512100537E+02  0.28799537882E+02  0.51100000000E-03 0. -1.
        -11    1    3    3    0    0  0.19662320341E+01  0.55034381886E+01  0.61285021128E+01  0.84683197103E+01  0.51100000000E-03 0.  1.
         12    1    3    3    0    0 -0.12217198808E+02 -0.39588577356E+01  0.33048501087E+01  0.13261015630E+02  0.00000000000E+00 0. -1.
</event>
<event>
 7    1  0.3041451E-011  0.5052884E+02  0.7816164E-02  0.1300439E+00
        -11   -1    0    0    0    0  0.00000000000E+00  0.00000000000E+00  0.45593999997E+02  0.45594000000E+02  0.51100000000E-03 0.  1.
         11   -1    0    0    0    0 -0.00000000000E+00 -0.00000000000E+00 -0.45593999997E+02  0.45594000000E+02  0.51100000000E-03 0. -1.
    9900012    2    1    2    0    0  0.33250390004E+02  0.42586878516E+01  0.23009608271E+02  0.50528844445E+02  0.29999953176E+02 0.  0.
         12    1    1    2    0    0 -0.33250390004E+02 -0.42586878516E+01 -0.23009608271E+02  0.40659155555E+02  0.00000000000E+00 0. -1.
         11    1    3    3    0    0  0.49619271659E+01  0.96690594383E+01  0.12844021783E+01  0.10943542426E+02  0.51100000000E-03 0. -1.
        -11    1    3    3    0    0  0.33938369256E+01 -0.24893165559E+01  0.11970122908E+02  0.12688525080E+02  0.51100000000E-03 0.  1.
         12    1    3    3    0    0  0.24894625912E+02 -0.29210550309E+01  0.97550831845E+01  0.26896776940E+02  0.00000000000E+00 0. -1.
</event>
<event>
 7    1  0.3041451E-011  0.5052886E+02  0.7816164E-02  0.1300439E+00
        -11   -1    0    0    0    0  0.00000000000E+00  0.00000000000E+00  0.45593999997E+02  0.45594000000E+02  0.51100000000E-03 0. -1.
         11   -1    0    0    0    0 -0.00000000000E+00 -0.00000000000E+00 -0.45593999997E+02  0.45594000000E+02  0.51100000000E-03 0.  1.
    9900012    2    1    2    0    0  0.11700036567E+02  0.14948532001E+02 -0.35955753809E+02  0.50528859618E+02  0.29999999293E+02 0.  0.
         12    1    1    2    0    0 -0.11700036567E+02 -0.14948532001E+02  0.35955753809E+02  0.40659140382E+02  0.00000000000E+00 0. -1.
         11    1    3    3    0    0  0.35852724404E+01 -0.24599724991E+01 -0.51554722906E+00  0.43785194272E+01  0.51100000000E-03 0. -1.
        -11    1    3    3    0    0 -0.49036698639E+01  0.13983145052E+02 -0.11785064311E+02  0.18933094432E+02  0.51100000000E-03 0.  1.
        -12    1    3    3    0    0  0.13018433990E+02  0.34253594479E+01 -0.23655142269E+02  0.27217245759E+02  0.00000000000E+00 0.  1.
</event>
<event>
 7    1  0.3041451E-011  0.5052886E+02  0.7816164E-02  0.1300439E+00
        -11   -1    0    0    0    0  0.00000000000E+00  0.00000000000E+00  0.45593999997E+02  0.45594000000E+02  0.51100000000E-03 0.  1.
         11   -1    0    0    0    0 -0.00000000000E+00 -0.00000000000E+00 -0.45593999997E+02  0.45594000000E+02  0.51100000000E-03 0. -1.
    9900012    2    1    2    0    0  0.35486893275E+02  0.19602298368E+02 -0.30977876922E+01  0.50528856081E+02  0.29999988544E+02 0.  0.
         12    1    1    2    0    0 -0.35486893275E+02 -0.19602298368E+02  0.30977876922E+01  0.40659143919E+02  0.00000000000E+00 0. -1.
         11    1    3    3    0    0  0.38030806379E+02  0.22749475707E+02 -0.62460250154E+01  0.44753700490E+02  0.51100000000E-03 0. -1.
        -11    1    3    3    0    0  0.28884462433E+00 -0.10848432738E+01  0.15751607578E+01  0.19342822492E+01  0.51100000000E-03 0.  1.
         12    1    3    3    0    0 -0.28327577282E+01 -0.20623340659E+01  0.15730765653E+01  0.38408733416E+01  0.00000000000E+00 0. -1.
</event>
<event>
 7    1  0.3041451E-011  0.5052886E+02  0.7816164E-02  0.1300439E+00
        -11   -1    0    0    0    0  0.00000000000E+00  0.00000000000E+00  0.45593999997E+02  0.45594000000E+02  0.51100000000E-03 0. -1.
         11   -1    0    0    0    0 -0.00000000000E+00 -0.00000000000E+00 -0.45593999997E+02  0.45594000000E+02  0.51100000000E-03 0.  1.
    9900012    2    1    2    0    0  0.80244395808E+01  0.57175922402E+01 -0.39447224114E+02  0.50528856109E+02  0.29999988629E+02 0.  0.
         12    1    1    2    0    0 -0.80244395808E+01 -0.57175922402E+01  0.39447224114E+02  0.40659143891E+02  0.00000000000E+00 0. -1.
         11    1    3    3    0    0  0.30027169958E+01  0.89547178675E+01 -0.21694508052E+02  0.23661254433E+02  0.51100000000E-03 0. -1.
        -11    1    3    3    0    0  0.11112157916E+02 -0.52255670766E+01 -0.16104903270E+02  0.20252271834E+02  0.51100000000E-03 0.  1.
        -12    1    3    3    0    0 -0.60904353314E+01  0.19884414493E+01 -0.16478127916E+01  0.66153298420E+01  0.00000000000E+00 0.  1.
</event>
<event>
 7    1  0.3041451E-011  0.5052886E+02  0.7816164E-02  0.1300439E+00
        -11   -1    0    0    0    0  0.00000000000E+00  0.00000000000E+00  0.45593999997E+02  0.45594000000E+02  0.51100000000E-03 0. -1.
         11   -1    0    0    0    0 -0.00000000000E+00 -0.00000000000E+00 -0.45593999997E+02  0.45594000000E+02  0.51100000000E-03 0.  1.
    9900012    2    1    2    0    0 -0.22137423448E+02  0.33285103571E+02  0.74298230474E+01  0.50528857029E+02  0.29999991426E+02 0.  0.
         12    1    1    2    0    0  0.22137423448E+02 -0.33285103571E+02 -0.74298230474E+01  0.40659142971E+02  0.00000000000E+00 0. -1.
         11    1    3    3    0    0 -0.59751961369E+01 -0.98376425416E+00  0.79068517890E+01  0.99593707862E+01  0.51100000000E-03 0. -1.
        -11    1    3    3    0    0 -0.25584410517E+01  0.17047278789E+02  0.50024031339E+01  0.17949355758E+02  0.51100000000E-03 0.  1.
         12    1    3    3    0    0 -0.13603786259E+02  0.17221589035E+02 -0.54794318755E+01  0.22620130485E+02  0.00000000000E+00 0. -1.
</event>
<event>
 7    1  0.3041451E-011  0.5052886E+02  0.7816164E-02  0.1300439E+00
        -11   -1    0    0    0    0  0.00000000000E+00  0.00000000000E+00  0.45593999997E+02  0.45594000000E+02  0.51100000000E-03 0.  1.
         11   -1    0    0    0    0 -0.00000000000E+00 -0.00000000000E+00 -0.45593999997E+02  0.45594000000E+02  0.51100000000E-03 0. -1.
    9900012    2    1    2    0    0 -0.14710797838E+02  0.68438373683E-01  0.37904532682E+02  0.50528857674E+02  0.29999993384E+02 0.  0.
         12    1    1    2    0    0  0.14710797838E+02 -0.68438373683E-01 -0.37904532682E+02  0.40659142326E+02  0.00000000000E+00 0. -1.
         11    1    3    3    0    0 -0.72263375389E+00  0.43447610120E+01 -0.83472575277E+00  0.44828467671E+01  0.51100000000E-03 0. -1.
        -11    1    3    3    0    0 -0.18267803550E+02 -0.11229748291E+01  0.22761778792E+02  0.29207401340E+02  0.51100000000E-03 0.  1.
        -12    1    3    3    0    0  0.42796394660E+01 -0.31533478092E+01  0.15977479644E+02  0.16838609566E+02  0.00000000000E+00 0.  1.
</event>
<event>
 7    1  0.3041451E-011  0.5052891E+02  0.7816164E-02  0.1300439E+00
        -11   -1    0    0    0    0  0.00000000000E+00  0.00000000000E+00  0.45593999997E+02  0.45594000000E+02  0.51100000000E-03 0.  1.
         11   -1    0    0    0    0 -0.00000000000E+00 -0.00000000000E+00 -0.45593999997E+02  0.45594000000E+02  0.51100000000E-03 0. -1.
    9900012    2    1    2    0    0  0.36708917768E+02 -0.14183830062E+02  0.10219380906E+02  0.50528912147E+02  0.30000158962E+02 0.  0.
         12    1    1    2    0    0 -0.36708917768E+02  0.14183830062E+02 -0.10219380906E+02  0.40659087853E+02  0.00000000000E+00 0. -1.
         11    1    3    3    0    0  0.44703327160E+01  0.21328032196E+01  0.75148962219E+01  0.90003549736E+01  0.51100000000E-03 0. -1.
        -11    1    3    3    0    0  0.31364611846E+02 -0.12502209208E+02 -0.37585920863E+01  0.33973094150E+02  0.51100000000E-03 0.  1.
        -12    1    3    3    0    0  0.87397320564E+00 -0.38144240730E+01  0.64630767700E+01  0.75554630241E+01  0.00000000000E+00 0.  1.
</event>
<event>
 7    1  0.3041451E-011  0.5052889E+02  0.7816164E-02  0.1300439E+00
        -11   -1    0    0    0    0  0.00000000000E+00  0.00000000000E+00  0.45593999997E+02  0.45594000000E+02  0.51100000000E-03 0.  1.
         11   -1    0    0    0    0 -0.00000000000E+00 -0.00000000000E+00 -0.45593999997E+02  0.45594000000E+02  0.51100000000E-03 0. -1.
    9900012    2    1    2    0    0  0.35169745277E+02 -0.13436343173E+02  0.15353075647E+02  0.50528889920E+02  0.30000091399E+02 0.  0.
         12    1    1    2    0    0 -0.35169745277E+02  0.13436343173E+02 -0.15353075647E+02  0.40659110080E+02  0.00000000000E+00 0. -1.
         11    1    3    3    0    0  0.85625526379E+01 -0.10922815299E+02  0.45527879399E+01  0.14606610833E+02  0.51100000000E-03 0.  1.
        -11    1    3    3    0    0  0.17482814090E+02  0.92650725106E+00 -0.42251197262E+01  0.18009965051E+02  0.51100000000E-03 0. -1.
        -12    1    3    3    0    0  0.91243785496E+01 -0.34400351245E+01  0.15025407433E+02  0.17912314035E+02  0.00000000000E+00 0.  1.
</event>
<event>
 7    1  0.3041451E-011  0.5052885E+02  0.7816164E-02  0.1300439E+00
        -11   -1    0    0    0    0  0.00000000000E+00  0.00000000000E+00  0.45593999997E+02  0.45594000000E+02  0.51100000000E-03 0.  1.
         11   -1    0    0    0    0 -0.00000000000E+00 -0.00000000000E+00 -0.45593999997E+02  0.45594000000E+02  0.51100000000E-03 0. -1.
    9900012    2    1    2    0    0  0.19107245435E+02  0.35062126365E+01  0.35718149101E+02  0.50528849365E+02  0.29999968130E+02 0.  0.
         12    1    1    2    0    0 -0.19107245435E+02 -0.35062126365E+01 -0.35718149101E+02  0.40659150635E+02  0.00000000000E+00 0. -1.
         11    1    3    3    0    0  0.98218333944E+01  0.92068420311E+01  0.21328990220E+02  0.25222215911E+02  0.51100000000E-03 0. -1.
        -11    1    3    3    0    0 -0.50439768341E+01 -0.14430030956E+01  0.12238340674E+01  0.53871820391E+01  0.51100000000E-03 0.  1.
         12    1    3    3    0    0  0.14329388875E+02 -0.42576262990E+01  0.13165324814E+02  0.19919451415E+02  0.00000000000E+00 0. -1.
</event>
<event>
 7    1  0.3041451E-011  0.5052885E+02  0.7816164E-02  0.1300439E+00
        -11   -1    0    0    0    0  0.00000000000E+00  0.00000000000E+00  0.45593999997E+02  0.45594000000E+02  0.51100000000E-03 0. -1.
         11   -1    0    0    0    0 -0.00000000000E+00 -0.00000000000E+00 -0.45593999997E+02  0.45594000000E+02  0.51100000000E-03 0.  1.
    9900012    2    1    2    0    0 -0.21046286154E+02 -0.11333388283E+02 -0.32890341431E+02  0.50528850842E+02  0.29999972618E+02 0.  0.
         12    1    1    2    0    0  0.21046286154E+02  0.11333388283E+02  0.32890341431E+02  0.40659149158E+02  0.00000000000E+00 0. -1.
         11    1    3    3    0    0 -0.11009337629E+02 -0.37867266404E+01 -0.32295851143E+02  0.34330260922E+02  0.51100000000E-03 0. -1.
        -11    1    3    3    0    0 -0.16088931738E+01 -0.61650265689E+01  0.28624119607E+01  0.69849475541E+01  0.51100000000E-03 0.  1.
         12    1    3    3    0    0 -0.84280553512E+01 -0.13816350742E+01 -0.34569022482E+01  0.92136423653E+01  0.00000000000E+00 0. -1.
</event>
<event>
 7    1  0.3041451E-011  0.5052886E+02  0.7816164E-02  0.1300439E+00
        -11   -1    0    0    0    0  0.00000000000E+00  0.00000000000E+00  0.45593999997E+02  0.45594000000E+02  0.51100000000E-03 0. -1.
         11   -1    0    0    0    0 -0.00000000000E+00 -0.00000000000E+00 -0.45593999997E+02  0.45594000000E+02  0.51100000000E-03 0.  1.
    9900012    2    1    2    0    0 -0.26710403413E+02  0.98941723883E+01 -0.29014230469E+02  0.50528857517E+02  0.29999992909E+02 0.  0.
         12    1    1    2    0    0  0.26710403413E+02 -0.98941723883E+01  0.29014230469E+02  0.40659142483E+02  0.00000000000E+00 0. -1.
         11    1    3    3    0    0 -0.54880939812E+01  0.81844039404E+01  0.23981044751E+01  0.10141723164E+02  0.51100000000E-03 0. -1.
        -11    1    3    3    0    0 -0.10972890079E+02 -0.38582786293E+01 -0.23709818076E+02  0.26409204913E+02  0.51100000000E-03 0.  1.
         12    1    3    3    0    0 -0.10249419353E+02  0.55680470772E+01 -0.77025168679E+01  0.13977929440E+02  0.00000000000E+00 0. -1.
</event>
<event>
 7    1  0.3041451E-011  0.5052886E+02  0.7816164E-02  0.1300439E+00
        -11   -1    0    0    0    0  0.00000000000E+00  0.00000000000E+00  0.45593999997E+02  0.45594000000E+02  0.51100000000E-03 0.  1.
         11   -1    0    0    0    0 -0.00000000000E+00 -0.00000000000E+00 -0.45593999997E+02  0.45594000000E+02  0.51100000000E-03 0. -1.
    9900012    2    1    2    0    0 -0.59056937330E+01  0.47347936701E+01  0.39948346179E+02  0.50528857707E+02  0.29999993485E+02 0.  0.
         12    1    1    2    0    0  0.59056937330E+01 -0.47347936701E+01 -0.39948346179E+02  0.40659142293E+02  0.00000000000E+00 0. -1.
         11    1    3    3    0    0  0.14208158417E+01  0.41217818440E+01  0.33402594073E+02  0.33685918338E+02  0.51100000000E-03 0.  1.
        -11    1    3    3    0    0 -0.11575126699E+01  0.11047704260E+01 -0.41711580199E+01  0.44675399006E+01  0.51100000000E-03 0. -1.
         12    1    3    3    0    0 -0.61689969048E+01 -0.49175859982E+00  0.10716910126E+02  0.12375399468E+02  0.00000000000E+00 0. -1.
</event>
<event>
 7    1  0.3041451E-011  0.5052886E+02  0.7816164E-02  0.1300439E+00
        -11   -1    0    0    0    0  0.00000000000E+00  0.00000000000E+00  0.45593999997E+02  0.45594000000E+02  0.51100000000E-03 0. -1.
         11   -1    0    0    0    0 -0.00000000000E+00 -0.00000000000E+00 -0.45593999997E+02  0.45594000000E+02  0.51100000000E-03 0.  1.
    9900012    2    1    2    0    0 -0.30063179127E+02 -0.45296086260E+01 -0.26997289843E+02  0.50528858932E+02  0.29999997209E+02 0.  0.
         12    1    1    2    0    0  0.30063179127E+02  0.45296086260E+01  0.26997289843E+02  0.40659141068E+02  0.00000000000E+00 0. -1.
         11    1    3    3    0    0 -0.94743673538E+00 -0.38842066604E+01  0.26842142410E+01  0.48155689281E+01  0.51100000000E-03 0. -1.
        -11    1    3    3    0    0 -0.19765610050E+02 -0.78645807513E+01 -0.25440056798E+02  0.33162138972E+02  0.51100000000E-03 0.  1.
        -12    1    3    3    0    0 -0.93501323416E+01  0.72191787856E+01 -0.42414472859E+01  0.12551151032E+02  0.00000000000E+00 0.  1.
</event>
<event>
 7    1  0.3041451E-011  0.5052890E+02  0.7816164E-02  0.1300439E+00
        -11   -1    0    0    0    0  0.00000000000E+00  0.00000000000E+00  0.45593999997E+02  0.45594000000E+02  0.51100000000E-03 0. -1.
         11   -1    0    0    0    0 -0.00000000000E+00 -0.00000000000E+00 -0.45593999997E+02  0.45594000000E+02  0.51100000000E-03 0.  1.
    9900012    2    1    2    0    0  0.19753793265E+02 -0.30914030986E+02 -0.17529201982E+02  0.50528897916E+02  0.30000115706E+02 0.  0.
         12    1    1    2    0    0 -0.19753793265E+02  0.30914030986E+02  0.17529201982E+02  0.40659102084E+02  0.00000000000E+00 0. -1.
         11    1    3    3    0    0 -0.24621763013E+01 -0.83077352795E+01  0.63744229802E+01  0.10757046351E+02  0.51100000000E-03 0. -1.
        -11    1    3    3    0    0  0.16742285151E+02 -0.15938244139E+02 -0.18328087040E+02  0.29500008697E+02  0.51100000000E-03 0.  1.
         12    1    3    3    0    0  0.54736844152E+01 -0.66680515677E+01 -0.55755379213E+01  0.10271842868E+02  0.00000000000E+00 0. -1.
</event>
<event>
 7    1  0.3041451E-011  0.5052887E+02  0.7816164E-02  0.1300439E+00
        -11   -1    0    0    0    0  0.00000000000E+00  0.00000000000E+00  0.45593999997E+02  0.45594000000E+02  0.51100000000E-03 0.  1.
         11   -1    0    0    0    0 -0.00000000000E+00 -0.00000000000E+00 -0.45593999997E+02  0.45594000000E+02  0.51100000000E-03 0. -1.
    9900012    2    1    2    0    0 -0.84515949726E+01 -0.39765159613E+02 -0.68388521226E+00  0.50528867254E+02  0.30000022506E+02 0.  0.
         12    1    1    2    0    0  0.84515949726E+01  0.39765159613E+02  0.68388521226E+00  0.40659132746E+02  0.00000000000E+00 0. -1.
         11    1    3    3    0    0  0.66328091901E+01 -0.97486699213E+01  0.20211537718E+01  0.11963101012E+02  0.51100000000E-03 0.  1.
        -11    1    3    3    0    0 -0.93944530920E+01 -0.30702495000E+02  0.26934811286E+00  0.32108744865E+02  0.51100000000E-03 0. -1.
         12    1    3    3    0    0 -0.56899510707E+01  0.68600530795E+00 -0.29743870970E+01  0.64570213777E+01  0.00000000000E+00 0. -1.
</event>
<event>
 7    1  0.3041451E-011  0.5052887E+02  0.7816164E-02  0.1300439E+00
        -11   -1    0    0    0    0  0.00000000000E+00  0.00000000000E+00  0.45593999997E+02  0.45594000000E+02  0.51100000000E-03 0.  1.
         11   -1    0    0    0    0 -0.00000000000E+00 -0.00000000000E+00 -0.45593999997E+02  0.45594000000E+02  0.51100000000E-03 0. -1.
    9900012    2    1    2    0    0  0.39752447771E+02 -0.45150821190E+01  0.72471898642E+01  0.50528870260E+02  0.30000031641E+02 0.  0.
         12    1    1    2    0    0 -0.39752447771E+02  0.45150821190E+01 -0.72471898642E+01  0.40659129740E+02  0.00000000000E+00 0. -1.
         11    1    3    3    0    0  0.10063360037E+02  0.85293141638E+01  0.57834596329E+01  0.14403778009E+02  0.51100000000E-03 0. -1.
        -11    1    3    3    0    0  0.18652439834E+02 -0.39254885509E+01 -0.59957597376E+01  0.19981794394E+02  0.51100000000E-03 0.  1.
         12    1    3    3    0    0  0.11036647900E+02 -0.91189077318E+01  0.74594899690E+01  0.16143297857E+02  0.00000000000E+00 0. -1.
</event>
<event>
 7    1  0.3041451E-011  0.5052886E+02  0.7816164E-02  0.1300439E+00
        -11   -1    0    0    0    0  0.00000000000E+00  0.00000000000E+00  0.45593999997E+02  0.45594000000E+02  0.51100000000E-03 0.  1.
         11   -1    0    0    0    0 -0.00000000000E+00 -0.00000000000E+00 -0.45593999997E+02  0.45594000000E+02  0.51100000000E-03 0. -1.
    9900012    2    1    2    0    0 -0.23162947311E+02 -0.12833480204E+02  0.30853608287E+02  0.50528862200E+02  0.30000007144E+02 0.  0.
         12    1    1    2    0    0  0.23162947311E+02  0.12833480204E+02 -0.30853608287E+02  0.40659137800E+02  0.00000000000E+00 0. -1.
         11    1    3    3    0    0  0.49694530582E+00  0.70498100830E+01  0.41563551762E+00  0.70795148130E+01  0.51100000000E-03 0. -1.
        -11    1    3    3    0    0 -0.15341453319E+02 -0.14351631884E+02  0.20151992134E+02  0.29110690732E+02  0.51100000000E-03 0.  1.
         12    1    3    3    0    0 -0.83184392983E+01 -0.55316584028E+01  0.10285980635E+02  0.14338656655E+02  0.00000000000E+00 0. -1.
</event>
<event>
 7    1  0.3041451E-011  0.5052886E+02  0.7816164E-02  0.1300439E+00
        -11   -1    0    0    0    0  0.00000000000E+00  0.00000000000E+00  0.45593999997E+02  0.45594000000E+02  0.51100000000E-03 0. -1.
         11   -1    0    0    0    0 -0.00000000000E+00 -0.00000000000E+00 -0.45593999997E+02  0.45594000000E+02  0.51100000000E-03 0.  1.
    9900012    2    1    2    0    0 -0.32733740162E+02 -0.11886439699E+02 -0.20985239572E+02  0.50528862360E+02  0.30000007630E+02 0.  0.
         12    1    1    2    0    0  0.32733740162E+02  0.11886439699E+02  0.20985239572E+02  0.40659137640E+02  0.00000000000E+00 0. -1.
         11    1    3    3    0    0  0.40917055236E+01 -0.15451189849E+01 -0.39051821714E+01  0.58634371168E+01  0.51100000000E-03 0. -1.
        -11    1    3    3    0    0 -0.29278113981E+02 -0.14166136031E+02 -0.11359031130E+02  0.34451632135E+02  0.51100000000E-03 0.  1.
         12    1    3    3    0    0 -0.75473317051E+01  0.38248153164E+01 -0.57210262707E+01  0.10213793108E+02  0.00000000000E+00 0. -1.
</event>
<event>
 7    1  0.3041451E-011  0.5052884E+02  0.7816164E-02  0.1300439E+00
        -11   -1    0    0    0    0  0.00000000000E+00  0.00000000000E+00  0.45593999997E+02  0.45594000000E+02  0.51100000000E-03 0. -1.
         11   -1    0    0    0    0 -0.00000000000E+00 -0.00000000000E+00 -0.45593999997E+02  0.45594000000E+02  0.51100000000E-03 0.  1.
    9900012    2    1    2    0    0  0.22052980611E+02  0.33238293166E+02 -0.78771063246E+01  0.50528844937E+02  0.29999954669E+02 0.  0.
         12    1    1    2    0    0 -0.22052980611E+02 -0.33238293166E+02  0.78771063246E+01  0.40659155063E+02  0.00000000000E+00 0. -1.
         11    1    3    3    0    0 -0.69752292155E+01  0.80239308829E+01 -0.55395338058E+01  0.11988482993E+02  0.51100000000E-03 0. -1.
        -11    1    3    3    0    0  0.10637229410E+02  0.94350620565E+01 -0.29224912725E+00  0.14221689610E+02  0.51100000000E-03 0.  1.
         12    1    3    3    0    0  0.18390980417E+02  0.15779300226E+02 -0.20453233916E+01  0.24318672334E+02  0.00000000000E+00 0. -1.
</event>
<event>
 7    1  0.3041451E-011  0.5052885E+02  0.7816164E-02  0.1300439E+00
        -11   -1    0    0    0    0  0.00000000000E+00  0.00000000000E+00  0.45593999997E+02  0.45594000000E+02  0.51100000000E-03 0.  1.
         11   -1    0    0    0    0 -0.00000000000E+00 -0.00000000000E+00 -0.45593999997E+02  0.45594000000E+02  0.51100000000E-03 0. -1.
    9900012    2    1    2    0    0 -0.35670062958E+02  0.15809209114E+02  0.11440353241E+02  0.50528853839E+02  0.29999981730E+02 0.  0.
         12    1    1    2    0    0  0.35670062958E+02 -0.15809209114E+02 -0.11440353241E+02  0.40659146161E+02  0.00000000000E+00 0. -1.
         11    1    3    3    0    0 -0.89076684250E+01  0.17985782877E+02  0.43354612995E+01  0.20533659377E+02  0.51100000000E-03 0. -1.
        -11    1    3    3    0    0 -0.18491595882E+02  0.29239520990E+01  0.15091115409E+01  0.18782066767E+02  0.51100000000E-03 0.  1.
         12    1    3    3    0    0 -0.82707986516E+01 -0.51005258628E+01  0.55957804006E+01  0.11213127695E+02  0.00000000000E+00 0. -1.
</event>
<event>
 7    1  0.3041451E-011  0.5052885E+02  0.7816164E-02  0.1300439E+00
        -11   -1    0    0    0    0  0.00000000000E+00  0.00000000000E+00  0.45593999997E+02  0.45594000000E+02  0.51100000000E-03 0.  1.
         11   -1    0    0    0    0 -0.00000000000E+00 -0.00000000000E+00 -0.45593999997E+02  0.45594000000E+02  0.51100000000E-03 0. -1.
    9900012    2    1    2    0    0  0.10247871406E+01 -0.13547509510E+02  0.38322076613E+02  0.50528846559E+02  0.29999959600E+02 0.  0.
         12    1    1    2    0    0 -0.10247871406E+01  0.13547509510E+02 -0.38322076613E+02  0.40659153441E+02  0.00000000000E+00 0. -1.
         11    1    3    3    0    0 -0.24387639250E+01 -0.13314513966E+02  0.12798491432E+02  0.18628613337E+02  0.51100000000E-03 0. -1.
        -11    1    3    3    0    0 -0.25485629206E+01  0.81877873603E+01  0.13959914534E+02  0.16383352797E+02  0.51100000000E-03 0.  1.
        -12    1    3    3    0    0  0.60121139861E+01 -0.84207829040E+01  0.11563670647E+02  0.15516880425E+02  0.00000000000E+00 0.  1.
</event>
<event>
 7    1  0.3041451E-011  0.5052888E+02  0.7816164E-02  0.1300439E+00
        -11   -1    0    0    0    0  0.00000000000E+00  0.00000000000E+00  0.45593999997E+02  0.45594000000E+02  0.51100000000E-03 0.  1.
         11   -1    0    0    0    0 -0.00000000000E+00 -0.00000000000E+00 -0.45593999997E+02  0.45594000000E+02  0.51100000000E-03 0. -1.
    9900012    2    1    2    0    0  0.21293422191E+02  0.34540468813E+02 -0.25904555990E+01  0.50528877105E+02  0.30000052447E+02 0.  0.
         12    1    1    2    0    0 -0.21293422191E+02 -0.34540468813E+02  0.25904555990E+01  0.40659122895E+02  0.00000000000E+00 0. -1.
         11    1    3    3    0    0 -0.87027664407E+00  0.14512900633E+02  0.62460780892E+01  0.15823879359E+02  0.51100000000E-03 0.  1.
        -11    1    3    3    0    0  0.23033976958E+02  0.20782935464E+02 -0.59399703650E+01  0.31587620189E+02  0.51100000000E-03 0. -1.
         12    1    3    3    0    0 -0.87027812261E+00 -0.75536728428E+00 -0.28965633232E+01  0.31173775566E+01  0.00000000000E+00 0. -1.
</event>
<event>
 7    1  0.3041451E-011  0.5052874E+02  0.7816164E-02  0.1300439E+00
        -11   -1    0    0    0    0  0.00000000000E+00  0.00000000000E+00  0.45593999997E+02  0.45594000000E+02  0.51100000000E-03 0.  1.
         11   -1    0    0    0    0 -0.00000000000E+00 -0.00000000000E+00 -0.45593999997E+02  0.45594000000E+02  0.51100000000E-03 0. -1.
    9900012    2    1    2    0    0  0.16077928179E+02  0.25765372946E+02  0.27033708946E+02  0.50528737378E+02  0.29999627732E+02 0.  0.
         12    1    1    2    0    0 -0.16077928179E+02 -0.25765372946E+02 -0.27033708946E+02  0.40659262622E+02  0.00000000000E+00 0. -1.
         11    1    3    3    0    0  0.12212278208E+02  0.17549056848E+02  0.25982926075E+02  0.33648500456E+02  0.51100000000E-03 0.  1.
        -11    1    3    3    0    0  0.88583377766E+01  0.78584637887E+01  0.69141521235E+00  0.11861857213E+02  0.51100000000E-03 0. -1.
         12    1    3    3    0    0 -0.49926878050E+01  0.35785230925E+00  0.35936765947E+00  0.50183797094E+01  0.00000000000E+00 0. -1.
</event>
<event>
 7    1  0.3041451E-011  0.5052885E+02  0.7816164E-02  0.1300439E+00
        -11   -1    0    0    0    0  0.00000000000E+00  0.00000000000E+00  0.45593999997E+02  0.45594000000E+02  0.51100000000E-03 0.  1.
         11   -1    0    0    0    0 -0.00000000000E+00 -0.00000000000E+00 -0.45593999997E+02  0.45594000000E+02  0.51100000000E-03 0. -1.
    9900012    2    1    2    0    0 -0.25976548353E+02  0.15824000442E+02  0.26981226152E+02  0.50528848275E+02  0.29999964817E+02 0.  0.
         12    1    1    2    0    0  0.25976548353E+02 -0.15824000442E+02 -0.26981226152E+02  0.40659151725E+02  0.00000000000E+00 0. -1.
         11    1    3    3    0    0 -0.10646398114E+00 -0.17434592199E+01 -0.28704181828E+01  0.33601019979E+01  0.51100000000E-03 0. -1.
        -11    1    3    3    0    0 -0.81002662318E+01  0.11891113267E+02  0.23324823406E+02  0.27405478922E+02  0.51100000000E-03 0.  1.
         12    1    3    3    0    0 -0.17769818141E+02  0.56763463948E+01  0.65268209285E+01  0.19763267356E+02  0.00000000000E+00 0. -1.
</event>
<event>
 7    1  0.3041451E-011  0.5052886E+02  0.7816164E-02  0.1300439E+00
        -11   -1    0    0    0    0  0.00000000000E+00  0.00000000000E+00  0.45593999997E+02  0.45594000000E+02  0.51100000000E-03 0.  1.
         11   -1    0    0    0    0 -0.00000000000E+00 -0.00000000000E+00 -0.45593999997E+02  0.45594000000E+02  0.51100000000E-03 0. -1.
    9900012    2    1    2    0    0  0.33570734614E+02  0.18577617881E+02  0.13455257200E+02  0.50528855211E+02  0.29999985898E+02 0.  0.
         12    1    1    2    0    0 -0.33570734614E+02 -0.18577617881E+02 -0.13455257200E+02  0.40659144789E+02  0.00000000000E+00 0. -1.
         11    1    3    3    0    0 -0.10995905034E+01  0.74890688164E+00 -0.34395862237E+00  0.13741428556E+01  0.51100000000E-03 0. -1.
        -11    1    3    3    0    0  0.38968405152E+02  0.17399791784E+02  0.13743397446E+02  0.44834923082E+02  0.51100000000E-03 0.  1.
        -12    1    3    3    0    0 -0.42980800338E+01  0.42891921603E+00  0.55818376347E-01  0.43197892729E+01  0.00000000000E+00 0.  1.
</event>
<event>
 7    1  0.3041451E-011  0.5052887E+02  0.7816164E-02  0.1300439E+00
        -11   -1    0    0    0    0  0.00000000000E+00  0.00000000000E+00  0.45593999997E+02  0.45594000000E+02  0.51100000000E-03 0.  1.
         11   -1    0    0    0    0 -0.00000000000E+00 -0.00000000000E+00 -0.45593999997E+02  0.45594000000E+02  0.51100000000E-03 0. -1.
    9900012    2    1    2    0    0 -0.12574801990E+02 -0.34673739395E+02 -0.17110556291E+02  0.50528868365E+02  0.30000025883E+02 0.  0.
         12    1    1    2    0    0  0.12574801990E+02  0.34673739395E+02  0.17110556291E+02  0.40659131635E+02  0.00000000000E+00 0. -1.
         11    1    3    3    0    0 -0.72344250575E+01 -0.10151590871E+02 -0.11769662032E+02  0.17143997426E+02  0.51100000000E-03 0. -1.
        -11    1    3    3    0    0  0.81025170685E+01 -0.10065982116E+02  0.47848524899E-01  0.12921960708E+02  0.51100000000E-03 0.  1.
        -12    1    3    3    0    0 -0.13442894001E+02 -0.14456166408E+02 -0.53887427835E+01  0.20462910231E+02  0.00000000000E+00 0.  1.
</event>
<event>
 7    1  0.3041451E-011  0.5052889E+02  0.7816164E-02  0.1300439E+00
        -11   -1    0    0    0    0  0.00000000000E+00  0.00000000000E+00  0.45593999997E+02  0.45594000000E+02  0.51100000000E-03 0. -1.
         11   -1    0    0    0    0 -0.00000000000E+00 -0.00000000000E+00 -0.45593999997E+02  0.45594000000E+02  0.51100000000E-03 0.  1.
    9900012    2    1    2    0    0  0.22685196803E+02 -0.86816452874E+00 -0.33731169068E+02  0.50528885028E+02  0.30000076530E+02 0.  0.
         12    1    1    2    0    0 -0.22685196803E+02  0.86816452874E+00  0.33731169068E+02  0.40659114972E+02  0.00000000000E+00 0. -1.
         11    1    3    3    0    0  0.12608146577E+02 -0.57987290798E+01 -0.62953805558E+01  0.15238846271E+02  0.51100000000E-03 0. -1.
        -11    1    3    3    0    0  0.13113437453E+02  0.97200133073E+01 -0.22325987414E+02  0.27656655886E+02  0.51100000000E-03 0.  1.
         12    1    3    3    0    0 -0.30363872281E+01 -0.47894487563E+01 -0.51098010984E+01  0.76333828709E+01  0.00000000000E+00 0. -1.
</event>
<event>
 7    1  0.3041451E-011  0.5052886E+02  0.7816164E-02  0.1300439E+00
        -11   -1    0    0    0    0  0.00000000000E+00  0.00000000000E+00  0.45593999997E+02  0.45594000000E+02  0.51100000000E-03 0. -1.
         11   -1    0    0    0    0 -0.00000000000E+00 -0.00000000000E+00 -0.45593999997E+02  0.45594000000E+02  0.51100000000E-03 0.  1.
    9900012    2    1    2    0    0  0.82798977697E+01  0.37503611437E+02 -0.13344968188E+02  0.50528858914E+02  0.29999997154E+02 0.  0.
         12    1    1    2    0    0 -0.82798977697E+01 -0.37503611437E+02  0.13344968188E+02  0.40659141086E+02  0.00000000000E+00 0. -1.
         11    1    3    3    0    0 -0.41538257594E+01  0.42345144369E+01 -0.10571838179E+02  0.12122258193E+02  0.51100000000E-03 0. -1.
        -11    1    3    3    0    0  0.13499803622E+02  0.23415202225E+02  0.25642817301E+01  0.27149437086E+02  0.51100000000E-03 0.  1.
        -12    1    3    3    0    0 -0.10660800928E+01  0.98538947758E+01 -0.53374117397E+01  0.11257163635E+02  0.00000000000E+00 0.  1.
</event>
<event>
 7    1  0.3041451E-011  0.5052886E+02  0.7816164E-02  0.1300439E+00
        -11   -1    0    0    0    0  0.00000000000E+00  0.00000000000E+00  0.45593999997E+02  0.45594000000E+02  0.51100000000E-03 0.  1.
         11   -1    0    0    0    0 -0.00000000000E+00 -0.00000000000E+00 -0.45593999997E+02  0.45594000000E+02  0.51100000000E-03 0. -1.
    9900012    2    1    2    0    0  0.29471211113E+02 -0.25875547251E+02 -0.10727060542E+02  0.50528855175E+02  0.29999985790E+02 0.  0.
         12    1    1    2    0    0 -0.29471211113E+02  0.25875547251E+02  0.10727060542E+02  0.40659144825E+02  0.00000000000E+00 0. -1.
         11    1    3    3    0    0  0.18293809761E+02 -0.55586319606E+01 -0.22704126180E+01  0.19254003183E+02  0.51100000000E-03 0. -1.
        -11    1    3    3    0    0 -0.20602619258E+01 -0.13495248880E+02 -0.90367246079E+01  0.16371585550E+02  0.51100000000E-03 0.  1.
        -12    1    3    3    0    0  0.13237663278E+02 -0.68216664107E+01  0.58007668413E+00  0.14903266442E+02  0.00000000000E+00 0.  1.
</event>
<event>
 7    1  0.3041451E-011  0.5052886E+02  0.7816164E-02  0.1300439E+00
        -11   -1    0    0    0    0  0.00000000000E+00  0.00000000000E+00  0.45593999997E+02  0.45594000000E+02  0.51100000000E-03 0.  1.
         11   -1    0    0    0    0 -0.00000000000E+00 -0.00000000000E+00 -0.45593999997E+02  0.45594000000E+02  0.51100000000E-03 0. -1.
    9900012    2    1    2    0    0 -0.17705326296E+02  0.90766990887E+01  0.35458430811E+02  0.50528863743E+02  0.30000011833E+02 0.  0.
         12    1    1    2    0    0  0.17705326296E+02 -0.90766990887E+01 -0.35458430811E+02  0.40659136257E+02  0.00000000000E+00 0. -1.
         11    1    3    3    0    0 -0.13031478558E+02  0.76977934949E+01  0.25761434532E+02  0.29878536904E+02  0.51100000000E-03 0.  1.
        -11    1    3    3    0    0 -0.21758617533E+00  0.43266415265E+01 -0.40321060205E+01  0.59181965044E+01  0.51100000000E-03 0. -1.
         12    1    3    3    0    0 -0.44562615623E+01 -0.29477359327E+01  0.13729102300E+02  0.14732130335E+02  0.00000000000E+00 0. -1.
</event>
<event>
 7    1  0.3041451E-011  0.5052886E+02  0.7816164E-02  0.1300439E+00
        -11   -1    0    0    0    0  0.00000000000E+00  0.00000000000E+00  0.45593999997E+02  0.45594000000E+02  0.51100000000E-03 0. -1.
         11   -1    0    0    0    0 -0.00000000000E+00 -0.00000000000E+00 -0.45593999997E+02  0.45594000000E+02  0.51100000000E-03 0.  1.
    9900012    2    1    2    0    0  0.95179986563E+01  0.33858248528E+02  0.20400789065E+02  0.50528862205E+02  0.30000007158E+02 0.  0.
         12    1    1    2    0    0 -0.95179986563E+01 -0.33858248528E+02 -0.20400789065E+02  0.40659137795E+02  0.00000000000E+00 0. -1.
         11    1    3    3    0    0 -0.11741340987E+01 -0.38489676025E+01  0.10949789263E+01  0.41703862647E+01  0.51100000000E-03 0. -1.
        -11    1    3    3    0    0  0.70376353794E+01  0.10988581053E+02  0.13495037765E+02  0.18772140790E+02  0.51100000000E-03 0.  1.
         12    1    3    3    0    0  0.36544973756E+01  0.26718635077E+02  0.58107723733E+01  0.27586335150E+02  0.00000000000E+00 0. -1.
</event>
<event>
 7    1  0.3041451E-011  0.5052886E+02  0.7816164E-02  0.1300439E+00
        -11   -1    0    0    0    0  0.00000000000E+00  0.00000000000E+00  0.45593999997E+02  0.45594000000E+02  0.51100000000E-03 0.  1.
         11   -1    0    0    0    0 -0.00000000000E+00 -0.00000000000E+00 -0.45593999997E+02  0.45594000000E+02  0.51100000000E-03 0. -1.
    9900012    2    1    2    0    0 -0.90137049699E+01  0.39507727801E+02  0.33253770108E+01  0.50528861229E+02  0.30000004193E+02 0.  0.
         12    1    1    2    0    0  0.90137049699E+01 -0.39507727801E+02 -0.33253770108E+01  0.40659138771E+02  0.00000000000E+00 0. -1.
         11    1    3    3    0    0  0.14388246015E+01  0.46839752824E+01  0.10854212611E+02  0.11908978644E+02  0.51100000000E-03 0. -1.
        -11    1    3    3    0    0 -0.99144221470E+01  0.27001664598E+02 -0.16343150259E+01  0.28810703626E+02  0.51100000000E-03 0.  1.
        -12    1    3    3    0    0 -0.53810742431E+00  0.78220879211E+01 -0.58945205745E+01  0.98091789590E+01  0.00000000000E+00 0.  1.
</event>
<event>
 7    1  0.3041451E-011  0.5052885E+02  0.7816164E-02  0.1300439E+00
        -11   -1    0    0    0    0  0.00000000000E+00  0.00000000000E+00  0.45593999997E+02  0.45594000000E+02  0.51100000000E-03 0.  1.
         11   -1    0    0    0    0 -0.00000000000E+00 -0.00000000000E+00 -0.45593999997E+02  0.45594000000E+02  0.51100000000E-03 0. -1.
    9900012    2    1    2    0    0  0.25163017397E+02 -0.20356782300E+02  0.24608743947E+02  0.50528852090E+02  0.29999976413E+02 0.  0.
         12    1    1    2    0    0 -0.25163017397E+02  0.20356782300E+02 -0.24608743947E+02  0.40659147910E+02  0.00000000000E+00 0. -1.
         11    1    3    3    0    0 -0.41672568453E+01 -0.72982956154E+01  0.37727692050E+01  0.92122166844E+01  0.51100000000E-03 0. -1.
        -11    1    3    3    0    0  0.26340138936E+02 -0.76623787751E+01  0.21842608104E+02  0.35065859418E+02  0.51100000000E-03 0.  1.
        -12    1    3    3    0    0  0.29901353065E+01 -0.53961079091E+01 -0.10066333625E+01  0.62507759874E+01  0.00000000000E+00 0.  1.
</event>
<event>
 7    1  0.3041451E-011  0.5052885E+02  0.7816164E-02  0.1300439E+00
        -11   -1    0    0    0    0  0.00000000000E+00  0.00000000000E+00  0.45593999997E+02  0.45594000000E+02  0.51100000000E-03 0.  1.
         11   -1    0    0    0    0 -0.00000000000E+00 -0.00000000000E+00 -0.45593999997E+02  0.45594000000E+02  0.51100000000E-03 0. -1.
    9900012    2    1    2    0    0 -0.19841920749E+02 -0.27070506576E+02  0.22948909829E+02  0.50528848415E+02  0.29999965243E+02 0.  0.
         12    1    1    2    0    0  0.19841920749E+02  0.27070506576E+02 -0.22948909829E+02  0.40659151585E+02  0.00000000000E+00 0. -1.
         11    1    3    3    0    0 -0.17884447253E+02 -0.73421055007E+01  0.16741701851E+02  0.25574294670E+02  0.51100000000E-03 0. -1.
        -11    1    3    3    0    0 -0.55490480159E+01 -0.14195977675E+02  0.91002860084E+01  0.17751983600E+02  0.51100000000E-03 0.  1.
         12    1    3    3    0    0  0.35915745198E+01 -0.55324234000E+01 -0.28930780310E+01  0.72025701455E+01  0.00000000000E+00 0. -1.
</event>
<event>
 7    1  0.3041451E-011  0.5052886E+02  0.7816164E-02  0.1300439E+00
        -11   -1    0    0    0    0  0.00000000000E+00  0.00000000000E+00  0.45593999997E+02  0.45594000000E+02  0.51100000000E-03 0.  1.
         11   -1    0    0    0    0 -0.00000000000E+00 -0.00000000000E+00 -0.45593999997E+02  0.45594000000E+02  0.51100000000E-03 0. -1.
    9900012    2    1    2    0    0 -0.31884782778E+02  0.19241616298E+02  0.16318278964E+02  0.50528863279E+02  0.30000010423E+02 0.  0.
         12    1    1    2    0    0  0.31884782778E+02 -0.19241616298E+02 -0.16318278964E+02  0.40659136721E+02  0.00000000000E+00 0. -1.
         11    1    3    3    0    0 -0.55198848842E+01 -0.14655667990E-01  0.28961880231E+01  0.62335583136E+01  0.51100000000E-03 0. -1.
        -11    1    3    3    0    0 -0.58892448000E+01 -0.58067877788E+01  0.79506599947E+01  0.11472357353E+02  0.51100000000E-03 0.  1.
        -12    1    3    3    0    0 -0.20475653093E+02  0.25063059745E+02  0.54714309462E+01  0.32822947612E+02  0.00000000000E+00 0.  1.
</event>
<event>
 7    1  0.3041451E-011  0.5052887E+02  0.7816164E-02  0.1300439E+00
        -11   -1    0    0    0    0  0.00000000000E+00  0.00000000000E+00  0.45593999997E+02  0.45594000000E+02  0.51100000000E-03 0. -1.
         11   -1    0    0    0    0 -0.00000000000E+00 -0.00000000000E+00 -0.45593999997E+02  0.45594000000E+02  0.51100000000E-03 0.  1.
    9900012    2    1    2    0    0  0.15097694422E+02 -0.17269286691E+02 -0.33570767386E+02  0.50528867415E+02  0.30000022996E+02 0.  0.
         12    1    1    2    0    0 -0.15097694422E+02  0.17269286691E+02  0.33570767386E+02  0.40659132585E+02  0.00000000000E+00 0. -1.
         11    1    3    3    0    0  0.89868007979E+01  0.15823828983E+01 -0.69378479524E+01  0.11462995188E+02  0.51100000000E-03 0. -1.
        -11    1    3    3    0    0  0.10204697836E+01 -0.22369063706E+02 -0.20775028035E+02  0.30545345959E+02  0.51100000000E-03 0.  1.
        -12    1    3    3    0    0  0.50904238401E+01  0.35173941168E+01 -0.58578913986E+01  0.85205262680E+01  0.00000000000E+00 0.  1.
</event>
<event>
 7    1  0.3041451E-011  0.5052885E+02  0.7816164E-02  0.1300439E+00
        -11   -1    0    0    0    0  0.00000000000E+00  0.00000000000E+00  0.45593999997E+02  0.45594000000E+02  0.51100000000E-03 0. -1.
         11   -1    0    0    0    0 -0.00000000000E+00 -0.00000000000E+00 -0.45593999997E+02  0.45594000000E+02  0.51100000000E-03 0.  1.
    9900012    2    1    2    0    0  0.26250135451E+02 -0.20255053364E+02 -0.23533579523E+02  0.50528853881E+02  0.29999981858E+02 0.  0.
         12    1    1    2    0    0 -0.26250135451E+02  0.20255053364E+02  0.23533579523E+02  0.40659146119E+02  0.00000000000E+00 0. -1.
         11    1    3    3    0    0  0.31630044305E+01 -0.32337848301E+01 -0.21239213749E+02  0.21715574188E+02  0.51100000000E-03 0. -1.
        -11    1    3    3    0    0  0.90590102641E+01 -0.74620366362E+01 -0.13062263030E+01  0.11809059452E+02  0.51100000000E-03 0.  1.
         12    1    3    3    0    0  0.14028120756E+02 -0.95592318974E+01 -0.98813947072E+00  0.17004220242E+02  0.00000000000E+00 0. -1.
</event>
<event>
 7    1  0.3041451E-011  0.5052886E+02  0.7816164E-02  0.1300439E+00
        -11   -1    0    0    0    0  0.00000000000E+00  0.00000000000E+00  0.45593999997E+02  0.45594000000E+02  0.51100000000E-03 0. -1.
         11   -1    0    0    0    0 -0.00000000000E+00 -0.00000000000E+00 -0.45593999997E+02  0.45594000000E+02  0.51100000000E-03 0.  1.
    9900012    2    1    2    0    0 -0.27543466428E+02  0.27611709341E+02 -0.11494204763E+02  0.50528858608E+02  0.29999996225E+02 0.  0.
         12    1    1    2    0    0  0.27543466428E+02 -0.27611709341E+02  0.11494204763E+02  0.40659141392E+02  0.00000000000E+00 0. -1.
         11    1    3    3    0    0  0.12525132286E+01 -0.34921869908E+01  0.33270009716E+01  0.49832815587E+01  0.51100000000E-03 0. -1.
        -11    1    3    3    0    0 -0.22836301494E+02  0.22408723471E+02 -0.79665852153E+01  0.32971412372E+02  0.51100000000E-03 0.  1.
         12    1    3    3    0    0 -0.59596781622E+01  0.86951728608E+01 -0.68546205190E+01  0.12574164677E+02  0.00000000000E+00 0. -1.
</event>
<event>
 7    1  0.3041451E-011  0.5052886E+02  0.7816164E-02  0.1300439E+00
        -11   -1    0    0    0    0  0.00000000000E+00  0.00000000000E+00  0.45593999997E+02  0.45594000000E+02  0.51100000000E-03 0.  1.
         11   -1    0    0    0    0 -0.00000000000E+00 -0.00000000000E+00 -0.45593999997E+02  0.45594000000E+02  0.51100000000E-03 0. -1.
    9900012    2    1    2    0    0  0.35628594690E+02 -0.90789999851E+01  0.17359164794E+02  0.50528860774E+02  0.30000002807E+02 0.  0.
         12    1    1    2    0    0 -0.35628594690E+02  0.90789999851E+01 -0.17359164794E+02  0.40659139226E+02  0.00000000000E+00 0. -1.
         11    1    3    3    0    0  0.22611761855E+02  0.52359953233E+00  0.75533547351E+01  0.23845735440E+02  0.51100000000E-03 0.  1.
        -11    1    3    3    0    0 -0.24530227672E+01 -0.88261066557E+01  0.21710608269E+01  0.94144030490E+01  0.51100000000E-03 0. -1.
         12    1    3    3    0    0  0.15469855602E+02 -0.77649286174E+00  0.76347492320E+01  0.17268722284E+02  0.00000000000E+00 0. -1.
</event>
<event>
 7    1  0.3041451E-011  0.5052886E+02  0.7816164E-02  0.1300439E+00
        -11   -1    0    0    0    0  0.00000000000E+00  0.00000000000E+00  0.45593999997E+02  0.45594000000E+02  0.51100000000E-03 0. -1.
         11   -1    0    0    0    0 -0.00000000000E+00 -0.00000000000E+00 -0.45593999997E+02  0.45594000000E+02  0.51100000000E-03 0.  1.
    9900012    2    1    2    0    0 -0.89057178943E+01 -0.83381219387E+01 -0.38785688638E+02  0.50528859185E+02  0.29999997980E+02 0.  0.
         12    1    1    2    0    0  0.89057178943E+01  0.83381219387E+01  0.38785688638E+02  0.40659140815E+02  0.00000000000E+00 0. -1.
         11    1    3    3    0    0 -0.99453027602E+00  0.31163725395E+01  0.20570084765E+01  0.38642143326E+01  0.51100000000E-03 0. -1.
        -11    1    3    3    0    0  0.47010630033E+01 -0.44725307462E+01 -0.22017836802E+02  0.22954055466E+02  0.51100000000E-03 0.  1.
         12    1    3    3    0    0 -0.12612250622E+02 -0.69819637320E+01 -0.18824860312E+02  0.23710589387E+02  0.00000000000E+00 0. -1.
</event>
<event>
 7    1  0.3041451E-011  0.5052886E+02  0.7816164E-02  0.1300439E+00
        -11   -1    0    0    0    0  0.00000000000E+00  0.00000000000E+00  0.45593999997E+02  0.45594000000E+02  0.51100000000E-03 0.  1.
         11   -1    0    0    0    0 -0.00000000000E+00 -0.00000000000E+00 -0.45593999997E+02  0.45594000000E+02  0.51100000000E-03 0. -1.
    9900012    2    1    2    0    0 -0.20844908934E+02 -0.14031471601E+01  0.34881035192E+02  0.50528859988E+02  0.30000000420E+02 0.  0.
         12    1    1    2    0    0  0.20844908934E+02  0.14031471601E+01 -0.34881035192E+02  0.40659140012E+02  0.00000000000E+00 0. -1.
         11    1    3    3    0    0 -0.35982639447E+01 -0.99515412327E+01  0.11138370553E+02  0.15363722699E+02  0.51100000000E-03 0. -1.
        -11    1    3    3    0    0 -0.15404297945E+02  0.11497458041E+02  0.24939668763E+02  0.31487632728E+02  0.51100000000E-03 0.  1.
        -12    1    3    3    0    0 -0.18423470450E+01 -0.29490639686E+01 -0.11970041236E+01  0.36775045611E+01  0.00000000000E+00 0.  1.
</event>
<event>
 7    1  0.3041451E-011  0.5052885E+02  0.7816164E-02  0.1300439E+00
        -11   -1    0    0    0    0  0.00000000000E+00  0.00000000000E+00  0.45593999997E+02  0.45594000000E+02  0.51100000000E-03 0. -1.
         11   -1    0    0    0    0 -0.00000000000E+00 -0.00000000000E+00 -0.45593999997E+02  0.45594000000E+02  0.51100000000E-03 0.  1.
    9900012    2    1    2    0    0  0.31285700965E+02  0.24729486098E+02 -0.79261697081E+01  0.50528846863E+02  0.29999960525E+02 0.  0.
         12    1    1    2    0    0 -0.31285700965E+02 -0.24729486098E+02  0.79261697081E+01  0.40659153137E+02  0.00000000000E+00 0. -1.
         11    1    3    3    0    0  0.17898018798E+01  0.49239180251E+01  0.32493627866E+01  0.61649589023E+01  0.51100000000E-03 0. -1.
        -11    1    3    3    0    0  0.22037329615E+02  0.26467475690E+01 -0.12734324636E+02  0.25589298416E+02  0.51100000000E-03 0.  1.
        -12    1    3    3    0    0  0.74585694705E+01  0.17158820504E+02  0.15587921408E+01  0.18774589545E+02  0.00000000000E+00 0.  1.
</event>
<event>
 7    1  0.3041451E-011  0.5052885E+02  0.7816164E-02  0.1300439E+00
        -11   -1    0    0    0    0  0.00000000000E+00  0.00000000000E+00  0.45593999997E+02  0.45594000000E+02  0.51100000000E-03 0.  1.
         11   -1    0    0    0    0 -0.00000000000E+00 -0.00000000000E+00 -0.45593999997E+02  0.45594000000E+02  0.51100000000E-03 0. -1.
    9900012    2    1    2    0    0 -0.33779808845E+02  0.61162946934E+01  0.21787190824E+02  0.50528853054E+02  0.29999979343E+02 0.  0.
         12    1    1    2    0    0  0.33779808845E+02 -0.61162946934E+01 -0.21787190824E+02  0.40659146946E+02  0.00000000000E+00 0. -1.
         11    1    3    3    0    0 -0.18469567214E+01  0.97247676996E+00 -0.54410610778E+01  0.58277016149E+01  0.51100000000E-03 0. -1.
        -11    1    3    3    0    0 -0.15239194679E+02 -0.11409354983E+01  0.20649315082E+02  0.25689083322E+02  0.51100000000E-03 0.  1.
        -12    1    3    3    0    0 -0.16693657444E+02  0.62847534217E+01  0.65789368201E+01  0.19012068118E+02  0.00000000000E+00 0.  1.
</event>
<event>
 7    1  0.3041451E-011  0.5052886E+02  0.7816164E-02  0.1300439E+00
        -11   -1    0    0    0    0  0.00000000000E+00  0.00000000000E+00  0.45593999997E+02  0.45594000000E+02  0.51100000000E-03 0. -1.
         11   -1    0    0    0    0 -0.00000000000E+00 -0.00000000000E+00 -0.45593999997E+02  0.45594000000E+02  0.51100000000E-03 0.  1.
    9900012    2    1    2    0    0 -0.21345071683E+02  0.31507225695E+02 -0.14312523418E+02  0.50528859788E+02  0.29999999813E+02 0.  0.
         12    1    1    2    0    0  0.21345071683E+02 -0.31507225695E+02  0.14312523418E+02  0.40659140212E+02  0.00000000000E+00 0. -1.
         11    1    3    3    0    0 -0.11621041232E+01 -0.12017383013E+01 -0.54605932347E+01  0.57107564887E+01  0.51100000000E-03 0. -1.
        -11    1    3    3    0    0 -0.15902771948E+02  0.35393618976E+02 -0.86884346978E+01  0.39762989294E+02  0.51100000000E-03 0.  1.
        -12    1    3    3    0    0 -0.42801956119E+01 -0.26846549794E+01 -0.16349548512E+00  0.50551140054E+01  0.00000000000E+00 0.  1.
</event>
<event>
 7    1  0.3041451E-011  0.5052887E+02  0.7816164E-02  0.1300439E+00
        -11   -1    0    0    0    0  0.00000000000E+00  0.00000000000E+00  0.45593999997E+02  0.45594000000E+02  0.51100000000E-03 0.  1.
         11   -1    0    0    0    0 -0.00000000000E+00 -0.00000000000E+00 -0.45593999997E+02  0.45594000000E+02  0.51100000000E-03 0. -1.
    9900012    2    1    2    0    0  0.20498250080E+02 -0.19432820935E+02  0.29246399886E+02  0.50528871970E+02  0.30000036841E+02 0.  0.
         12    1    1    2    0    0 -0.20498250080E+02  0.19432820935E+02 -0.29246399886E+02  0.40659128030E+02  0.00000000000E+00 0. -1.
         11    1    3    3    0    0  0.26661692010E+02 -0.15824513711E+02  0.16906924899E+02  0.35314376178E+02  0.51100000000E-03 0. -1.
        -11    1    3    3    0    0 -0.59122868592E+01 -0.48354871942E+01  0.10841822664E+02  0.13262058334E+02  0.51100000000E-03 0.  1.
        -12    1    3    3    0    0 -0.25115507087E+00  0.12271799703E+01  0.14976523237E+01  0.19524374591E+01  0.00000000000E+00 0.  1.
</event>
<event>
 7    1  0.3041451E-011  0.5052876E+02  0.7816164E-02  0.1300439E+00
        -11   -1    0    0    0    0  0.00000000000E+00  0.00000000000E+00  0.45593999997E+02  0.45594000000E+02  0.51100000000E-03 0. -1.
         11   -1    0    0    0    0 -0.00000000000E+00 -0.00000000000E+00 -0.45593999997E+02  0.45594000000E+02  0.51100000000E-03 0.  1.
    9900012    2    1    2    0    0  0.96836233549E+01  0.21693460530E+02 -0.32996896245E+02  0.50528758088E+02  0.29999690683E+02 0.  0.
         12    1    1    2    0    0 -0.96836233549E+01 -0.21693460530E+02  0.32996896245E+02  0.40659241912E+02  0.00000000000E+00 0. -1.
         11    1    3    3    0    0 -0.30655263779E+01  0.28062130854E+01 -0.21890294492E+02  0.22281321259E+02  0.51100000000E-03 0. -1.
        -11    1    3    3    0    0  0.95422874270E+01  0.18965423494E+02 -0.57362488935E+01  0.21991977839E+02  0.51100000000E-03 0.  1.
        -12    1    3    3    0    0  0.32068623058E+01 -0.78176048537E-01 -0.53703528596E+01  0.62554589903E+01  0.00000000000E+00 0.  1.
</event>
<event>
 7    1  0.3041451E-011  0.5052885E+02  0.7816164E-02  0.1300439E+00
        -11   -1    0    0    0    0  0.00000000000E+00  0.00000000000E+00  0.45593999997E+02  0.45594000000E+02  0.51100000000E-03 0.  1.
         11   -1    0    0    0    0 -0.00000000000E+00 -0.00000000000E+00 -0.45593999997E+02  0.45594000000E+02  0.51100000000E-03 0. -1.
    9900012    2    1    2    0    0  0.36440921163E+02  0.83456657678E+01  0.15986730369E+02  0.50528850719E+02  0.29999972247E+02 0.  0.
         12    1    1    2    0    0 -0.36440921163E+02 -0.83456657678E+01 -0.15986730369E+02  0.40659149281E+02  0.00000000000E+00 0. -1.
         11    1    3    3    0    0  0.23260022240E+02 -0.48918178897E+01 -0.16320441458E+01  0.23824820780E+02  0.51100000000E-03 0. -1.
        -11    1    3    3    0    0  0.96862771917E+01  0.10809081717E+02  0.89626500408E+01  0.17058408760E+02  0.51100000000E-03 0.  1.
         12    1    3    3    0    0  0.34946217321E+01  0.24284019407E+01  0.86561244736E+01  0.96456211795E+01  0.00000000000E+00 0. -1.
</event>
<event>
 7    1  0.3041451E-011  0.5052886E+02  0.7816164E-02  0.1300439E+00
        -11   -1    0    0    0    0  0.00000000000E+00  0.00000000000E+00  0.45593999997E+02  0.45594000000E+02  0.51100000000E-03 0.  1.
         11   -1    0    0    0    0 -0.00000000000E+00 -0.00000000000E+00 -0.45593999997E+02  0.45594000000E+02  0.51100000000E-03 0. -1.
    9900012    2    1    2    0    0  0.18178075317E+01 -0.28473243429E+02  0.28967839186E+02  0.50528859297E+02  0.29999998320E+02 0.  0.
         12    1    1    2    0    0 -0.18178075317E+01  0.28473243429E+02 -0.28967839186E+02  0.40659140703E+02  0.00000000000E+00 0. -1.
         11    1    3    3    0    0 -0.21240314716E+01 -0.69509207867E+01 -0.50705518916E+01  0.88621276352E+01  0.51100000000E-03 0. -1.
        -11    1    3    3    0    0 -0.12200502377E+01  0.53671610295E+00  0.25239797515E+01  0.28543056607E+01  0.51100000000E-03 0.  1.
         12    1    3    3    0    0  0.51618892411E+01 -0.22059038745E+02  0.31514411326E+02  0.38812426001E+02  0.00000000000E+00 0. -1.
</event>
<event>
 7    1  0.3041451E-011  0.5052883E+02  0.7816164E-02  0.1300439E+00
        -11   -1    0    0    0    0  0.00000000000E+00  0.00000000000E+00  0.45593999997E+02  0.45594000000E+02  0.51100000000E-03 0.  1.
         11   -1    0    0    0    0 -0.00000000000E+00 -0.00000000000E+00 -0.45593999997E+02  0.45594000000E+02  0.51100000000E-03 0. -1.
    9900012    2    1    2    0    0 -0.85740100613E+01  0.20087190868E+02  0.34295173734E+02  0.50528833420E+02  0.29999919665E+02 0.  0.
         12    1    1    2    0    0  0.85740100613E+01 -0.20087190868E+02 -0.34295173734E+02  0.40659166580E+02  0.00000000000E+00 0. -1.
         11    1    3    3    0    0  0.78841359407E+01  0.14281547645E+02  0.11847443344E+02  0.20161451255E+02  0.51100000000E-03 0. -1.
        -11    1    3    3    0    0 -0.16007992815E+02  0.27553511074E+01  0.14246863590E+02  0.21606038880E+02  0.51100000000E-03 0.  1.
        -12    1    3    3    0    0 -0.45015318728E+00  0.30502921158E+01  0.82008668005E+01  0.87613432853E+01  0.00000000000E+00 0.  1.
</event>
<event>
 7    1  0.3041451E-011  0.5052886E+02  0.7816164E-02  0.1300439E+00
        -11   -1    0    0    0    0  0.00000000000E+00  0.00000000000E+00  0.45593999997E+02  0.45594000000E+02  0.51100000000E-03 0.  1.
         11   -1    0    0    0    0 -0.00000000000E+00 -0.00000000000E+00 -0.45593999997E+02  0.45594000000E+02  0.51100000000E-03 0. -1.
    9900012    2    1    2    0    0 -0.40204408061E+01 -0.40428325526E+02 -0.15975820095E+01  0.50528859363E+02  0.29999998519E+02 0.  0.
         12    1    1    2    0    0  0.40204408061E+01  0.40428325526E+02  0.15975820095E+01  0.40659140637E+02  0.00000000000E+00 0. -1.
         11    1    3    3    0    0 -0.39428396928E+01 -0.51303812513E+00 -0.60518973989E+01  0.72411777598E+01  0.51100000000E-03 0. -1.
        -11    1    3    3    0    0  0.55187837675E+01 -0.21759415684E+02 -0.34467469441E+01  0.22711433463E+02  0.51100000000E-03 0.  1.
         12    1    3    3    0    0 -0.55963848808E+01 -0.18155871717E+02  0.79010623335E+01  0.20576248140E+02  0.00000000000E+00 0. -1.
</event>
<event>
 7    1  0.3041451E-011  0.5052888E+02  0.7816164E-02  0.1300439E+00
        -11   -1    0    0    0    0  0.00000000000E+00  0.00000000000E+00  0.45593999997E+02  0.45594000000E+02  0.51100000000E-03 0.  1.
         11   -1    0    0    0    0 -0.00000000000E+00 -0.00000000000E+00 -0.45593999997E+02  0.45594000000E+02  0.51100000000E-03 0. -1.
    9900012    2    1    2    0    0  0.23605985805E+02  0.19633193927E+02  0.26654445739E+02  0.50528876212E+02  0.30000049733E+02 0.  0.
         12    1    1    2    0    0 -0.23605985805E+02 -0.19633193927E+02 -0.26654445739E+02  0.40659123788E+02  0.00000000000E+00 0. -1.
         11    1    3    3    0    0  0.24862482631E+02  0.21014234059E+02  0.27682341528E+02  0.42732342651E+02  0.51100000000E-03 0. -1.
        -11    1    3    3    0    0  0.30974392648E+01 -0.13096054642E+01 -0.65467405110E+00  0.34260465328E+01  0.51100000000E-03 0.  1.
         12    1    3    3    0    0 -0.43539360910E+01 -0.71434668577E-01 -0.37322173829E+00  0.43704870281E+01  0.00000000000E+00 0. -1.
</event>
<event>
 7    1  0.3041451E-011  0.5052886E+02  0.7816164E-02  0.1300439E+00
        -11   -1    0    0    0    0  0.00000000000E+00  0.00000000000E+00  0.45593999997E+02  0.45594000000E+02  0.51100000000E-03 0.  1.
         11   -1    0    0    0    0 -0.00000000000E+00 -0.00000000000E+00 -0.45593999997E+02  0.45594000000E+02  0.51100000000E-03 0. -1.
    9900012    2    1    2    0    0 -0.14364697966E+02  0.24711420351E+02  0.28916555013E+02  0.50528855921E+02  0.29999988058E+02 0.  0.
         12    1    1    2    0    0  0.14364697966E+02 -0.24711420351E+02 -0.28916555013E+02  0.40659144079E+02  0.00000000000E+00 0. -1.
         11    1    3    3    0    0 -0.57239490182E+01 -0.23128473771E+01  0.17839711557E+01  0.64261503794E+01  0.51100000000E-03 0. -1.
        -11    1    3    3    0    0 -0.93304598122E+01  0.30116743471E+02  0.25426579298E+02  0.40504155993E+02  0.51100000000E-03 0.  1.
         12    1    3    3    0    0  0.68971086460E+00 -0.30924757436E+01  0.17060045590E+01  0.35985495491E+01  0.00000000000E+00 0. -1.
</event>
<event>
 7    1  0.3041451E-011  0.5052886E+02  0.7816164E-02  0.1300439E+00
        -11   -1    0    0    0    0  0.00000000000E+00  0.00000000000E+00  0.45593999997E+02  0.45594000000E+02  0.51100000000E-03 0.  1.
         11   -1    0    0    0    0 -0.00000000000E+00 -0.00000000000E+00 -0.45593999997E+02  0.45594000000E+02  0.51100000000E-03 0. -1.
    9900012    2    1    2    0    0 -0.81191154842E+01  0.10690341802E+02  0.38379193744E+02  0.50528856422E+02  0.29999989579E+02 0.  0.
         12    1    1    2    0    0  0.81191154842E+01 -0.10690341802E+02 -0.38379193744E+02  0.40659143578E+02  0.00000000000E+00 0. -1.
         11    1    3    3    0    0  0.29454699673E+01  0.23672472959E+01  0.19955311426E+02  0.20309950946E+02  0.51100000000E-03 0. -1.
        -11    1    3    3    0    0 -0.11483809217E+02  0.50249881737E+01  0.11048835221E+01  0.12583685793E+02  0.51100000000E-03 0.  1.
        -12    1    3    3    0    0  0.41922376504E+00  0.32981063327E+01  0.17318998796E+02  0.17635219683E+02  0.00000000000E+00 0.  1.
</event>
<event>
 7    1  0.3041451E-011  0.5052886E+02  0.7816164E-02  0.1300439E+00
        -11   -1    0    0    0    0  0.00000000000E+00  0.00000000000E+00  0.45593999997E+02  0.45594000000E+02  0.51100000000E-03 0.  1.
         11   -1    0    0    0    0 -0.00000000000E+00 -0.00000000000E+00 -0.45593999997E+02  0.45594000000E+02  0.51100000000E-03 0. -1.
    9900012    2    1    2    0    0 -0.17494121562E+02  0.30474565933E+02  0.20455368615E+02  0.50528861259E+02  0.30000004282E+02 0.  0.
         12    1    1    2    0    0  0.17494121562E+02 -0.30474565933E+02 -0.20455368615E+02  0.40659138741E+02  0.00000000000E+00 0. -1.
         11    1    3    3    0    0 -0.84757850539E+01 -0.23098432952E+00  0.86207087169E+01  0.12091687437E+02  0.51100000000E-03 0. -1.
        -11    1    3    3    0    0  0.41334588603E+01  0.17054772798E+02  0.68416140459E+01  0.18835032263E+02  0.51100000000E-03 0.  1.
        -12    1    3    3    0    0 -0.13151795368E+02  0.13650777464E+02  0.49930458521E+01  0.19602141558E+02  0.00000000000E+00 0.  1.
</event>
<event>
 7    1  0.3041451E-011  0.5052887E+02  0.7816164E-02  0.1300439E+00
        -11   -1    0    0    0    0  0.00000000000E+00  0.00000000000E+00  0.45593999997E+02  0.45594000000E+02  0.51100000000E-03 0. -1.
         11   -1    0    0    0    0 -0.00000000000E+00 -0.00000000000E+00 -0.45593999997E+02  0.45594000000E+02  0.51100000000E-03 0.  1.
    9900012    2    1    2    0    0  0.34862321695E+02 -0.17804238763E+02 -0.10990572555E+02  0.50528867237E+02  0.30000022455E+02 0.  0.
         12    1    1    2    0    0 -0.34862321695E+02  0.17804238763E+02  0.10990572555E+02  0.40659132763E+02  0.00000000000E+00 0. -1.
         11    1    3    3    0    0  0.25424268158E+02 -0.19625987137E+02 -0.46153574957E+01  0.32448024709E+02  0.51100000000E-03 0.  1.
        -11    1    3    3    0    0  0.11192505896E+02  0.41895960057E+01 -0.10530554262E+01  0.11997242554E+02  0.51100000000E-03 0. -1.
        -12    1    3    3    0    0 -0.17544523579E+01 -0.23678476318E+01 -0.53221596327E+01  0.60835999737E+01  0.00000000000E+00 0.  1.
</event>
<event>
 7    1  0.3041451E-011  0.5052886E+02  0.7816164E-02  0.1300439E+00
        -11   -1    0    0    0    0  0.00000000000E+00  0.00000000000E+00  0.45593999997E+02  0.45594000000E+02  0.51100000000E-03 0. -1.
         11   -1    0    0    0    0 -0.00000000000E+00 -0.00000000000E+00 -0.45593999997E+02  0.45594000000E+02  0.51100000000E-03 0.  1.
    9900012    2    1    2    0    0  0.17978260156E+02  0.63813135312E+00 -0.36462862766E+02  0.50528863130E+02  0.30000009971E+02 0.  0.
         12    1    1    2    0    0 -0.17978260156E+02 -0.63813135312E+00  0.36462862766E+02  0.40659136870E+02  0.00000000000E+00 0. -1.
         11    1    3    3    0    0  0.14183921677E+02  0.14133960487E+02 -0.25728582313E+02  0.32602337666E+02  0.51100000000E-03 0. -1.
        -11    1    3    3    0    0  0.21928021515E+01 -0.63380104060E+01 -0.70058726867E+01  0.96985055315E+01  0.51100000000E-03 0.  1.
         12    1    3    3    0    0  0.16015363277E+01 -0.71578187277E+01 -0.37284077669E+01  0.82280199334E+01  0.00000000000E+00 0. -1.
</event>
<event>
 7    1  0.3041451E-011  0.5052886E+02  0.7816164E-02  0.1300439E+00
        -11   -1    0    0    0    0  0.00000000000E+00  0.00000000000E+00  0.45593999997E+02  0.45594000000E+02  0.51100000000E-03 0. -1.
         11   -1    0    0    0    0 -0.00000000000E+00 -0.00000000000E+00 -0.45593999997E+02  0.45594000000E+02  0.51100000000E-03 0.  1.
    9900012    2    1    2    0    0 -0.56525022038E+01  0.37520159692E+02 -0.14610023841E+02  0.50528856365E+02  0.29999989408E+02 0.  0.
         12    1    1    2    0    0  0.56525022038E+01 -0.37520159692E+02  0.14610023841E+02  0.40659143635E+02  0.00000000000E+00 0. -1.
         11    1    3    3    0    0 -0.29419153352E+00 -0.29393724329E+01 -0.24305397813E+01  0.38254389091E+01  0.51100000000E-03 0. -1.
        -11    1    3    3    0    0  0.47570695232E+01  0.30383890817E+02 -0.72285844197E+01  0.31592134537E+02  0.51100000000E-03 0.  1.
        -12    1    3    3    0    0 -0.10115380193E+02  0.10075641307E+02 -0.49508996400E+01  0.15111282919E+02  0.00000000000E+00 0.  1.
</event>
<event>
 7    1  0.3041451E-011  0.5052889E+02  0.7816164E-02  0.1300439E+00
        -11   -1    0    0    0    0  0.00000000000E+00  0.00000000000E+00  0.45593999997E+02  0.45594000000E+02  0.51100000000E-03 0. -1.
         11   -1    0    0    0    0 -0.00000000000E+00 -0.00000000000E+00 -0.45593999997E+02  0.45594000000E+02  0.51100000000E-03 0.  1.
    9900012    2    1    2    0    0  0.27789482584E+02 -0.10581825068E+02  0.27729636869E+02  0.50528891242E+02  0.30000095419E+02 0.  0.
         12    1    1    2    0    0 -0.27789482584E+02  0.10581825068E+02 -0.27729636869E+02  0.40659108758E+02  0.00000000000E+00 0. -1.
         11    1    3    3    0    0 -0.37616917386E+01  0.44932994469E+01  0.10431261431E+01  0.59521573457E+01  0.51100000000E-03 0. -1.
        -11    1    3    3    0    0  0.22031420587E+02 -0.13184559180E+02  0.16572801163E+02  0.30559349346E+02  0.51100000000E-03 0.  1.
         12    1    3    3    0    0  0.95197537363E+01 -0.18905653357E+01  0.10113709564E+02  0.14017384550E+02  0.00000000000E+00 0. -1.
</event>
<event>
 7    1  0.3041451E-011  0.5052886E+02  0.7816164E-02  0.1300439E+00
        -11   -1    0    0    0    0  0.00000000000E+00  0.00000000000E+00  0.45593999997E+02  0.45594000000E+02  0.51100000000E-03 0.  1.
         11   -1    0    0    0    0 -0.00000000000E+00 -0.00000000000E+00 -0.45593999997E+02  0.45594000000E+02  0.51100000000E-03 0. -1.
    9900012    2    1    2    0    0  0.21026623457E+02 -0.14715808332E+02  0.31535562689E+02  0.50528860523E+02  0.30000002047E+02 0.  0.
         12    1    1    2    0    0 -0.21026623457E+02  0.14715808332E+02 -0.31535562689E+02  0.40659139477E+02  0.00000000000E+00 0. -1.
         11    1    3    3    0    0 -0.66861107760E+00  0.45719485970E+01  0.70310380097E+01  0.84133970845E+01  0.51100000000E-03 0. -1.
        -11    1    3    3    0    0  0.16125095508E+02 -0.22179817773E+02  0.22662374929E+02  0.35574516993E+02  0.51100000000E-03 0.  1.
        -12    1    3    3    0    0  0.55701390266E+01  0.28920608442E+01  0.18421497500E+01  0.65409464455E+01  0.00000000000E+00 0.  1.
</event>
<event>
 7    1  0.3041451E-011  0.5052885E+02  0.7816164E-02  0.1300439E+00
        -11   -1    0    0    0    0  0.00000000000E+00  0.00000000000E+00  0.45593999997E+02  0.45594000000E+02  0.51100000000E-03 0.  1.
         11   -1    0    0    0    0 -0.00000000000E+00 -0.00000000000E+00 -0.45593999997E+02  0.45594000000E+02  0.51100000000E-03 0. -1.
    9900012    2    1    2    0    0 -0.34907253209E+02  0.10106393984E+02  0.18234884184E+02  0.50528849405E+02  0.29999968250E+02 0.  0.
         12    1    1    2    0    0  0.34907253209E+02 -0.10106393984E+02 -0.18234884184E+02  0.40659150595E+02  0.00000000000E+00 0. -1.
         11    1    3    3    0    0  0.25155738657E+01  0.42909061029E+01 -0.35424458536E+00  0.49865295091E+01  0.51100000000E-03 0. -1.
        -11    1    3    3    0    0 -0.34258844116E+02  0.13902906819E+01  0.20292363564E+02  0.39841954365E+02  0.51100000000E-03 0.  1.
        -12    1    3    3    0    0 -0.31639829584E+01  0.44251971994E+01 -0.17032347947E+01  0.57003655304E+01  0.00000000000E+00 0.  1.
</event>
<event>
 7    1  0.3255381E-011  0.5052886E+02  0.7816164E-02  0.1300439E+00
        -11   -1    0    0    0    0  0.00000000000E+00  0.00000000000E+00  0.45593999997E+02  0.45594000000E+02  0.51100000000E-03 0. -1.
         11   -1    0    0    0    0 -0.00000000000E+00 -0.00000000000E+00 -0.45593999997E+02  0.45594000000E+02  0.51100000000E-03 0.  1.
    9900012    2    1    2    0    0  0.25694239696E+02  0.30716082579E+02 -0.70351837279E+01  0.50528862126E+02  0.30000006919E+02 0.  0.
         12    1    1    2    0    0 -0.25694239696E+02 -0.30716082579E+02  0.70351837279E+01  0.40659137874E+02  0.00000000000E+00 0. -1.
         11    1    3    3    0    0 -0.49588177141E+01  0.53608627649E+01 -0.45558198582E+01  0.86072189206E+01  0.51100000000E-03 0. -1.
        -11    1    3    3    0    0  0.15110321694E+02  0.20627373641E+02 -0.23226673225E+01  0.25674990726E+02  0.51100000000E-03 0.  1.
         12    1    3    3    0    0  0.15542735717E+02  0.47278461729E+01 -0.15669654716E+00  0.16246652480E+02  0.00000000000E+00 0. -1.
</event>
<event>
 7    1  0.3041451E-011  0.5052886E+02  0.7816164E-02  0.1300439E+00
        -11   -1    0    0    0    0  0.00000000000E+00  0.00000000000E+00  0.45593999997E+02  0.45594000000E+02  0.51100000000E-03 0. -1.
         11   -1    0    0    0    0 -0.00000000000E+00 -0.00000000000E+00 -0.45593999997E+02  0.45594000000E+02  0.51100000000E-03 0.  1.
    9900012    2    1    2    0    0  0.39131447111E+02  0.10077946822E+02  0.45089416611E+01  0.50528859330E+02  0.29999998419E+02 0.  0.
         12    1    1    2    0    0 -0.39131447111E+02 -0.10077946822E+02 -0.45089416611E+01  0.40659140670E+02  0.00000000000E+00 0. -1.
         11    1    3    3    0    0 -0.28170400061E+01  0.61504612686E+01  0.18011712961E+00  0.67672986231E+01  0.51100000000E-03 0. -1.
        -11    1    3    3    0    0  0.35468161348E+02  0.17266141952E+01 -0.27867645592E+00  0.35511256339E+02  0.51100000000E-03 0.  1.
        -12    1    3    3    0    0  0.64803257694E+01  0.22008713578E+01  0.46075009874E+01  0.82503043677E+01  0.00000000000E+00 0.  1.
</event>
<event>
 7    1  0.3041451E-011  0.5052886E+02  0.7816164E-02  0.1300439E+00
        -11   -1    0    0    0    0  0.00000000000E+00  0.00000000000E+00  0.45593999997E+02  0.45594000000E+02  0.51100000000E-03 0.  1.
         11   -1    0    0    0    0 -0.00000000000E+00 -0.00000000000E+00 -0.45593999997E+02  0.45594000000E+02  0.51100000000E-03 0. -1.
    9900012    2    1    2    0    0  0.50352794069E+01  0.29946071869E+02  0.27037830714E+02  0.50528861436E+02  0.30000004820E+02 0.  0.
         12    1    1    2    0    0 -0.50352794069E+01 -0.29946071869E+02 -0.27037830714E+02  0.40659138564E+02  0.00000000000E+00 0. -1.
         11    1    3    3    0    0  0.82261093900E+01  0.68690499378E+01  0.96848576333E+01  0.14444694195E+02  0.51100000000E-03 0. -1.
        -11    1    3    3    0    0 -0.55014899584E+01  0.91017745862E+01 -0.32148563221E+01  0.11110535262E+02  0.51100000000E-03 0.  1.
        -12    1    3    3    0    0  0.23106599753E+01  0.13975247345E+02  0.20567829403E+02  0.24973631979E+02  0.00000000000E+00 0.  1.
</event>
<event>
 7    1  0.3041451E-011  0.5052887E+02  0.7816164E-02  0.1300439E+00
        -11   -1    0    0    0    0  0.00000000000E+00  0.00000000000E+00  0.45593999997E+02  0.45594000000E+02  0.51100000000E-03 0.  1.
         11   -1    0    0    0    0 -0.00000000000E+00 -0.00000000000E+00 -0.45593999997E+02  0.45594000000E+02  0.51100000000E-03 0. -1.
    9900012    2    1    2    0    0 -0.37281365503E+02  0.21179765377E+01  0.16086605807E+02  0.50528869110E+02  0.30000028147E+02 0.  0.
         12    1    1    2    0    0  0.37281365503E+02 -0.21179765377E+01 -0.16086605807E+02  0.40659130890E+02  0.00000000000E+00 0. -1.
         11    1    3    3    0    0 -0.92130961326E+01  0.39587856069E+01 -0.16450737581E+01  0.10161662844E+02  0.51100000000E-03 0. -1.
        -11    1    3    3    0    0 -0.18462895300E+02 -0.12114680518E+02  0.92402685516E+01  0.23937972973E+02  0.51100000000E-03 0.  1.
        -12    1    3    3    0    0 -0.96053740701E+01  0.10273871449E+02  0.84914110134E+01  0.16429233292E+02  0.00000000000E+00 0.  1.
</event>
<event>
 7    1  0.3041451E-011  0.5052894E+02  0.7816164E-02  0.1300439E+00
        -11   -1    0    0    0    0  0.00000000000E+00  0.00000000000E+00  0.45593999997E+02  0.45594000000E+02  0.51100000000E-03 0. -1.
         11   -1    0    0    0    0 -0.00000000000E+00 -0.00000000000E+00 -0.45593999997E+02  0.45594000000E+02  0.51100000000E-03 0.  1.
    9900012    2    1    2    0    0 -0.50965849313E+01 -0.27451383711E+02  0.29556821485E+02  0.50528937764E+02  0.30000236827E+02 0.  0.
         12    1    1    2    0    0  0.50965849313E+01  0.27451383711E+02 -0.29556821485E+02  0.40659062236E+02  0.00000000000E+00 0. -1.
         11    1    3    3    0    0 -0.86803114615E+01 -0.25801185352E+01  0.17022046296E+02  0.19280946012E+02  0.51100000000E-03 0. -1.
        -11    1    3    3    0    0  0.40540814796E+01 -0.66913801967E+01 -0.18749230538E+01  0.80452148697E+01  0.51100000000E-03 0.  1.
        -12    1    3    3    0    0 -0.47035494945E+00 -0.18179884979E+02  0.14409698242E+02  0.23202776883E+02  0.00000000000E+00 0.  1.
</event>
<event>
 7    1  0.3041451E-011  0.5052886E+02  0.7816164E-02  0.1300439E+00
        -11   -1    0    0    0    0  0.00000000000E+00  0.00000000000E+00  0.45593999997E+02  0.45594000000E+02  0.51100000000E-03 0.  1.
         11   -1    0    0    0    0 -0.00000000000E+00 -0.00000000000E+00 -0.45593999997E+02  0.45594000000E+02  0.51100000000E-03 0. -1.
    9900012    2    1    2    0    0 -0.22358449516E+02 -0.33305389248E+02  0.66344774701E+01  0.50528861924E+02  0.30000006305E+02 0.  0.
         12    1    1    2    0    0  0.22358449516E+02  0.33305389248E+02 -0.66344774701E+01  0.40659138076E+02  0.00000000000E+00 0. -1.
         11    1    3    3    0    0  0.55396726796E+01 -0.16185208052E+01 -0.32233244772E+00  0.57802665563E+01  0.51100000000E-03 0. -1.
        -11    1    3    3    0    0 -0.22604990492E+02 -0.22491864704E+02 -0.30825472803E+00  0.31889882318E+02  0.51100000000E-03 0.  1.
        -12    1    3    3    0    0 -0.52931317041E+01 -0.91950037389E+01  0.72650646459E+01  0.12858713050E+02  0.00000000000E+00 0.  1.
</event>
<event>
 7    1  0.3041451E-011  0.5052887E+02  0.7816164E-02  0.1300439E+00
        -11   -1    0    0    0    0  0.00000000000E+00  0.00000000000E+00  0.45593999997E+02  0.45594000000E+02  0.51100000000E-03 0.  1.
         11   -1    0    0    0    0 -0.00000000000E+00 -0.00000000000E+00 -0.45593999997E+02  0.45594000000E+02  0.51100000000E-03 0. -1.
    9900012    2    1    2    0    0  0.38845026904E+02 -0.10795165647E+02  0.52624546409E+01  0.50528866396E+02  0.30000019898E+02 0.  0.
         12    1    1    2    0    0 -0.38845026904E+02  0.10795165647E+02 -0.52624546409E+01  0.40659133604E+02  0.00000000000E+00 0. -1.
         11    1    3    3    0    0 -0.22963170831E+01  0.81367792295E+00 -0.45506933216E+01  0.51617781700E+01  0.51100000000E-03 0. -1.
        -11    1    3    3    0    0  0.37532442833E+02 -0.92213744959E+01  0.12066348310E+02  0.40488452359E+02  0.51100000000E-03 0.  1.
         12    1    3    3    0    0  0.36089011545E+01 -0.23874690743E+01 -0.22532003472E+01  0.48786358676E+01  0.00000000000E+00 0. -1.
</event>
<event>
 7    1  0.3041451E-011  0.5052886E+02  0.7816164E-02  0.1300439E+00
        -11   -1    0    0    0    0  0.00000000000E+00  0.00000000000E+00  0.45593999997E+02  0.45594000000E+02  0.51100000000E-03 0. -1.
         11   -1    0    0    0    0 -0.00000000000E+00 -0.00000000000E+00 -0.45593999997E+02  0.45594000000E+02  0.51100000000E-03 0.  1.
    9900012    2    1    2    0    0  0.29127940898E+02  0.22894752753E+02 -0.16749894607E+02  0.50528860635E+02  0.30000002385E+02 0.  0.
         12    1    1    2    0    0 -0.29127940898E+02 -0.22894752753E+02  0.16749894607E+02  0.40659139365E+02  0.00000000000E+00 0. -1.
         11    1    3    3    0    0  0.22681546388E+00  0.10515582916E+02 -0.56720842185E+00  0.10533311681E+02  0.51100000000E-03 0. -1.
        -11    1    3    3    0    0  0.23436049636E+02  0.15486255187E+02 -0.71423186332E+01  0.28984223950E+02  0.51100000000E-03 0.  1.
        -12    1    3    3    0    0  0.54650757979E+01 -0.31070853503E+01 -0.90403675523E+01  0.11011325003E+02  0.00000000000E+00 0.  1.
</event>
<event>
 7    1  0.3041451E-011  0.5052886E+02  0.7816164E-02  0.1300439E+00
        -11   -1    0    0    0    0  0.00000000000E+00  0.00000000000E+00  0.45593999997E+02  0.45594000000E+02  0.51100000000E-03 0.  1.
         11   -1    0    0    0    0 -0.00000000000E+00 -0.00000000000E+00 -0.45593999997E+02  0.45594000000E+02  0.51100000000E-03 0. -1.
    9900012    2    1    2    0    0  0.22155294294E+00  0.22370930455E+02  0.33950823706E+02  0.50528855328E+02  0.29999986255E+02 0.  0.
         12    1    1    2    0    0 -0.22155294294E+00 -0.22370930455E+02 -0.33950823706E+02  0.40659144672E+02  0.00000000000E+00 0. -1.
         11    1    3    3    0    0 -0.11283873499E+02  0.51373973594E+01  0.34507450066E+01  0.12869587955E+02  0.51100000000E-03 0. -1.
        -11    1    3    3    0    0  0.23402064880E+01  0.93543486329E+01  0.16959151718E+02  0.19508798836E+02  0.51100000000E-03 0.  1.
         12    1    3    3    0    0  0.91652199543E+01  0.78791844630E+01  0.13540926981E+02  0.18150468537E+02  0.00000000000E+00 0. -1.
</event>
<event>
 7    1  0.3041451E-011  0.5052885E+02  0.7816164E-02  0.1300439E+00
        -11   -1    0    0    0    0  0.00000000000E+00  0.00000000000E+00  0.45593999997E+02  0.45594000000E+02  0.51100000000E-03 0. -1.
         11   -1    0    0    0    0 -0.00000000000E+00 -0.00000000000E+00 -0.45593999997E+02  0.45594000000E+02  0.51100000000E-03 0.  1.
    9900012    2    1    2    0    0  0.22583991891E+02  0.96769511705E+01 -0.32395779802E+02  0.50528848230E+02  0.29999964680E+02 0.  0.
         12    1    1    2    0    0 -0.22583991891E+02 -0.96769511705E+01  0.32395779802E+02  0.40659151770E+02  0.00000000000E+00 0. -1.
         11    1    3    3    0    0  0.11896589450E+02  0.11630709061E+02 -0.29259888752E+02  0.33659223459E+02  0.51100000000E-03 0. -1.
        -11    1    3    3    0    0  0.12089414941E+02  0.12453195177E+00 -0.56270343096E+01  0.13335403151E+02  0.51100000000E-03 0.  1.
         12    1    3    3    0    0 -0.14020125000E+01 -0.20782898421E+01  0.24911432598E+01  0.35342216199E+01  0.00000000000E+00 0. -1.
</event>
<event>
 7    1  0.3041451E-011  0.5052886E+02  0.7816164E-02  0.1300439E+00
        -11   -1    0    0    0    0  0.00000000000E+00  0.00000000000E+00  0.45593999997E+02  0.45594000000E+02  0.51100000000E-03 0. -1.
         11   -1    0    0    0    0 -0.00000000000E+00 -0.00000000000E+00 -0.45593999997E+02  0.45594000000E+02  0.51100000000E-03 0.  1.
    9900012    2    1    2    0    0 -0.26473801718E+02 -0.19580280794E+02  0.23851957106E+02  0.50528862882E+02  0.30000009217E+02 0.  0.
         12    1    1    2    0    0  0.26473801718E+02  0.19580280794E+02 -0.23851957106E+02  0.40659137118E+02  0.00000000000E+00 0. -1.
         11    1    3    3    0    0 -0.12278306517E+02 -0.11816529960E+02  0.16468934258E+02  0.23698375199E+02  0.51100000000E-03 0. -1.
        -11    1    3    3    0    0 -0.83253901164E+01  0.11648370656E+01 -0.55356061420E+01  0.10065381344E+02  0.51100000000E-03 0.  1.
        -12    1    3    3    0    0 -0.58701050850E+01 -0.89285878998E+01  0.12918628990E+02  0.16765106339E+02  0.00000000000E+00 0.  1.
</event>
<event>
 7    1  0.3041451E-011  0.5052886E+02  0.7816164E-02  0.1300439E+00
        -11   -1    0    0    0    0  0.00000000000E+00  0.00000000000E+00  0.45593999997E+02  0.45594000000E+02  0.51100000000E-03 0.  1.
         11   -1    0    0    0    0 -0.00000000000E+00 -0.00000000000E+00 -0.45593999997E+02  0.45594000000E+02  0.51100000000E-03 0. -1.
    9900012    2    1    2    0    0 -0.25199585813E+02  0.11874511244E+02  0.29616592957E+02  0.50528859320E+02  0.29999998390E+02 0.  0.
         12    1    1    2    0    0  0.25199585813E+02 -0.11874511244E+02 -0.29616592957E+02  0.40659140680E+02  0.00000000000E+00 0. -1.
         11    1    3    3    0    0 -0.97468427164E+01 -0.31003026681E+01 -0.29014757617E+01  0.10631621769E+02  0.51100000000E-03 0. -1.
        -11    1    3    3    0    0 -0.57842239351E+01  0.11103027306E+02  0.20215665318E+02  0.23778300746E+02  0.51100000000E-03 0.  1.
         12    1    3    3    0    0 -0.96685191611E+01  0.38717866058E+01  0.12302403401E+02  0.16118936805E+02  0.00000000000E+00 0. -1.
</event>
<event>
 7    1  0.3041451E-011  0.5052887E+02  0.7816164E-02  0.1300439E+00
        -11   -1    0    0    0    0  0.00000000000E+00  0.00000000000E+00  0.45593999997E+02  0.45594000000E+02  0.51100000000E-03 0.  1.
         11   -1    0    0    0    0 -0.00000000000E+00 -0.00000000000E+00 -0.45593999997E+02  0.45594000000E+02  0.51100000000E-03 0. -1.
    9900012    2    1    2    0    0  0.61885291151E+01 -0.40103888673E+02  0.25583730049E+01  0.50528867548E+02  0.30000023398E+02 0.  0.
         12    1    1    2    0    0 -0.61885291151E+01  0.40103888673E+02 -0.25583730049E+01  0.40659132452E+02  0.00000000000E+00 0. -1.
         11    1    3    3    0    0  0.11989583995E+02 -0.11103212724E+02  0.80281617576E+01  0.18206670168E+02  0.51100000000E-03 0. -1.
        -11    1    3    3    0    0 -0.64873829227E+01 -0.25221614343E+02 -0.50803108702E+00  0.26047534684E+02  0.51100000000E-03 0.  1.
        -12    1    3    3    0    0  0.68632804331E+00 -0.37790616065E+01 -0.49617576657E+01  0.62746626955E+01  0.00000000000E+00 0.  1.
</event>
<event>
 7    1  0.3041451E-011  0.5052887E+02  0.7816164E-02  0.1300439E+00
        -11   -1    0    0    0    0  0.00000000000E+00  0.00000000000E+00  0.45593999997E+02  0.45594000000E+02  0.51100000000E-03 0.  1.
         11   -1    0    0    0    0 -0.00000000000E+00 -0.00000000000E+00 -0.45593999997E+02  0.45594000000E+02  0.51100000000E-03 0. -1.
    9900012    2    1    2    0    0  0.31521445994E+02  0.19436477626E+02  0.16786513390E+02  0.50528865087E+02  0.30000015919E+02 0.  0.
         12    1    1    2    0    0 -0.31521445994E+02 -0.19436477626E+02 -0.16786513390E+02  0.40659134913E+02  0.00000000000E+00 0. -1.
         11    1    3    3    0    0  0.58251589119E+01 -0.60064628707E+01  0.10960774983E+02  0.13789440201E+02  0.51100000000E-03 0. -1.
        -11    1    3    3    0    0  0.13043262283E+02  0.13727846315E+02  0.17230160763E+01  0.19014448193E+02  0.51100000000E-03 0.  1.
         12    1    3    3    0    0  0.12653024799E+02  0.11715094181E+02  0.41027223312E+01  0.17724976693E+02  0.00000000000E+00 0. -1.
</event>
<event>
 7    1  0.3041451E-011  0.5052888E+02  0.7816164E-02  0.1300439E+00
        -11   -1    0    0    0    0  0.00000000000E+00  0.00000000000E+00  0.45593999997E+02  0.45594000000E+02  0.51100000000E-03 0.  1.
         11   -1    0    0    0    0 -0.00000000000E+00 -0.00000000000E+00 -0.45593999997E+02  0.45594000000E+02  0.51100000000E-03 0. -1.
    9900012    2    1    2    0    0 -0.97193360135E+01  0.38915632343E+02 -0.66537572091E+01  0.50528875339E+02  0.30000047081E+02 0.  0.
         12    1    1    2    0    0  0.97193360135E+01 -0.38915632343E+02  0.66537572091E+01  0.40659124661E+02  0.00000000000E+00 0. -1.
         11    1    3    3    0    0 -0.11406239469E+02  0.53863664013E+01 -0.35581078871E+01  0.13106310459E+02  0.51100000000E-03 0. -1.
        -11    1    3    3    0    0  0.84662963987E+01  0.22468417020E+02  0.29973292978E+00  0.24012450482E+02  0.51100000000E-03 0.  1.
        -12    1    3    3    0    0 -0.67793929429E+01  0.11060848922E+02 -0.33953822518E+01  0.13410114398E+02  0.00000000000E+00 0.  1.
</event>
<event>
 7    1  0.3041451E-011  0.5052886E+02  0.7816164E-02  0.1300439E+00
        -11   -1    0    0    0    0  0.00000000000E+00  0.00000000000E+00  0.45593999997E+02  0.45594000000E+02  0.51100000000E-03 0.  1.
         11   -1    0    0    0    0 -0.00000000000E+00 -0.00000000000E+00 -0.45593999997E+02  0.45594000000E+02  0.51100000000E-03 0. -1.
    9900012    2    1    2    0    0 -0.16921879154E+02 -0.36119015590E+02  0.78887625430E+01  0.50528857661E+02  0.29999993345E+02 0.  0.
         12    1    1    2    0    0  0.16921879154E+02  0.36119015590E+02 -0.78887625430E+01  0.40659142339E+02  0.00000000000E+00 0. -1.
         11    1    3    3    0    0 -0.54291970593E+01 -0.32421148056E+02 -0.19538693208E+01  0.32930603206E+02  0.51100000000E-03 0. -1.
        -11    1    3    3    0    0 -0.79582231515E+01 -0.60770454486E+01  0.84902730233E+01  0.13128158035E+02  0.51100000000E-03 0.  1.
        -12    1    3    3    0    0 -0.35344589430E+01  0.23791779139E+01  0.13523588405E+01  0.44700964195E+01  0.00000000000E+00 0.  1.
</event>
<event>
 7    1  0.3041451E-011  0.5052886E+02  0.7816164E-02  0.1300439E+00
        -11   -1    0    0    0    0  0.00000000000E+00  0.00000000000E+00  0.45593999997E+02  0.45594000000E+02  0.51100000000E-03 0.  1.
         11   -1    0    0    0    0 -0.00000000000E+00 -0.00000000000E+00 -0.45593999997E+02  0.45594000000E+02  0.51100000000E-03 0. -1.
    9900012    2    1    2    0    0  0.59898756836E+01 -0.26959966388E+02 -0.29840364607E+02  0.50528858860E+02  0.29999996992E+02 0.  0.
         12    1    1    2    0    0 -0.59898756836E+01  0.26959966388E+02  0.29840364607E+02  0.40659141140E+02  0.00000000000E+00 0. -1.
         11    1    3    3    0    0 -0.80823093932E+01 -0.55650552330E+01 -0.16986355358E+02  0.19617080147E+02  0.51100000000E-03 0. -1.
        -11    1    3    3    0    0  0.78420658710E+01 -0.14174885108E+02 -0.17792868547E+01  0.16296969870E+02  0.51100000000E-03 0.  1.
        -12    1    3    3    0    0  0.62301192058E+01 -0.72200260464E+01 -0.11074722395E+02  0.14614808844E+02  0.00000000000E+00 0.  1.
</event>
<event>
 7    1  0.3041451E-011  0.5052886E+02  0.7816164E-02  0.1300439E+00
        -11   -1    0    0    0    0  0.00000000000E+00  0.00000000000E+00  0.45593999997E+02  0.45594000000E+02  0.51100000000E-03 0. -1.
         11   -1    0    0    0    0 -0.00000000000E+00 -0.00000000000E+00 -0.45593999997E+02  0.45594000000E+02  0.51100000000E-03 0.  1.
    9900012    2    1    2    0    0 -0.48549811774E+01 -0.37523980771E+02  0.14884407413E+02  0.50528861308E+02  0.30000004432E+02 0.  0.
         12    1    1    2    0    0  0.48549811774E+01  0.37523980771E+02 -0.14884407413E+02  0.40659138692E+02  0.00000000000E+00 0. -1.
         11    1    3    3    0    0  0.35533650632E+01 -0.34212118721E+02  0.12394507523E+02  0.36561171859E+02  0.51100000000E-03 0. -1.
        -11    1    3    3    0    0 -0.16588835348E+00 -0.20831497408E+01 -0.32392067346E+01  0.38548012036E+01  0.51100000000E-03 0.  1.
         12    1    3    3    0    0 -0.82424578872E+01 -0.12287123090E+01  0.57291066237E+01  0.10112888246E+02  0.00000000000E+00 0. -1.
</event>
<event>
 7    1  0.3041451E-011  0.5052894E+02  0.7816164E-02  0.1300439E+00
        -11   -1    0    0    0    0  0.00000000000E+00  0.00000000000E+00  0.45593999997E+02  0.45594000000E+02  0.51100000000E-03 0.  1.
         11   -1    0    0    0    0 -0.00000000000E+00 -0.00000000000E+00 -0.45593999997E+02  0.45594000000E+02  0.51100000000E-03 0. -1.
    9900012    2    1    2    0    0 -0.29438047509E+02 -0.59755632623E+01  0.27401699591E+02  0.50528940273E+02  0.30000244451E+02 0.  0.
         12    1    1    2    0    0  0.29438047509E+02  0.59755632623E+01 -0.27401699591E+02  0.40659059727E+02  0.00000000000E+00 0. -1.
         11    1    3    3    0    0 -0.31266972652E+01 -0.21178655161E+01  0.11883216834E+01  0.39590022502E+01  0.51100000000E-03 0. -1.
        -11    1    3    3    0    0 -0.27961442018E+02  0.12969999125E+01  0.10408554676E+02  0.29864066355E+02  0.51100000000E-03 0.  1.
        -12    1    3    3    0    0  0.16500917742E+01 -0.51546976588E+01  0.15804823231E+02  0.16705871668E+02  0.00000000000E+00 0.  1.
</event>
<event>
 7    1  0.3041451E-011  0.5052885E+02  0.7816164E-02  0.1300439E+00
        -11   -1    0    0    0    0  0.00000000000E+00  0.00000000000E+00  0.45593999997E+02  0.45594000000E+02  0.51100000000E-03 0. -1.
         11   -1    0    0    0    0 -0.00000000000E+00 -0.00000000000E+00 -0.45593999997E+02  0.45594000000E+02  0.51100000000E-03 0.  1.
    9900012    2    1    2    0    0 -0.83669137253E+01 -0.28660840901E+02 -0.27599227641E+02  0.50528850810E+02  0.29999972523E+02 0.  0.
         12    1    1    2    0    0  0.83669137253E+01  0.28660840901E+02  0.27599227641E+02  0.40659149190E+02  0.00000000000E+00 0. -1.
         11    1    3    3    0    0 -0.65055401344E+01 -0.20245964487E+02 -0.22295039278E+01  0.21382044301E+02  0.51100000000E-03 0.  1.
        -11    1    3    3    0    0  0.30456407129E+01 -0.76298772162E+00 -0.15138855575E+02  0.15461016331E+02  0.51100000000E-03 0. -1.
        -12    1    3    3    0    0 -0.49070143037E+01 -0.76518886922E+01 -0.10230868138E+02  0.13685790178E+02  0.00000000000E+00 0.  1.
</event>
<event>
 7    1  0.3041451E-011  0.5052885E+02  0.7816164E-02  0.1300439E+00
        -11   -1    0    0    0    0  0.00000000000E+00  0.00000000000E+00  0.45593999997E+02  0.45594000000E+02  0.51100000000E-03 0.  1.
         11   -1    0    0    0    0 -0.00000000000E+00 -0.00000000000E+00 -0.45593999997E+02  0.45594000000E+02  0.51100000000E-03 0. -1.
    9900012    2    1    2    0    0  0.22748462263E+02  0.16854568904E+02  0.29182140189E+02  0.50528851776E+02  0.29999975459E+02 0.  0.
         12    1    1    2    0    0 -0.22748462263E+02 -0.16854568904E+02 -0.29182140189E+02  0.40659148224E+02  0.00000000000E+00 0. -1.
         11    1    3    3    0    0 -0.26647182267E+01  0.82058874549E+01  0.22178335264E+01  0.89082039695E+01  0.51100000000E-03 0. -1.
        -11    1    3    3    0    0  0.11218444024E+02  0.30065528136E+01  0.23113954707E+02  0.25867890301E+02  0.51100000000E-03 0.  1.
         12    1    3    3    0    0  0.14194736465E+02  0.56421286350E+01  0.38503519553E+01  0.15752757506E+02  0.00000000000E+00 0. -1.
</event>
<event>
 7    1  0.3041451E-011  0.5052886E+02  0.7816164E-02  0.1300439E+00
        -11   -1    0    0    0    0  0.00000000000E+00  0.00000000000E+00  0.45593999997E+02  0.45594000000E+02  0.51100000000E-03 0. -1.
         11   -1    0    0    0    0 -0.00000000000E+00 -0.00000000000E+00 -0.45593999997E+02  0.45594000000E+02  0.51100000000E-03 0.  1.
    9900012    2    1    2    0    0  0.14975351540E+02 -0.37413990772E+02  0.53942692944E+01  0.50528855882E+02  0.29999987939E+02 0.  0.
         12    1    1    2    0    0 -0.14975351540E+02  0.37413990772E+02 -0.53942692944E+01  0.40659144118E+02  0.00000000000E+00 0. -1.
         11    1    3    3    0    0 -0.45685303778E+01 -0.20781355053E+02  0.55874185069E+01  0.21998987101E+02  0.51100000000E-03 0. -1.
        -11    1    3    3    0    0  0.15538449678E+02 -0.12987842797E+02 -0.54608626460E+01  0.20974949345E+02  0.51100000000E-03 0.  1.
         12    1    3    3    0    0  0.40054322401E+01 -0.36447929216E+01  0.52677134335E+01  0.75549194363E+01  0.00000000000E+00 0. -1.
</event>
<event>
 7    1  0.3041451E-011  0.5052886E+02  0.7816164E-02  0.1300439E+00
        -11   -1    0    0    0    0  0.00000000000E+00  0.00000000000E+00  0.45593999997E+02  0.45594000000E+02  0.51100000000E-03 0.  1.
         11   -1    0    0    0    0 -0.00000000000E+00 -0.00000000000E+00 -0.45593999997E+02  0.45594000000E+02  0.51100000000E-03 0. -1.
    9900012    2    1    2    0    0  0.29118007747E+02  0.22572387067E+02  0.17198682499E+02  0.50528859419E+02  0.29999998691E+02 0.  0.
         12    1    1    2    0    0 -0.29118007747E+02 -0.22572387067E+02 -0.17198682499E+02  0.40659140581E+02  0.00000000000E+00 0. -1.
         11    1    3    3    0    0  0.15272009158E+02 -0.22189699411E+01  0.10382359102E+02  0.18599770754E+02  0.51100000000E-03 0. -1.
        -11    1    3    3    0    0  0.33015231094E+01  0.98346003420E+01 -0.34666804225E+01  0.10937883348E+02  0.51100000000E-03 0.  1.
         12    1    3    3    0    0  0.10544475480E+02  0.14956756666E+02  0.10283003819E+02  0.20991205317E+02  0.00000000000E+00 0. -1.
</event>
<event>
 7    1  0.3041451E-011  0.5052885E+02  0.7816164E-02  0.1300439E+00
        -11   -1    0    0    0    0  0.00000000000E+00  0.00000000000E+00  0.45593999997E+02  0.45594000000E+02  0.51100000000E-03 0. -1.
         11   -1    0    0    0    0 -0.00000000000E+00 -0.00000000000E+00 -0.45593999997E+02  0.45594000000E+02  0.51100000000E-03 0.  1.
    9900012    2    1    2    0    0  0.39269506482E+02 -0.16695579133E+01 -0.10406006848E+02  0.50528849229E+02  0.29999967715E+02 0.  0.
         12    1    1    2    0    0 -0.39269506482E+02  0.16695579133E+01  0.10406006848E+02  0.40659150771E+02  0.00000000000E+00 0. -1.
         11    1    3    3    0    0  0.46629090269E+01  0.99389475853E+01  0.15561988241E+01  0.11088153802E+02  0.51100000000E-03 0. -1.
        -11    1    3    3    0    0  0.23033733839E+02 -0.45830564249E+01 -0.10809003076E+02  0.25853275393E+02  0.51100000000E-03 0.  1.
        -12    1    3    3    0    0  0.11572863616E+02 -0.70254490737E+01 -0.11532025965E+01  0.13587420034E+02  0.00000000000E+00 0.  1.
</event>
<event>
 7    1  0.3041451E-011  0.5052886E+02  0.7816164E-02  0.1300439E+00
        -11   -1    0    0    0    0  0.00000000000E+00  0.00000000000E+00  0.45593999997E+02  0.45594000000E+02  0.51100000000E-03 0. -1.
         11   -1    0    0    0    0 -0.00000000000E+00 -0.00000000000E+00 -0.45593999997E+02  0.45594000000E+02  0.51100000000E-03 0.  1.
    9900012    2    1    2    0    0 -0.71109301743E+01 -0.27621836772E+02  0.28976440751E+02  0.50528864333E+02  0.30000013627E+02 0.  0.
         12    1    1    2    0    0  0.71109301743E+01  0.27621836772E+02 -0.28976440751E+02  0.40659135667E+02  0.00000000000E+00 0. -1.
         11    1    3    3    0    0  0.46575777315E+01 -0.16638427633E+02  0.10825578487E+02  0.20389297542E+02  0.51100000000E-03 0. -1.
        -11    1    3    3    0    0 -0.10174949918E+02  0.23333027551E+01  0.99372550004E+01  0.14412596740E+02  0.51100000000E-03 0.  1.
        -12    1    3    3    0    0 -0.15935579882E+01 -0.13316711894E+02  0.82136072627E+01  0.15726970052E+02  0.00000000000E+00 0.  1.
</event>
<event>
 7    1  0.3041451E-011  0.5052884E+02  0.7816164E-02  0.1300439E+00
        -11   -1    0    0    0    0  0.00000000000E+00  0.00000000000E+00  0.45593999997E+02  0.45594000000E+02  0.51100000000E-03 0.  1.
         11   -1    0    0    0    0 -0.00000000000E+00 -0.00000000000E+00 -0.45593999997E+02  0.45594000000E+02  0.51100000000E-03 0. -1.
    9900012    2    1    2    0    0 -0.40121468579E+02 -0.18987587798E+00  0.65877737215E+01  0.50528842896E+02  0.29999948467E+02 0.  0.
         12    1    1    2    0    0  0.40121468579E+02  0.18987587798E+00 -0.65877737215E+01  0.40659157104E+02  0.00000000000E+00 0. -1.
         11    1    3    3    0    0 -0.14257090050E+02 -0.93098492795E+01 -0.60072087151E+01  0.18056147626E+02  0.51100000000E-03 0. -1.
        -11    1    3    3    0    0 -0.12257609414E+02  0.68330584438E+00  0.10820580063E+02  0.16364621859E+02  0.51100000000E-03 0.  1.
        -12    1    3    3    0    0 -0.13606769115E+02  0.84366675571E+01  0.17744023739E+01  0.16108073411E+02  0.00000000000E+00 0.  1.
</event>
<event>
 7    1  0.3041451E-011  0.5052886E+02  0.7816164E-02  0.1300439E+00
        -11   -1    0    0    0    0  0.00000000000E+00  0.00000000000E+00  0.45593999997E+02  0.45594000000E+02  0.51100000000E-03 0.  1.
         11   -1    0    0    0    0 -0.00000000000E+00 -0.00000000000E+00 -0.45593999997E+02  0.45594000000E+02  0.51100000000E-03 0. -1.
    9900012    2    1    2    0    0  0.20225367015E+02 -0.12220382689E+01  0.35250629696E+02  0.50528859055E+02  0.29999997584E+02 0.  0.
         12    1    1    2    0    0 -0.20225367015E+02  0.12220382689E+01 -0.35250629696E+02  0.40659140945E+02  0.00000000000E+00 0. -1.
         11    1    3    3    0    0  0.60909850380E+01 -0.12790975520E+01  0.42775991791E+01  0.75520887362E+01  0.51100000000E-03 0. -1.
        -11    1    3    3    0    0  0.38059717965E+01  0.12288353081E+02  0.19174038274E+02  0.23089668399E+02  0.51100000000E-03 0.  1.
        -12    1    3    3    0    0  0.10328410181E+02 -0.12231293798E+02  0.11798992243E+02  0.19887101920E+02  0.00000000000E+00 0.  1.
</event>
<event>
 7    1  0.3041451E-011  0.5052886E+02  0.7816164E-02  0.1300439E+00
        -11   -1    0    0    0    0  0.00000000000E+00  0.00000000000E+00  0.45593999997E+02  0.45594000000E+02  0.51100000000E-03 0.  1.
         11   -1    0    0    0    0 -0.00000000000E+00 -0.00000000000E+00 -0.45593999997E+02  0.45594000000E+02  0.51100000000E-03 0. -1.
    9900012    2    1    2    0    0  0.97611816548E+01 -0.38053686477E+02 -0.10478648988E+02  0.50528858268E+02  0.29999995190E+02 0.  0.
         12    1    1    2    0    0 -0.97611816548E+01  0.38053686477E+02  0.10478648988E+02  0.40659141732E+02  0.00000000000E+00 0. -1.
         11    1    3    3    0    0  0.47637074385E+01 -0.23401045604E+02 -0.18454467449E+02  0.30180609885E+02  0.51100000000E-03 0. -1.
        -11    1    3    3    0    0  0.49514460328E+01 -0.15491263250E+02  0.93338766984E+01  0.18751461527E+02  0.51100000000E-03 0.  1.
         12    1    3    3    0    0  0.46028183475E-01  0.83862237765E+00 -0.13580582379E+01  0.15967868560E+01  0.00000000000E+00 0. -1.
</event>
<event>
 7    1  0.3041451E-011  0.5052886E+02  0.7816164E-02  0.1300439E+00
        -11   -1    0    0    0    0  0.00000000000E+00  0.00000000000E+00  0.45593999997E+02  0.45594000000E+02  0.51100000000E-03 0.  1.
         11   -1    0    0    0    0 -0.00000000000E+00 -0.00000000000E+00 -0.45593999997E+02  0.45594000000E+02  0.51100000000E-03 0. -1.
    9900012    2    1    2    0    0 -0.35289397622E+02 -0.14925285920E+02  0.13603665419E+02  0.50528862563E+02  0.30000008247E+02 0.  0.
         12    1    1    2    0    0  0.35289397622E+02  0.14925285920E+02 -0.13603665419E+02  0.40659137437E+02  0.00000000000E+00 0. -1.
         11    1    3    3    0    0  0.52125811762E+01 -0.27870536887E+00  0.67573945816E+00  0.52635827416E+01  0.51100000000E-03 0. -1.
        -11    1    3    3    0    0 -0.15813051371E+02 -0.67796689673E+01  0.27377525873E+01  0.17421589895E+02  0.51100000000E-03 0.  1.
         12    1    3    3    0    0 -0.24688927427E+02 -0.78669115833E+01  0.10190173373E+02  0.27843689927E+02  0.00000000000E+00 0. -1.
</event>
<event>
 7    1  0.3041451E-011  0.5052888E+02  0.7816164E-02  0.1300439E+00
        -11   -1    0    0    0    0  0.00000000000E+00  0.00000000000E+00  0.45593999997E+02  0.45594000000E+02  0.51100000000E-03 0.  1.
         11   -1    0    0    0    0 -0.00000000000E+00 -0.00000000000E+00 -0.45593999997E+02  0.45594000000E+02  0.51100000000E-03 0. -1.
    9900012    2    1    2    0    0  0.41354466459E+01 -0.31571133912E+01  0.40324867659E+02  0.50528877584E+02  0.30000053905E+02 0.  0.
         12    1    1    2    0    0 -0.41354466459E+01  0.31571133912E+01 -0.40324867659E+02  0.40659122416E+02  0.00000000000E+00 0. -1.
         11    1    3    3    0    0  0.55382557988E+01  0.48966942272E+01  0.35544197330E+00  0.74010966016E+01  0.51100000000E-03 0. -1.
        -11    1    3    3    0    0  0.45657318085E+01 -0.87666944590E+01  0.28716746503E+02  0.30370254669E+02  0.51100000000E-03 0.  1.
        -12    1    3    3    0    0 -0.59685409614E+01  0.71288684053E+00  0.11252679183E+02  0.12757526314E+02  0.00000000000E+00 0.  1.
</event>
<event>
 7    1  0.3041451E-011  0.5052886E+02  0.7816164E-02  0.1300439E+00
        -11   -1    0    0    0    0  0.00000000000E+00  0.00000000000E+00  0.45593999997E+02  0.45594000000E+02  0.51100000000E-03 0. -1.
         11   -1    0    0    0    0 -0.00000000000E+00 -0.00000000000E+00 -0.45593999997E+02  0.45594000000E+02  0.51100000000E-03 0.  1.
    9900012    2    1    2    0    0  0.52622358234E+01 -0.82523465820E+01 -0.39463574027E+02  0.50528855580E+02  0.29999987020E+02 0.  0.
         12    1    1    2    0    0 -0.52622358234E+01  0.82523465820E+01  0.39463574027E+02  0.40659144420E+02  0.00000000000E+00 0. -1.
         11    1    3    3    0    0 -0.44242319349E+01 -0.35510798951E+01 -0.49572466809E-01  0.56733107024E+01  0.51100000000E-03 0. -1.
        -11    1    3    3    0    0  0.99519905659E+01 -0.10968978124E+02 -0.23847212099E+02  0.28072230450E+02  0.51100000000E-03 0.  1.
        -12    1    3    3    0    0 -0.26552280765E+00  0.62677114369E+01 -0.15566789462E+02  0.16783314427E+02  0.00000000000E+00 0.  1.
</event>
<event>
 7    1  0.3041451E-011  0.5052882E+02  0.7816164E-02  0.1300439E+00
        -11   -1    0    0    0    0  0.00000000000E+00  0.00000000000E+00  0.45593999997E+02  0.45594000000E+02  0.51100000000E-03 0.  1.
         11   -1    0    0    0    0 -0.00000000000E+00 -0.00000000000E+00 -0.45593999997E+02  0.45594000000E+02  0.51100000000E-03 0. -1.
    9900012    2    1    2    0    0  0.31893912588E+02 -0.24508899090E+02 -0.59381037530E+01  0.50528820582E+02  0.29999880639E+02 0.  0.
         12    1    1    2    0    0 -0.31893912588E+02  0.24508899090E+02  0.59381037530E+01  0.40659179418E+02  0.00000000000E+00 0. -1.
         11    1    3    3    0    0  0.15090451981E+02 -0.66868662459E+00  0.37451968662E+01  0.15562627754E+02  0.51100000000E-03 0. -1.
        -11    1    3    3    0    0  0.12240743380E+02 -0.16259699799E+02  0.18430943704E+01  0.20435523805E+02  0.51100000000E-03 0.  1.
         12    1    3    3    0    0  0.45627172273E+01 -0.75805126660E+01 -0.11526394990E+02  0.14530669022E+02  0.00000000000E+00 0. -1.
</event>
<event>
 7    1  0.3041451E-011  0.5052886E+02  0.7816164E-02  0.1300439E+00
        -11   -1    0    0    0    0  0.00000000000E+00  0.00000000000E+00  0.45593999997E+02  0.45594000000E+02  0.51100000000E-03 0.  1.
         11   -1    0    0    0    0 -0.00000000000E+00 -0.00000000000E+00 -0.45593999997E+02  0.45594000000E+02  0.51100000000E-03 0. -1.
    9900012    2    1    2    0    0 -0.36421229844E+02  0.11059281106E+02  0.14295163159E+02  0.50528863614E+02  0.30000011441E+02 0.  0.
         12    1    1    2    0    0  0.36421229844E+02 -0.11059281106E+02 -0.14295163159E+02  0.40659136386E+02  0.00000000000E+00 0. -1.
         11    1    3    3    0    0 -0.57877985674E+01  0.29111000909E+00 -0.40162913262E+01  0.70508122633E+01  0.51100000000E-03 0. -1.
        -11    1    3    3    0    0 -0.21540119310E+02  0.12595845772E+02  0.22220958588E+02  0.33412618446E+02  0.51100000000E-03 0.  1.
        -12    1    3    3    0    0 -0.90933119667E+01 -0.18276746748E+01 -0.39095041025E+01  0.10065432905E+02  0.00000000000E+00 0.  1.
</event>
<event>
 7    1  0.3041451E-011  0.5052886E+02  0.7816164E-02  0.1300439E+00
        -11   -1    0    0    0    0  0.00000000000E+00  0.00000000000E+00  0.45593999997E+02  0.45594000000E+02  0.51100000000E-03 0.  1.
         11   -1    0    0    0    0 -0.00000000000E+00 -0.00000000000E+00 -0.45593999997E+02  0.45594000000E+02  0.51100000000E-03 0. -1.
    9900012    2    1    2    0    0 -0.57913163929E+01  0.22614774843E+02  0.33289608824E+02  0.50528862744E+02  0.30000008796E+02 0.  0.
         12    1    1    2    0    0  0.57913163929E+01 -0.22614774843E+02 -0.33289608824E+02  0.40659137256E+02  0.00000000000E+00 0. -1.
         11    1    3    3    0    0  0.37210451278E-01 -0.51730482573E+01 -0.34214823889E+00  0.51844844072E+01  0.51100000000E-03 0. -1.
        -11    1    3    3    0    0  0.22155429836E+01  0.10382715496E+02  0.16564342944E+02  0.19674523354E+02  0.51100000000E-03 0.  1.
         12    1    3    3    0    0 -0.80440698277E+01  0.17405107604E+02  0.17067414119E+02  0.25669854982E+02  0.00000000000E+00 0. -1.
</event>
<event>
 7    1  0.3041451E-011  0.5052880E+02  0.7816164E-02  0.1300439E+00
        -11   -1    0    0    0    0  0.00000000000E+00  0.00000000000E+00  0.45593999997E+02  0.45594000000E+02  0.51100000000E-03 0. -1.
         11   -1    0    0    0    0 -0.00000000000E+00 -0.00000000000E+00 -0.45593999997E+02  0.45594000000E+02  0.51100000000E-03 0.  1.
    9900012    2    1    2    0    0 -0.29835650304E+01  0.33911929184E+02 -0.22231734826E+02  0.50528798893E+02  0.29999814714E+02 0.  0.
         12    1    1    2    0    0  0.29835650304E+01 -0.33911929184E+02  0.22231734826E+02  0.40659201107E+02  0.00000000000E+00 0. -1.
         11    1    3    3    0    0 -0.76034804304E+01  0.16930917774E+01  0.76529508704E+00  0.78272058395E+01  0.51100000000E-03 0. -1.
        -11    1    3    3    0    0 -0.40088398324E+01  0.18395083831E+02 -0.16910012698E+02  0.25306094832E+02  0.51100000000E-03 0.  1.
        -12    1    3    3    0    0  0.86287552324E+01  0.13823753576E+02 -0.60870172153E+01  0.17395498221E+02  0.00000000000E+00 0.  1.
</event>
<event>
 7    1  0.3041451E-011  0.5052886E+02  0.7816164E-02  0.1300439E+00
        -11   -1    0    0    0    0  0.00000000000E+00  0.00000000000E+00  0.45593999997E+02  0.45594000000E+02  0.51100000000E-03 0.  1.
         11   -1    0    0    0    0 -0.00000000000E+00 -0.00000000000E+00 -0.45593999997E+02  0.45594000000E+02  0.51100000000E-03 0. -1.
    9900012    2    1    2    0    0  0.33191841448E+02 -0.32000358859E+01  0.23264285447E+02  0.50528861473E+02  0.30000004933E+02 0.  0.
         12    1    1    2    0    0 -0.33191841448E+02  0.32000358859E+01 -0.23264285447E+02  0.40659138527E+02  0.00000000000E+00 0. -1.
         11    1    3    3    0    0  0.23789579653E+02  0.79684086355E+01  0.28178969244E+01  0.25246389437E+02  0.51100000000E-03 0. -1.
        -11    1    3    3    0    0  0.20485355363E+01 -0.42716378635E+01  0.55782667476E+01  0.73185003962E+01  0.51100000000E-03 0.  1.
         12    1    3    3    0    0  0.73537262589E+01 -0.68968066579E+01  0.14868121775E+02  0.17963971640E+02  0.00000000000E+00 0. -1.
</event>
<event>
 7    1  0.3041451E-011  0.5052886E+02  0.7816164E-02  0.1300439E+00
        -11   -1    0    0    0    0  0.00000000000E+00  0.00000000000E+00  0.45593999997E+02  0.45594000000E+02  0.51100000000E-03 0. -1.
         11   -1    0    0    0    0 -0.00000000000E+00 -0.00000000000E+00 -0.45593999997E+02  0.45594000000E+02  0.51100000000E-03 0.  1.
    9900012    2    1    2    0    0 -0.19090556281E+02  0.56045466688E+00 -0.35894322835E+02  0.50528857605E+02  0.29999993175E+02 0.  0.
         12    1    1    2    0    0  0.19090556281E+02 -0.56045466688E+00  0.35894322835E+02  0.40659142395E+02  0.00000000000E+00 0. -1.
         11    1    3    3    0    0  0.14320377794E+00 -0.90695075447E+00  0.36597697799E+01  0.37731925601E+01  0.51100000000E-03 0. -1.
        -11    1    3    3    0    0 -0.17590726526E+02  0.67338464915E+01 -0.25863158720E+02  0.31995020355E+02  0.51100000000E-03 0.  1.
        -12    1    3    3    0    0 -0.16430335327E+01 -0.52664410701E+01 -0.13690933895E+02  0.14760644689E+02  0.00000000000E+00 0.  1.
</event>
<event>
 7    1  0.3041451E-011  0.5052887E+02  0.7816164E-02  0.1300439E+00
        -11   -1    0    0    0    0  0.00000000000E+00  0.00000000000E+00  0.45593999997E+02  0.45594000000E+02  0.51100000000E-03 0.  1.
         11   -1    0    0    0    0 -0.00000000000E+00 -0.00000000000E+00 -0.45593999997E+02  0.45594000000E+02  0.51100000000E-03 0. -1.
    9900012    2    1    2    0    0 -0.28700596552E+02  0.25628698216E+02  0.13138144324E+02  0.50528865098E+02  0.30000015953E+02 0.  0.
         12    1    1    2    0    0  0.28700596552E+02 -0.25628698216E+02 -0.13138144324E+02  0.40659134902E+02  0.00000000000E+00 0. -1.
         11    1    3    3    0    0  0.11850638088E+01 -0.17987436238E+01 -0.30469380632E+01  0.37314456551E+01  0.51100000000E-03 0. -1.
        -11    1    3    3    0    0 -0.32002942256E+02  0.26525219073E+02  0.14867277886E+02  0.44145345303E+02  0.51100000000E-03 0.  1.
        -12    1    3    3    0    0  0.21172818947E+01  0.90222276589E+00  0.13178045014E+01  0.26520741402E+01  0.00000000000E+00 0.  1.
</event>
<event>
 7    1  0.3041451E-011  0.5052884E+02  0.7816164E-02  0.1300439E+00
        -11   -1    0    0    0    0  0.00000000000E+00  0.00000000000E+00  0.45593999997E+02  0.45594000000E+02  0.51100000000E-03 0. -1.
         11   -1    0    0    0    0 -0.00000000000E+00 -0.00000000000E+00 -0.45593999997E+02  0.45594000000E+02  0.51100000000E-03 0.  1.
    9900012    2    1    2    0    0 -0.33852096118E+02  0.22408093042E+02  0.22538992638E+01  0.50528842271E+02  0.29999946567E+02 0.  0.
         12    1    1    2    0    0  0.33852096118E+02 -0.22408093042E+02 -0.22538992638E+01  0.40659157729E+02  0.00000000000E+00 0. -1.
         11    1    3    3    0    0 -0.10287739273E+02  0.31982433878E+01  0.60616766248E+01  0.12361644870E+02  0.51100000000E-03 0. -1.
        -11    1    3    3    0    0 -0.16483069666E+02  0.22946971540E+02 -0.76720972650E+01  0.29276546333E+02  0.51100000000E-03 0.  1.
        -12    1    3    3    0    0 -0.70812871786E+01 -0.37371218862E+01  0.38643199040E+01  0.88906510683E+01  0.00000000000E+00 0.  1.
</event>
<event>
 7    1  0.3041451E-011  0.5052886E+02  0.7816164E-02  0.1300439E+00
        -11   -1    0    0    0    0  0.00000000000E+00  0.00000000000E+00  0.45593999997E+02  0.45594000000E+02  0.51100000000E-03 0.  1.
         11   -1    0    0    0    0 -0.00000000000E+00 -0.00000000000E+00 -0.45593999997E+02  0.45594000000E+02  0.51100000000E-03 0. -1.
    9900012    2    1    2    0    0 -0.22794895188E+02  0.75702744972E+01  0.32806241470E+02  0.50528858568E+02  0.29999996105E+02 0.  0.
         12    1    1    2    0    0  0.22794895188E+02 -0.75702744972E+01 -0.32806241470E+02  0.40659141432E+02  0.00000000000E+00 0. -1.
         11    1    3    3    0    0 -0.23458227285E+02  0.15615933876E+02  0.26608634097E+02  0.38757776341E+02  0.51100000000E-03 0.  1.
        -11    1    3    3    0    0  0.21505613014E+01 -0.67314789594E+01  0.23594324276E+01  0.74501439270E+01  0.51100000000E-03 0. -1.
        -12    1    3    3    0    0 -0.14872292045E+01 -0.13141804198E+01  0.38381749453E+01  0.43209383001E+01  0.00000000000E+00 0.  1.
</event>
<event>
 7    1  0.3041451E-011  0.5052886E+02  0.7816164E-02  0.1300439E+00
        -11   -1    0    0    0    0  0.00000000000E+00  0.00000000000E+00  0.45593999997E+02  0.45594000000E+02  0.51100000000E-03 0.  1.
         11   -1    0    0    0    0 -0.00000000000E+00 -0.00000000000E+00 -0.45593999997E+02  0.45594000000E+02  0.51100000000E-03 0. -1.
    9900012    2    1    2    0    0  0.36432382361E+02 -0.94740934667E+00  0.18026367176E+02  0.50528856102E+02  0.29999988607E+02 0.  0.
         12    1    1    2    0    0 -0.36432382361E+02  0.94740934667E+00 -0.18026367176E+02  0.40659143898E+02  0.00000000000E+00 0. -1.
         11    1    3    3    0    0  0.83039907833E+01 -0.11155451723E+02  0.33250407120E+00  0.13910820439E+02  0.51100000000E-03 0. -1.
        -11    1    3    3    0    0  0.18360663454E+02  0.35943636280E+01  0.16161028207E+02  0.24722707079E+02  0.51100000000E-03 0.  1.
        -12    1    3    3    0    0  0.97677281242E+01  0.66136787483E+01  0.15328348977E+01  0.11895328584E+02  0.00000000000E+00 0.  1.
</event>
<event>
 7    1  0.3041451E-011  0.5052883E+02  0.7816164E-02  0.1300439E+00
        -11   -1    0    0    0    0  0.00000000000E+00  0.00000000000E+00  0.45593999997E+02  0.45594000000E+02  0.51100000000E-03 0.  1.
         11   -1    0    0    0    0 -0.00000000000E+00 -0.00000000000E+00 -0.45593999997E+02  0.45594000000E+02  0.51100000000E-03 0. -1.
    9900012    2    1    2    0    0 -0.52247784097E+01  0.34299617879E+02  0.21199195871E+02  0.50528831272E+02  0.29999913134E+02 0.  0.
         12    1    1    2    0    0  0.52247784097E+01 -0.34299617879E+02 -0.21199195871E+02  0.40659168728E+02  0.00000000000E+00 0. -1.
         11    1    3    3    0    0  0.20172102176E+01 -0.93219351948E+00  0.10293780903E+02  0.10530909142E+02  0.51100000000E-03 0. -1.
        -11    1    3    3    0    0 -0.10609216657E+02  0.27501851846E+02  0.55097494673E+01  0.29987742037E+02  0.51100000000E-03 0.  1.
        -12    1    3    3    0    0  0.33672280297E+01  0.77299595524E+01  0.53956655015E+01  0.10010180093E+02  0.00000000000E+00 0.  1.
</event>
<event>
 7    1  0.3041451E-011  0.5052886E+02  0.7816164E-02  0.1300439E+00
        -11   -1    0    0    0    0  0.00000000000E+00  0.00000000000E+00  0.45593999997E+02  0.45594000000E+02  0.51100000000E-03 0. -1.
         11   -1    0    0    0    0 -0.00000000000E+00 -0.00000000000E+00 -0.45593999997E+02  0.45594000000E+02  0.51100000000E-03 0.  1.
    9900012    2    1    2    0    0  0.15226833776E+02 -0.37348522903E+02  0.51378109457E+01  0.50528859193E+02  0.29999998002E+02 0.  0.
         12    1    1    2    0    0 -0.15226833776E+02  0.37348522903E+02 -0.51378109457E+01  0.40659140807E+02  0.00000000000E+00 0. -1.
         11    1    3    3    0    0  0.33485289663E+01  0.29993100018E+01  0.16818325829E+01  0.47996945551E+01  0.51100000000E-03 0. -1.
        -11    1    3    3    0    0  0.92129758963E+00 -0.28650896109E+02 -0.21586512526E+01  0.28746867874E+02  0.51100000000E-03 0.  1.
        -12    1    3    3    0    0  0.10957007220E+02 -0.11696936796E+02  0.56146296155E+01  0.16982296763E+02  0.00000000000E+00 0.  1.
</event>
<event>
 7    1  0.3041451E-011  0.5052886E+02  0.7816164E-02  0.1300439E+00
        -11   -1    0    0    0    0  0.00000000000E+00  0.00000000000E+00  0.45593999997E+02  0.45594000000E+02  0.51100000000E-03 0.  1.
         11   -1    0    0    0    0 -0.00000000000E+00 -0.00000000000E+00 -0.45593999997E+02  0.45594000000E+02  0.51100000000E-03 0. -1.
    9900012    2    1    2    0    0 -0.20631728679E+02 -0.32170460068E+02  0.13876558499E+02  0.50528860744E+02  0.30000002718E+02 0.  0.
         12    1    1    2    0    0  0.20631728679E+02  0.32170460068E+02 -0.13876558499E+02  0.40659139256E+02  0.00000000000E+00 0. -1.
         11    1    3    3    0    0 -0.46778489592E+01 -0.29473051226E+02  0.48108771082E+01  0.30227265147E+02  0.51100000000E-03 0. -1.
        -11    1    3    3    0    0  0.90327969531E+00 -0.47139877508E+00  0.11785205395E+01  0.15578966385E+01  0.51100000000E-03 0.  1.
         12    1    3    3    0    0 -0.16857159415E+02 -0.22260100668E+01  0.78871608509E+01  0.18743698958E+02  0.00000000000E+00 0. -1.
</event>
<event>
 7    1  0.3041451E-011  0.5052884E+02  0.7816164E-02  0.1300439E+00
        -11   -1    0    0    0    0  0.00000000000E+00  0.00000000000E+00  0.45593999997E+02  0.45594000000E+02  0.51100000000E-03 0.  1.
         11   -1    0    0    0    0 -0.00000000000E+00 -0.00000000000E+00 -0.45593999997E+02  0.45594000000E+02  0.51100000000E-03 0. -1.
    9900012    2    1    2    0    0  0.32103848263E+02  0.16286316652E+02  0.18901494671E+02  0.50528835176E+02  0.29999925002E+02 0.  0.
         12    1    1    2    0    0 -0.32103848263E+02 -0.16286316652E+02 -0.18901494671E+02  0.40659164824E+02  0.00000000000E+00 0. -1.
         11    1    3    3    0    0  0.98332657348E+01 -0.46312157277E+01  0.98797858498E+01  0.14688479936E+02  0.51100000000E-03 0. -1.
        -11    1    3    3    0    0  0.18790988781E+02  0.17733267837E+02  0.13659181661E+02  0.29225729955E+02  0.51100000000E-03 0.  1.
        -12    1    3    3    0    0  0.34795937476E+01  0.31842645425E+01 -0.46374728395E+01  0.66146252851E+01  0.00000000000E+00 0.  1.
</event>
<event>
 7    1  0.3041451E-011  0.5052886E+02  0.7816164E-02  0.1300439E+00
        -11   -1    0    0    0    0  0.00000000000E+00  0.00000000000E+00  0.45593999997E+02  0.45594000000E+02  0.51100000000E-03 0.  1.
         11   -1    0    0    0    0 -0.00000000000E+00 -0.00000000000E+00 -0.45593999997E+02  0.45594000000E+02  0.51100000000E-03 0. -1.
    9900012    2    1    2    0    0 -0.24606850731E+02  0.23423128623E+02  0.22338877390E+02  0.50528862031E+02  0.30000006629E+02 0.  0.
         12    1    1    2    0    0  0.24606850731E+02 -0.23423128623E+02 -0.22338877390E+02  0.40659137969E+02  0.00000000000E+00 0. -1.
         11    1    3    3    0    0 -0.13864870105E+02  0.35906742624E+01 -0.36701588238E+01  0.14785047539E+02  0.51100000000E-03 0. -1.
        -11    1    3    3    0    0 -0.87529770029E+01  0.14279378890E+02  0.24461031068E+02  0.29645527640E+02  0.51100000000E-03 0.  1.
        -12    1    3    3    0    0 -0.19890036229E+01  0.55530754706E+01  0.15480051453E+01  0.60982868516E+01  0.00000000000E+00 0.  1.
</event>
<event>
 7    1  0.3041451E-011  0.5052885E+02  0.7816164E-02  0.1300439E+00
        -11   -1    0    0    0    0  0.00000000000E+00  0.00000000000E+00  0.45593999997E+02  0.45594000000E+02  0.51100000000E-03 0. -1.
         11   -1    0    0    0    0 -0.00000000000E+00 -0.00000000000E+00 -0.45593999997E+02  0.45594000000E+02  0.51100000000E-03 0.  1.
    9900012    2    1    2    0    0 -0.26723517640E+02 -0.24358322273E+02 -0.18592796493E+02  0.50528851701E+02  0.29999975230E+02 0.  0.
         12    1    1    2    0    0  0.26723517640E+02  0.24358322273E+02  0.18592796493E+02  0.40659148299E+02  0.00000000000E+00 0. -1.
         11    1    3    3    0    0 -0.20149424570E+02 -0.49913413350E+01 -0.23074987820E+01  0.20886295739E+02  0.51100000000E-03 0. -1.
        -11    1    3    3    0    0 -0.10002091153E+01 -0.19138619967E+02 -0.13161640469E+02  0.23248999390E+02  0.51100000000E-03 0.  1.
        -12    1    3    3    0    0 -0.55738839545E+01 -0.22836097032E+00 -0.31236572418E+01  0.63935565717E+01  0.00000000000E+00 0.  1.
</event>
<event>
 7    1  0.3041451E-011  0.5052892E+02  0.7816164E-02  0.1300439E+00
        -11   -1    0    0    0    0  0.00000000000E+00  0.00000000000E+00  0.45593999997E+02  0.45594000000E+02  0.51100000000E-03 0. -1.
         11   -1    0    0    0    0 -0.00000000000E+00 -0.00000000000E+00 -0.45593999997E+02  0.45594000000E+02  0.51100000000E-03 0.  1.
    9900012    2    1    2    0    0  0.18302015013E+02  0.32403908246E+02 -0.16376328709E+02  0.50528915343E+02  0.30000168676E+02 0.  0.
         12    1    1    2    0    0 -0.18302015013E+02 -0.32403908246E+02  0.16376328709E+02  0.40659084657E+02  0.00000000000E+00 0. -1.
         11    1    3    3    0    0  0.13481427812E+01  0.40850582344E+00  0.65680018474E+01  0.67173666340E+01  0.51100000000E-03 0. -1.
        -11    1    3    3    0    0  0.86874797376E+00  0.10018976482E+02 -0.70070214197E+01  0.12256955667E+02  0.51100000000E-03 0.  1.
         12    1    3    3    0    0  0.16085124258E+02  0.21976425941E+02 -0.15937309136E+02  0.31554593042E+02  0.00000000000E+00 0. -1.
</event>
<event>
 7    1  0.3041451E-011  0.5052889E+02  0.7816164E-02  0.1300439E+00
        -11   -1    0    0    0    0  0.00000000000E+00  0.00000000000E+00  0.45593999997E+02  0.45594000000E+02  0.51100000000E-03 0.  1.
         11   -1    0    0    0    0 -0.00000000000E+00 -0.00000000000E+00 -0.45593999997E+02  0.45594000000E+02  0.51100000000E-03 0. -1.
    9900012    2    1    2    0    0  0.26135308530E+02  0.11447947122E+02  0.28966422585E+02  0.50528886844E+02  0.30000082050E+02 0.  0.
         12    1    1    2    0    0 -0.26135308530E+02 -0.11447947122E+02 -0.28966422585E+02  0.40659113156E+02  0.00000000000E+00 0. -1.
         11    1    3    3    0    0 -0.67725820544E+01  0.24192082167E+01  0.47446767649E+01  0.86158223023E+01  0.51100000000E-03 0. -1.
        -11    1    3    3    0    0  0.18066985724E+02  0.61692451755E+01  0.13428764035E+02  0.23341106721E+02  0.51100000000E-03 0.  1.
         12    1    3    3    0    0  0.14840904861E+02  0.28594937294E+01  0.10792981785E+02  0.18571957821E+02  0.00000000000E+00 0. -1.
</event>
<event>
 7    1  0.3041451E-011  0.5052886E+02  0.7816164E-02  0.1300439E+00
        -11   -1    0    0    0    0  0.00000000000E+00  0.00000000000E+00  0.45593999997E+02  0.45594000000E+02  0.51100000000E-03 0. -1.
         11   -1    0    0    0    0 -0.00000000000E+00 -0.00000000000E+00 -0.45593999997E+02  0.45594000000E+02  0.51100000000E-03 0.  1.
    9900012    2    1    2    0    0 -0.32792570425E+02  0.23834187599E+02 -0.31216801548E+01  0.50528855142E+02  0.29999985690E+02 0.  0.
         12    1    1    2    0    0  0.32792570425E+02 -0.23834187599E+02  0.31216801548E+01  0.40659144858E+02  0.00000000000E+00 0. -1.
         11    1    3    3    0    0  0.40063100996E+01  0.61636526075E+01  0.37758919507E+01  0.82642903122E+01  0.51100000000E-03 0. -1.
        -11    1    3    3    0    0 -0.13861145944E+02  0.56212354369E+01  0.14880309840E+01  0.15031430111E+02  0.51100000000E-03 0.  1.
         12    1    3    3    0    0 -0.22937734581E+02  0.12049299554E+02 -0.83856030895E+01  0.27233134719E+02  0.00000000000E+00 0. -1.
</event>
<event>
 7    1  0.3041451E-011  0.5052886E+02  0.7816164E-02  0.1300439E+00
        -11   -1    0    0    0    0  0.00000000000E+00  0.00000000000E+00  0.45593999997E+02  0.45594000000E+02  0.51100000000E-03 0.  1.
         11   -1    0    0    0    0 -0.00000000000E+00 -0.00000000000E+00 -0.45593999997E+02  0.45594000000E+02  0.51100000000E-03 0. -1.
    9900012    2    1    2    0    0 -0.28996216806E+02  0.21268233975E+02  0.18974922997E+02  0.50528855048E+02  0.29999985405E+02 0.  0.
         12    1    1    2    0    0  0.28996216806E+02 -0.21268233975E+02 -0.18974922997E+02  0.40659144952E+02  0.00000000000E+00 0. -1.
         11    1    3    3    0    0 -0.18605289174E+01  0.12086740936E+02  0.19952068806E+01  0.12390791947E+02  0.51100000000E-03 0. -1.
        -11    1    3    3    0    0 -0.27346896343E+02  0.28923905959E+01  0.11549423486E+02  0.29826294542E+02  0.51100000000E-03 0.  1.
         12    1    3    3    0    0  0.21120845502E+00  0.62891024428E+01  0.54302926299E+01  0.83117685599E+01  0.00000000000E+00 0. -1.
</event>
<event>
 7    1  0.3166382E-011  0.5052886E+02  0.7816164E-02  0.1300439E+00
        -11   -1    0    0    0    0  0.00000000000E+00  0.00000000000E+00  0.45593999997E+02  0.45594000000E+02  0.51100000000E-03 0.  1.
         11   -1    0    0    0    0 -0.00000000000E+00 -0.00000000000E+00 -0.45593999997E+02  0.45594000000E+02  0.51100000000E-03 0. -1.
    9900012    2    1    2    0    0 -0.13827369793E+02 -0.26704426730E+02  0.27364997480E+02  0.50528860198E+02  0.30000001057E+02 0.  0.
         12    1    1    2    0    0  0.13827369793E+02  0.26704426730E+02 -0.27364997480E+02  0.40659139802E+02  0.00000000000E+00 0. -1.
         11    1    3    3    0    0 -0.10809971780E+02 -0.91174332164E+01 -0.17285390162E-01  0.14141547913E+02  0.51100000000E-03 0. -1.
        -11    1    3    3    0    0 -0.55805648022E+01 -0.61204185098E+01  0.21915104050E+02  0.23428060356E+02  0.51100000000E-03 0.  1.
         12    1    3    3    0    0  0.25631667884E+01 -0.11466575004E+02  0.54671788196E+01  0.12959251929E+02  0.00000000000E+00 0. -1.
</event>
<event>
 7    1  0.3285990E-011  0.5052885E+02  0.7816164E-02  0.1300439E+00
        -11   -1    0    0    0    0  0.00000000000E+00  0.00000000000E+00  0.45593999997E+02  0.45594000000E+02  0.51100000000E-03 0. -1.
         11   -1    0    0    0    0 -0.00000000000E+00 -0.00000000000E+00 -0.45593999997E+02  0.45594000000E+02  0.51100000000E-03 0.  1.
    9900012    2    1    2    0    0 -0.34804844446E+02  0.44792560556E+00 -0.21014014874E+02  0.50528847828E+02  0.29999963458E+02 0.  0.
         12    1    1    2    0    0  0.34804844446E+02 -0.44792560556E+00  0.21014014874E+02  0.40659152172E+02  0.00000000000E+00 0. -1.
         11    1    3    3    0    0 -0.24489255388E+01 -0.84300991005E+01 -0.51355347530E+00  0.87936081657E+01  0.51100000000E-03 0. -1.
        -11    1    3    3    0    0 -0.25791839511E+02  0.29887075756E+01 -0.20225183049E+02  0.32912146511E+02  0.51100000000E-03 0.  1.
         12    1    3    3    0    0 -0.65640793960E+01  0.58893171305E+01 -0.27527834896E+00  0.88230931509E+01  0.00000000000E+00 0. -1.
</event>
<event>
 7    1  0.3041451E-011  0.5052886E+02  0.7816164E-02  0.1300439E+00
        -11   -1    0    0    0    0  0.00000000000E+00  0.00000000000E+00  0.45593999997E+02  0.45594000000E+02  0.51100000000E-03 0.  1.
         11   -1    0    0    0    0 -0.00000000000E+00 -0.00000000000E+00 -0.45593999997E+02  0.45594000000E+02  0.51100000000E-03 0. -1.
    9900012    2    1    2    0    0 -0.24267560194E+02  0.32467720365E+02 -0.31778430382E+01  0.50528855520E+02  0.29999986839E+02 0.  0.
         12    1    1    2    0    0  0.24267560194E+02 -0.32467720365E+02  0.31778430382E+01  0.40659144480E+02  0.00000000000E+00 0. -1.
         11    1    3    3    0    0 -0.18297529192E+01  0.10416018170E+02  0.10092318423E+02  0.14618355642E+02  0.51100000000E-03 0. -1.
        -11    1    3    3    0    0 -0.79298151647E+01  0.13892129526E+02 -0.10236906501E+02  0.18991247623E+02  0.51100000000E-03 0.  1.
         12    1    3    3    0    0 -0.14507992110E+02  0.81595726685E+01 -0.30332549607E+01  0.16919252255E+02  0.00000000000E+00 0. -1.
</event>
<event>
 7    1  0.3041451E-011  0.5052886E+02  0.7816164E-02  0.1300439E+00
        -11   -1    0    0    0    0  0.00000000000E+00  0.00000000000E+00  0.45593999997E+02  0.45594000000E+02  0.51100000000E-03 0. -1.
         11   -1    0    0    0    0 -0.00000000000E+00 -0.00000000000E+00 -0.45593999997E+02  0.45594000000E+02  0.51100000000E-03 0.  1.
    9900012    2    1    2    0    0  0.27424654905E+02 -0.29507811849E+02 -0.55084632409E+01  0.50528858051E+02  0.29999994531E+02 0.  0.
         12    1    1    2    0    0 -0.27424654905E+02  0.29507811849E+02  0.55084632409E+01  0.40659141949E+02  0.00000000000E+00 0. -1.
         11    1    3    3    0    0 -0.32272485827E+00 -0.34623366664E+01  0.74590530120E+01  0.82297872768E+01  0.51100000000E-03 0. -1.
        -11    1    3    3    0    0  0.26901382175E+01 -0.87347027149E+01 -0.63613724778E+01  0.11135480915E+02  0.51100000000E-03 0.  1.
         12    1    3    3    0    0  0.25057241546E+02 -0.17310772467E+02 -0.66061437751E+01  0.31163589859E+02  0.00000000000E+00 0. -1.
</event>
<event>
 7    1  0.3041451E-011  0.5052886E+02  0.7816164E-02  0.1300439E+00
        -11   -1    0    0    0    0  0.00000000000E+00  0.00000000000E+00  0.45593999997E+02  0.45594000000E+02  0.51100000000E-03 0. -1.
         11   -1    0    0    0    0 -0.00000000000E+00 -0.00000000000E+00 -0.45593999997E+02  0.45594000000E+02  0.51100000000E-03 0.  1.
    9900012    2    1    2    0    0 -0.13602274896E+02 -0.36605750277E+02 -0.11320893193E+02  0.50528862548E+02  0.30000008200E+02 0.  0.
         12    1    1    2    0    0  0.13602274896E+02  0.36605750277E+02  0.11320893193E+02  0.40659137452E+02  0.00000000000E+00 0. -1.
         11    1    3    3    0    0 -0.12564860840E+02 -0.98022779390E+01  0.58988090853E+01  0.16992831712E+02  0.51100000000E-03 0. -1.
        -11    1    3    3    0    0 -0.39138531533E+01 -0.23759686290E+02 -0.16726421099E+02  0.29319176355E+02  0.51100000000E-03 0.  1.
        -12    1    3    3    0    0  0.28764390970E+01 -0.30437860479E+01 -0.49328117910E+00  0.42168544800E+01  0.00000000000E+00 0.  1.
</event>
<event>
 7    1  0.3041451E-011  0.5052877E+02  0.7816164E-02  0.1300439E+00
        -11   -1    0    0    0    0  0.00000000000E+00  0.00000000000E+00  0.45593999997E+02  0.45594000000E+02  0.51100000000E-03 0.  1.
         11   -1    0    0    0    0 -0.00000000000E+00 -0.00000000000E+00 -0.45593999997E+02  0.45594000000E+02  0.51100000000E-03 0. -1.
    9900012    2    1    2    0    0  0.15513298196E+02 -0.13001843227E+01  0.37560883945E+02  0.50528771000E+02  0.29999729930E+02 0.  0.
         12    1    1    2    0    0 -0.15513298196E+02  0.13001843227E+01 -0.37560883945E+02  0.40659229000E+02  0.00000000000E+00 0. -1.
         11    1    3    3    0    0  0.11764038509E+02 -0.29751228856E+01  0.84632424735E-01  0.12134707295E+02  0.51100000000E-03 0. -1.
        -11    1    3    3    0    0  0.57523564943E+01  0.38705115616E+00  0.22356842217E+02  0.23088261260E+02  0.51100000000E-03 0.  1.
         12    1    3    3    0    0 -0.20030968080E+01  0.12878874067E+01  0.15119409304E+02  0.15305802445E+02  0.00000000000E+00 0. -1.
</event>
<event>
 7    1  0.3041451E-011  0.5052885E+02  0.7816164E-02  0.1300439E+00
        -11   -1    0    0    0    0  0.00000000000E+00  0.00000000000E+00  0.45593999997E+02  0.45594000000E+02  0.51100000000E-03 0. -1.
         11   -1    0    0    0    0 -0.00000000000E+00 -0.00000000000E+00 -0.45593999997E+02  0.45594000000E+02  0.51100000000E-03 0.  1.
    9900012    2    1    2    0    0 -0.48779008715E+01 -0.18125627545E+02 -0.36067079078E+02  0.50528849935E+02  0.29999969863E+02 0.  0.
         12    1    1    2    0    0  0.48779008715E+01  0.18125627545E+02  0.36067079078E+02  0.40659150065E+02  0.00000000000E+00 0. -1.
         11    1    3    3    0    0 -0.82911299308E+01  0.26513152774E+00 -0.87080836437E+01  0.12026797216E+02  0.51100000000E-03 0. -1.
        -11    1    3    3    0    0 -0.27158740387E+01 -0.19522025738E+02 -0.15387180477E+02  0.25005015177E+02  0.51100000000E-03 0.  1.
        -12    1    3    3    0    0  0.61291030980E+01  0.11312666657E+01 -0.11971814957E+02  0.13497037543E+02  0.00000000000E+00 0.  1.
</event>
<event>
 7    1  0.3041451E-011  0.5052887E+02  0.7816164E-02  0.1300439E+00
        -11   -1    0    0    0    0  0.00000000000E+00  0.00000000000E+00  0.45593999997E+02  0.45594000000E+02  0.51100000000E-03 0.  1.
         11   -1    0    0    0    0 -0.00000000000E+00 -0.00000000000E+00 -0.45593999997E+02  0.45594000000E+02  0.51100000000E-03 0. -1.
    9900012    2    1    2    0    0 -0.21224475928E+02  0.29194213956E+02  0.18718553384E+02  0.50528871286E+02  0.30000034762E+02 0.  0.
         12    1    1    2    0    0  0.21224475928E+02 -0.29194213956E+02 -0.18718553384E+02  0.40659128714E+02  0.00000000000E+00 0. -1.
         11    1    3    3    0    0 -0.30663508690E+01 -0.15611654991E+01 -0.30888785588E+01  0.46239503003E+01  0.51100000000E-03 0. -1.
        -11    1    3    3    0    0 -0.58474668371E+01  0.12631322229E+02  0.19380856645E+02  0.23861281906E+02  0.51100000000E-03 0.  1.
        -12    1    3    3    0    0 -0.12310658222E+02  0.18124057226E+02  0.24265752984E+01  0.22043639080E+02  0.00000000000E+00 0.  1.
</event>
<event>
 7    1  0.3041451E-011  0.5052885E+02  0.7816164E-02  0.1300439E+00
        -11   -1    0    0    0    0  0.00000000000E+00  0.00000000000E+00  0.45593999997E+02  0.45594000000E+02  0.51100000000E-03 0. -1.
         11   -1    0    0    0    0 -0.00000000000E+00 -0.00000000000E+00 -0.45593999997E+02  0.45594000000E+02  0.51100000000E-03 0.  1.
    9900012    2    1    2    0    0  0.31792423119E+01 -0.40297970951E+02 -0.43740499035E+01  0.50528851497E+02  0.29999974609E+02 0.  0.
         12    1    1    2    0    0 -0.31792423119E+01  0.40297970951E+02  0.43740499035E+01  0.40659148503E+02  0.00000000000E+00 0. -1.
         11    1    3    3    0    0 -0.50203948416E+01 -0.43681353375E+01  0.87381607842E+01  0.10983643514E+02  0.51100000000E-03 0. -1.
        -11    1    3    3    0    0  0.61803553640E+01 -0.18190524333E+02 -0.90422063313E+01  0.21233310235E+02  0.51100000000E-03 0.  1.
        -12    1    3    3    0    0  0.20192817895E+01 -0.17739311281E+02 -0.40700043565E+01  0.18311897748E+02  0.00000000000E+00 0.  1.
</event>
<event>
 7    1  0.3041451E-011  0.5052886E+02  0.7816164E-02  0.1300439E+00
        -11   -1    0    0    0    0  0.00000000000E+00  0.00000000000E+00  0.45593999997E+02  0.45594000000E+02  0.51100000000E-03 0. -1.
         11   -1    0    0    0    0 -0.00000000000E+00 -0.00000000000E+00 -0.45593999997E+02  0.45594000000E+02  0.51100000000E-03 0.  1.
    9900012    2    1    2    0    0  0.29763325742E+02  0.18082449153E+02 -0.20984163748E+02  0.50528860132E+02  0.30000000856E+02 0.  0.
         12    1    1    2    0    0 -0.29763325742E+02 -0.18082449153E+02  0.20984163748E+02  0.40659139868E+02  0.00000000000E+00 0. -1.
         11    1    3    3    0    0  0.63050667954E+01  0.83753491089E+00  0.31313956735E+01  0.70894972421E+01  0.51100000000E-03 0. -1.
        -11    1    3    3    0    0  0.23067060670E+02  0.21672064865E+02 -0.21761372486E+02  0.38409959857E+02  0.51100000000E-03 0.  1.
        -12    1    3    3    0    0  0.39119827740E+00 -0.44271506237E+01 -0.23541869363E+01  0.50294030330E+01  0.00000000000E+00 0.  1.
</event>
<event>
 7    1  0.3041451E-011  0.5052888E+02  0.7816164E-02  0.1300439E+00
        -11   -1    0    0    0    0  0.00000000000E+00  0.00000000000E+00  0.45593999997E+02  0.45594000000E+02  0.51100000000E-03 0.  1.
         11   -1    0    0    0    0 -0.00000000000E+00 -0.00000000000E+00 -0.45593999997E+02  0.45594000000E+02  0.51100000000E-03 0. -1.
    9900012    2    1    2    0    0  0.14189989868E+02  0.12733747592E+02  0.35911832977E+02  0.50528881859E+02  0.30000066900E+02 0.  0.
         12    1    1    2    0    0 -0.14189989868E+02 -0.12733747592E+02 -0.35911832977E+02  0.40659118141E+02  0.00000000000E+00 0. -1.
         11    1    3    3    0    0  0.16257569380E+02 -0.12901442741E+01  0.13003285617E+02  0.20858055314E+02  0.51100000000E-03 0. -1.
        -11    1    3    3    0    0  0.26953659066E+01  0.10712199823E+02  0.20701239371E+02  0.23463962457E+02  0.51100000000E-03 0.  1.
         12    1    3    3    0    0 -0.47629454189E+01  0.33116920426E+01  0.22073079898E+01  0.62068640883E+01  0.00000000000E+00 0. -1.
</event>
<event>
 7    1  0.3041451E-011  0.5052886E+02  0.7816164E-02  0.1300439E+00
        -11   -1    0    0    0    0  0.00000000000E+00  0.00000000000E+00  0.45593999997E+02  0.45594000000E+02  0.51100000000E-03 0.  1.
         11   -1    0    0    0    0 -0.00000000000E+00 -0.00000000000E+00 -0.45593999997E+02  0.45594000000E+02  0.51100000000E-03 0. -1.
    9900012    2    1    2    0    0  0.23590345540E+02  0.99917945281E+00  0.33100804778E+02  0.50528855404E+02  0.29999986487E+02 0.  0.
         12    1    1    2    0    0 -0.23590345540E+02 -0.99917945281E+00 -0.33100804778E+02  0.40659144596E+02  0.00000000000E+00 0. -1.
         11    1    3    3    0    0  0.73765087415E+01 -0.61294963178E+01  0.17113260772E+01  0.97422914926E+01  0.51100000000E-03 0. -1.
        -11    1    3    3    0    0  0.16254733063E+02  0.15085741970E+01  0.31141498154E+02  0.35160845419E+02  0.51100000000E-03 0.  1.
        -12    1    3    3    0    0 -0.40896264520E-01  0.56201015736E+01  0.24798054693E+00  0.56257184923E+01  0.00000000000E+00 0.  1.
</event>
<event>
 7    1  0.3041451E-011  0.5052886E+02  0.7816164E-02  0.1300439E+00
        -11   -1    0    0    0    0  0.00000000000E+00  0.00000000000E+00  0.45593999997E+02  0.45594000000E+02  0.51100000000E-03 0.  1.
         11   -1    0    0    0    0 -0.00000000000E+00 -0.00000000000E+00 -0.45593999997E+02  0.45594000000E+02  0.51100000000E-03 0. -1.
    9900012    2    1    2    0    0  0.20918896800E+02  0.17703612109E+02  0.30035774321E+02  0.50528857558E+02  0.29999993034E+02 0.  0.
         12    1    1    2    0    0 -0.20918896800E+02 -0.17703612109E+02 -0.30035774321E+02  0.40659142442E+02  0.00000000000E+00 0. -1.
         11    1    3    3    0    0  0.21867895107E+02  0.49298319199E+01  0.10077183126E+02  0.24577585300E+02  0.51100000000E-03 0. -1.
        -11    1    3    3    0    0  0.14955815515E+01  0.13258445251E+02  0.13289416365E+02  0.18831668068E+02  0.51100000000E-03 0.  1.
         12    1    3    3    0    0 -0.24445798588E+01 -0.48466506150E+00  0.66691748297E+01  0.71196041897E+01  0.00000000000E+00 0. -1.
</event>
<event>
 7    1  0.3041451E-011  0.5052886E+02  0.7816164E-02  0.1300439E+00
        -11   -1    0    0    0    0  0.00000000000E+00  0.00000000000E+00  0.45593999997E+02  0.45594000000E+02  0.51100000000E-03 0. -1.
         11   -1    0    0    0    0 -0.00000000000E+00 -0.00000000000E+00 -0.45593999997E+02  0.45594000000E+02  0.51100000000E-03 0.  1.
    9900012    2    1    2    0    0 -0.33168037808E+02 -0.17267896440E+02 -0.15964549371E+02  0.50528858148E+02  0.29999994826E+02 0.  0.
         12    1    1    2    0    0  0.33168037808E+02  0.17267896440E+02  0.15964549371E+02  0.40659141852E+02  0.00000000000E+00 0. -1.
         11    1    3    3    0    0 -0.75062799831E+01  0.37307399704E+01 -0.11967349607E+02  0.14610958791E+02  0.51100000000E-03 0. -1.
        -11    1    3    3    0    0 -0.19544419601E+02 -0.13038167096E+02  0.29937183293E+01  0.23684182242E+02  0.51100000000E-03 0.  1.
        -12    1    3    3    0    0 -0.61173382240E+01 -0.79604693153E+01 -0.69909180934E+01  0.12233717115E+02  0.00000000000E+00 0.  1.
</event>
<event>
 7    1  0.3041451E-011  0.5052885E+02  0.7816164E-02  0.1300439E+00
        -11   -1    0    0    0    0  0.00000000000E+00  0.00000000000E+00  0.45593999997E+02  0.45594000000E+02  0.51100000000E-03 0.  1.
         11   -1    0    0    0    0 -0.00000000000E+00 -0.00000000000E+00 -0.45593999997E+02  0.45594000000E+02  0.51100000000E-03 0. -1.
    9900012    2    1    2    0    0  0.21694320065E+02  0.29612069971E+02  0.17482808514E+02  0.50528845993E+02  0.29999957880E+02 0.  0.
         12    1    1    2    0    0 -0.21694320065E+02 -0.29612069971E+02 -0.17482808514E+02  0.40659154007E+02  0.00000000000E+00 0. -1.
         11    1    3    3    0    0  0.11316261558E+02  0.26222612937E+02  0.18934923505E+02  0.34266813877E+02  0.51100000000E-03 0.  1.
        -11    1    3    3    0    0  0.22029004713E+01 -0.13101889235E+01  0.44515475778E+01  0.51366955915E+01  0.51100000000E-03 0. -1.
         12    1    3    3    0    0  0.81751580363E+01  0.46996459571E+01 -0.59036625693E+01  0.11125336524E+02  0.00000000000E+00 0. -1.
</event>
<event>
 7    1  0.3041451E-011  0.5052886E+02  0.7816164E-02  0.1300439E+00
        -11   -1    0    0    0    0  0.00000000000E+00  0.00000000000E+00  0.45593999997E+02  0.45594000000E+02  0.51100000000E-03 0.  1.
         11   -1    0    0    0    0 -0.00000000000E+00 -0.00000000000E+00 -0.45593999997E+02  0.45594000000E+02  0.51100000000E-03 0. -1.
    9900012    2    1    2    0    0 -0.26982768158E+02 -0.21189753615E+02  0.21819490951E+02  0.50528860546E+02  0.30000002117E+02 0.  0.
         12    1    1    2    0    0  0.26982768158E+02  0.21189753615E+02 -0.21819490951E+02  0.40659139454E+02  0.00000000000E+00 0. -1.
         11    1    3    3    0    0 -0.10906955797E+02  0.39948963275E+00 -0.38173608092E+01  0.11562591429E+02  0.51100000000E-03 0. -1.
        -11    1    3    3    0    0 -0.16467122525E+02 -0.13729782637E+02  0.17887410168E+02  0.27921899977E+02  0.51100000000E-03 0.  1.
         12    1    3    3    0    0  0.39131016419E+00 -0.78594606106E+01  0.77494415923E+01  0.11044369141E+02  0.00000000000E+00 0. -1.
</event>
<event>
 7    1  0.3041451E-011  0.5052892E+02  0.7816164E-02  0.1300439E+00
        -11   -1    0    0    0    0  0.00000000000E+00  0.00000000000E+00  0.45593999997E+02  0.45594000000E+02  0.51100000000E-03 0. -1.
         11   -1    0    0    0    0 -0.00000000000E+00 -0.00000000000E+00 -0.45593999997E+02  0.45594000000E+02  0.51100000000E-03 0.  1.
    9900012    2    1    2    0    0  0.15829253651E+01  0.36077192584E+02  0.18683995714E+02  0.50528915243E+02  0.30000168373E+02 0.  0.
         12    1    1    2    0    0 -0.15829253651E+01 -0.36077192584E+02 -0.18683995714E+02  0.40659084757E+02  0.00000000000E+00 0. -1.
         11    1    3    3    0    0 -0.66073296860E+01  0.16598597331E+00  0.77750526169E+01  0.10204695016E+02  0.51100000000E-03 0. -1.
        -11    1    3    3    0    0  0.44782785296E+01  0.26804503765E+02  0.13221828606E+02  0.30221733118E+02  0.51100000000E-03 0.  1.
         12    1    3    3    0    0  0.37119765215E+01  0.91067028453E+01 -0.23128855093E+01  0.10102487109E+02  0.00000000000E+00 0. -1.
</event>
<event>
 7    1  0.3041451E-011  0.5052882E+02  0.7816164E-02  0.1300439E+00
        -11   -1    0    0    0    0  0.00000000000E+00  0.00000000000E+00  0.45593999997E+02  0.45594000000E+02  0.51100000000E-03 0.  1.
         11   -1    0    0    0    0 -0.00000000000E+00 -0.00000000000E+00 -0.45593999997E+02  0.45594000000E+02  0.51100000000E-03 0. -1.
    9900012    2    1    2    0    0 -0.31713849092E+02 -0.67160591315E+01  0.24541696401E+02  0.50528824692E+02  0.29999893133E+02 0.  0.
         12    1    1    2    0    0  0.31713849092E+02  0.67160591315E+01 -0.24541696401E+02  0.40659175308E+02  0.00000000000E+00 0. -1.
         11    1    3    3    0    0 -0.49936068042E+01 -0.99804133019E+01  0.16806576250E+02  0.20174383859E+02  0.51100000000E-03 0.  1.
        -11    1    3    3    0    0 -0.16215426638E+02  0.76822611207E+01  0.42867665548E+01  0.18448131741E+02  0.51100000000E-03 0. -1.
         12    1    3    3    0    0 -0.10504815649E+02 -0.44179069503E+01  0.34483535971E+01  0.11906309091E+02  0.00000000000E+00 0. -1.
</event>
<event>
 7    1  0.3041451E-011  0.5052886E+02  0.7816164E-02  0.1300439E+00
        -11   -1    0    0    0    0  0.00000000000E+00  0.00000000000E+00  0.45593999997E+02  0.45594000000E+02  0.51100000000E-03 0. -1.
         11   -1    0    0    0    0 -0.00000000000E+00 -0.00000000000E+00 -0.45593999997E+02  0.45594000000E+02  0.51100000000E-03 0.  1.
    9900012    2    1    2    0    0  0.30516587167E+02 -0.83691356944E+01 -0.25531576831E+02  0.50528856624E+02  0.29999990193E+02 0.  0.
         12    1    1    2    0    0 -0.30516587167E+02  0.83691356944E+01  0.25531576831E+02  0.40659143376E+02  0.00000000000E+00 0. -1.
         11    1    3    3    0    0  0.23138435883E+02  0.72718748801E+01 -0.86554772733E+01  0.25752372056E+02  0.51100000000E-03 0. -1.
        -11    1    3    3    0    0  0.71374299811E+00 -0.54385916579E+01 -0.80021234371E+01  0.97016332673E+01  0.51100000000E-03 0.  1.
         12    1    3    3    0    0  0.66644082857E+01 -0.10202418916E+02 -0.88739761208E+01  0.15074851301E+02  0.00000000000E+00 0. -1.
</event>
<event>
 7    1  0.3041451E-011  0.5052887E+02  0.7816164E-02  0.1300439E+00
        -11   -1    0    0    0    0  0.00000000000E+00  0.00000000000E+00  0.45593999997E+02  0.45594000000E+02  0.51100000000E-03 0.  1.
         11   -1    0    0    0    0 -0.00000000000E+00 -0.00000000000E+00 -0.45593999997E+02  0.45594000000E+02  0.51100000000E-03 0. -1.
    9900012    2    1    2    0    0 -0.10323247711E+02  0.11397756176E+02  0.37638900813E+02  0.50528866419E+02  0.30000019967E+02 0.  0.
         12    1    1    2    0    0  0.10323247711E+02 -0.11397756176E+02 -0.37638900813E+02  0.40659133581E+02  0.00000000000E+00 0. -1.
         11    1    3    3    0    0 -0.14030709745E+02 -0.20836287724E+01  0.81151885221E+01  0.16341927972E+02  0.51100000000E-03 0. -1.
        -11    1    3    3    0    0 -0.34332283174E+01  0.51858295414E+01  0.12227854194E+02  0.13718611561E+02  0.51100000000E-03 0.  1.
         12    1    3    3    0    0  0.71406903518E+01  0.82955554065E+01  0.17295858097E+02  0.20468326886E+02  0.00000000000E+00 0. -1.
</event>
<event>
 7    1  0.3041451E-011  0.5052881E+02  0.7816164E-02  0.1300439E+00
        -11   -1    0    0    0    0  0.00000000000E+00  0.00000000000E+00  0.45593999997E+02  0.45594000000E+02  0.51100000000E-03 0.  1.
         11   -1    0    0    0    0 -0.00000000000E+00 -0.00000000000E+00 -0.45593999997E+02  0.45594000000E+02  0.51100000000E-03 0. -1.
    9900012    2    1    2    0    0  0.34251349446E+02 -0.10568439786E+02  0.19191733244E+02  0.50528813051E+02  0.29999857750E+02 0.  0.
         12    1    1    2    0    0 -0.34251349446E+02  0.10568439786E+02 -0.19191733244E+02  0.40659186949E+02  0.00000000000E+00 0. -1.
         11    1    3    3    0    0  0.27791811284E+02 -0.99942771048E+01  0.19628499321E+01  0.29599377179E+02  0.51100000000E-03 0. -1.
        -11    1    3    3    0    0  0.27751809611E+01 -0.52434647574E+01  0.83836528654E+01  0.10270403481E+02  0.51100000000E-03 0.  1.
         12    1    3    3    0    0  0.36843572017E+01  0.46693020759E+01  0.88452304468E+01  0.10659032391E+02  0.00000000000E+00 0. -1.
</event>
<event>
 7    1  0.3041451E-011  0.5052885E+02  0.7816164E-02  0.1300439E+00
        -11   -1    0    0    0    0  0.00000000000E+00  0.00000000000E+00  0.45593999997E+02  0.45594000000E+02  0.51100000000E-03 0.  1.
         11   -1    0    0    0    0 -0.00000000000E+00 -0.00000000000E+00 -0.45593999997E+02  0.45594000000E+02  0.51100000000E-03 0. -1.
    9900012    2    1    2    0    0 -0.21283273087E+02  0.31897722822E+02 -0.13517552226E+02  0.50528847860E+02  0.29999963556E+02 0.  0.
         12    1    1    2    0    0  0.21283273087E+02 -0.31897722822E+02  0.13517552226E+02  0.40659152140E+02  0.00000000000E+00 0. -1.
         11    1    3    3    0    0 -0.91962346333E+00  0.30719319387E+01  0.77394679774E+01  0.83774601153E+01  0.51100000000E-03 0. -1.
        -11    1    3    3    0    0 -0.10645378614E+02  0.13742894461E+02 -0.15548115093E+02  0.23322416624E+02  0.51100000000E-03 0.  1.
         12    1    3    3    0    0 -0.97182710098E+01  0.15082896422E+02 -0.57089051112E+01  0.18828971121E+02  0.00000000000E+00 0. -1.
</event>
<event>
 7    1  0.3041451E-011  0.5052886E+02  0.7816164E-02  0.1300439E+00
        -11   -1    0    0    0    0  0.00000000000E+00  0.00000000000E+00  0.45593999997E+02  0.45594000000E+02  0.51100000000E-03 0. -1.
         11   -1    0    0    0    0 -0.00000000000E+00 -0.00000000000E+00 -0.45593999997E+02  0.45594000000E+02  0.51100000000E-03 0.  1.
    9900012    2    1    2    0    0  0.11013180030E+02  0.93552579224E+01 -0.38004661656E+02  0.50528864585E+02  0.30000014391E+02 0.  0.
         12    1    1    2    0    0 -0.11013180030E+02 -0.93552579224E+01  0.38004661656E+02  0.40659135415E+02  0.00000000000E+00 0. -1.
         11    1    3    3    0    0  0.17760935069E+02 -0.23416311221E+00 -0.17730624954E+02  0.25097424338E+02  0.51100000000E-03 0. -1.
        -11    1    3    3    0    0 -0.29517337584E+01 -0.17010040878E+01 -0.52485913402E+01  0.62573044041E+01  0.51100000000E-03 0.  1.
         12    1    3    3    0    0 -0.37960212799E+01  0.11290425122E+02 -0.15025445361E+02  0.19174135842E+02  0.00000000000E+00 0. -1.
</event>
<event>
 7    1  0.3041451E-011  0.5052890E+02  0.7816164E-02  0.1300439E+00
        -11   -1    0    0    0    0  0.00000000000E+00  0.00000000000E+00  0.45593999997E+02  0.45594000000E+02  0.51100000000E-03 0.  1.
         11   -1    0    0    0    0 -0.00000000000E+00 -0.00000000000E+00 -0.45593999997E+02  0.45594000000E+02  0.51100000000E-03 0. -1.
    9900012    2    1    2    0    0 -0.14458806482E+02  0.12901170168E+02  0.35744440705E+02  0.50528901167E+02  0.30000125586E+02 0.  0.
         12    1    1    2    0    0  0.14458806482E+02 -0.12901170168E+02 -0.35744440705E+02  0.40659098833E+02  0.00000000000E+00 0. -1.
         11    1    3    3    0    0 -0.10299875028E+02 -0.17870752249E+01 -0.75478414163E+00  0.10480971463E+02  0.51100000000E-03 0. -1.
        -11    1    3    3    0    0 -0.19350803102E+00  0.54373147078E+01  0.19947646664E+02  0.20676325696E+02  0.51100000000E-03 0.  1.
         12    1    3    3    0    0 -0.39654234226E+01  0.92509306855E+01  0.16551578183E+02  0.19371604007E+02  0.00000000000E+00 0. -1.
</event>
<event>
 7    1  0.3041451E-011  0.5052886E+02  0.7816164E-02  0.1300439E+00
        -11   -1    0    0    0    0  0.00000000000E+00  0.00000000000E+00  0.45593999997E+02  0.45594000000E+02  0.51100000000E-03 0. -1.
         11   -1    0    0    0    0 -0.00000000000E+00 -0.00000000000E+00 -0.45593999997E+02  0.45594000000E+02  0.51100000000E-03 0.  1.
    9900012    2    1    2    0    0 -0.39309085852E+02 -0.73683216202E+01 -0.73259402266E+01  0.50528858418E+02  0.29999995646E+02 0.  0.
         12    1    1    2    0    0  0.39309085852E+02  0.73683216202E+01  0.73259402266E+01  0.40659141582E+02  0.00000000000E+00 0. -1.
         11    1    3    3    0    0 -0.64220123412E+01  0.67513727006E+01  0.13928425340E+01  0.94214269853E+01  0.51100000000E-03 0. -1.
        -11    1    3    3    0    0 -0.33839132538E+02 -0.15784843404E+02 -0.60587871008E+01  0.37827993253E+02  0.51100000000E-03 0.  1.
        -12    1    3    3    0    0  0.95205902701E+00  0.16651490827E+01 -0.26599956598E+01  0.32794381788E+01  0.00000000000E+00 0.  1.
</event>
<event>
 7    1  0.3041451E-011  0.5052886E+02  0.7816164E-02  0.1300439E+00
        -11   -1    0    0    0    0  0.00000000000E+00  0.00000000000E+00  0.45593999997E+02  0.45594000000E+02  0.51100000000E-03 0.  1.
         11   -1    0    0    0    0 -0.00000000000E+00 -0.00000000000E+00 -0.45593999997E+02  0.45594000000E+02  0.51100000000E-03 0. -1.
    9900012    2    1    2    0    0  0.76776288665E+01  0.28836335074E+02  0.27616764001E+02  0.50528857616E+02  0.29999993209E+02 0.  0.
         12    1    1    2    0    0 -0.76776288665E+01 -0.28836335074E+02 -0.27616764001E+02  0.40659142384E+02  0.00000000000E+00 0. -1.
         11    1    3    3    0    0  0.13637457648E+01  0.19537052719E+02  0.17878225902E+02  0.26517676993E+02  0.51100000000E-03 0.  1.
        -11    1    3    3    0    0 -0.29775433033E+01 -0.85414572387E+00 -0.36657433117E+01  0.47992711248E+01  0.51100000000E-03 0. -1.
        -12    1    3    3    0    0  0.92914264051E+01  0.10153428079E+02  0.13404281411E+02  0.19211909498E+02  0.00000000000E+00 0.  1.
</event>
<event>
 7    1  0.3041451E-011  0.5052882E+02  0.7816164E-02  0.1300439E+00
        -11   -1    0    0    0    0  0.00000000000E+00  0.00000000000E+00  0.45593999997E+02  0.45594000000E+02  0.51100000000E-03 0.  1.
         11   -1    0    0    0    0 -0.00000000000E+00 -0.00000000000E+00 -0.45593999997E+02  0.45594000000E+02  0.51100000000E-03 0. -1.
    9900012    2    1    2    0    0 -0.35124387727E+02  0.20456062762E+02 -0.99771968029E+00  0.50528824387E+02  0.29999892207E+02 0.  0.
         12    1    1    2    0    0  0.35124387727E+02 -0.20456062762E+02  0.99771968029E+00  0.40659175613E+02  0.00000000000E+00 0. -1.
         11    1    3    3    0    0 -0.29117731167E+02  0.12849434445E+01 -0.37868300909E+01  0.29391043370E+02  0.51100000000E-03 0. -1.
        -11    1    3    3    0    0 -0.19238029364E+01  0.26426600491E+01  0.24913256753E+01  0.41099116480E+01  0.51100000000E-03 0.  1.
         12    1    3    3    0    0 -0.40828536241E+01  0.16528459269E+02  0.29778473537E+00  0.17027869369E+02  0.00000000000E+00 0. -1.
</event>
<event>
 7    1  0.3041451E-011  0.5052887E+02  0.7816164E-02  0.1300439E+00
        -11   -1    0    0    0    0  0.00000000000E+00  0.00000000000E+00  0.45593999997E+02  0.45594000000E+02  0.51100000000E-03 0.  1.
         11   -1    0    0    0    0 -0.00000000000E+00 -0.00000000000E+00 -0.45593999997E+02  0.45594000000E+02  0.51100000000E-03 0. -1.
    9900012    2    1    2    0    0 -0.35688608373E+02 -0.57432568366E+00  0.19471980196E+02  0.50528872730E+02  0.30000039151E+02 0.  0.
         12    1    1    2    0    0  0.35688608373E+02  0.57432568366E+00 -0.19471980196E+02  0.40659127270E+02  0.00000000000E+00 0. -1.
         11    1    3    3    0    0 -0.14179049106E+02 -0.11239082469E+02 -0.54374095770E+00  0.18101327652E+02  0.51100000000E-03 0. -1.
        -11    1    3    3    0    0 -0.16484948805E+02  0.11823316835E+02  0.14959729743E+02  0.25205909472E+02  0.51100000000E-03 0.  1.
        -12    1    3    3    0    0 -0.50246104624E+01 -0.11585600498E+01  0.50559914106E+01  0.72216356064E+01  0.00000000000E+00 0.  1.
</event>
<event>
 7    1  0.3041451E-011  0.5052887E+02  0.7816164E-02  0.1300439E+00
        -11   -1    0    0    0    0  0.00000000000E+00  0.00000000000E+00  0.45593999997E+02  0.45594000000E+02  0.51100000000E-03 0.  1.
         11   -1    0    0    0    0 -0.00000000000E+00 -0.00000000000E+00 -0.45593999997E+02  0.45594000000E+02  0.51100000000E-03 0. -1.
    9900012    2    1    2    0    0 -0.12302501844E+02  0.36471825144E+02  0.13100352403E+02  0.50528870472E+02  0.30000032285E+02 0.  0.
         12    1    1    2    0    0  0.12302501844E+02 -0.36471825144E+02 -0.13100352403E+02  0.40659129528E+02  0.00000000000E+00 0. -1.
         11    1    3    3    0    0  0.28520911588E+01  0.85487271432E+01 -0.37947305344E+01  0.97782994349E+01  0.51100000000E-03 0. -1.
        -11    1    3    3    0    0 -0.12236007525E+02  0.30627679744E+02  0.14000222192E+02  0.35829887920E+02  0.51100000000E-03 0.  1.
        -12    1    3    3    0    0 -0.29185854782E+01 -0.27045817437E+01  0.28948607457E+01  0.49206831171E+01  0.00000000000E+00 0.  1.
</event>
<event>
 7    1  0.3041451E-011  0.5052886E+02  0.7816164E-02  0.1300439E+00
        -11   -1    0    0    0    0  0.00000000000E+00  0.00000000000E+00  0.45593999997E+02  0.45594000000E+02  0.51100000000E-03 0.  1.
         11   -1    0    0    0    0 -0.00000000000E+00 -0.00000000000E+00 -0.45593999997E+02  0.45594000000E+02  0.51100000000E-03 0. -1.
    9900012    2    1    2    0    0 -0.12589720218E+01  0.11519686878E+02  0.38972780607E+02  0.50528858045E+02  0.29999994512E+02 0.  0.
         12    1    1    2    0    0  0.12589720218E+01 -0.11519686878E+02 -0.38972780607E+02  0.40659141955E+02  0.00000000000E+00 0. -1.
         11    1    3    3    0    0  0.53195805418E+00  0.34445064871E+01 -0.88169616327E+00  0.35951345867E+01  0.51100000000E-03 0. -1.
        -11    1    3    3    0    0 -0.10831091050E+02  0.85838560785E+01  0.32333040871E+02  0.35162773650E+02  0.51100000000E-03 0.  1.
        -12    1    3    3    0    0  0.90401609745E+01 -0.50867568730E+00  0.75214358985E+01  0.11770949808E+02  0.00000000000E+00 0.  1.
</event>
<event>
 7    1  0.3041451E-011  0.5052892E+02  0.7816164E-02  0.1300439E+00
        -11   -1    0    0    0    0  0.00000000000E+00  0.00000000000E+00  0.45593999997E+02  0.45594000000E+02  0.51100000000E-03 0.  1.
         11   -1    0    0    0    0 -0.00000000000E+00 -0.00000000000E+00 -0.45593999997E+02  0.45594000000E+02  0.51100000000E-03 0. -1.
    9900012    2    1    2    0    0 -0.96125652518E+01  0.25828522019E+02  0.29893925263E+02  0.50528920718E+02  0.30000185015E+02 0.  0.
         12    1    1    2    0    0  0.96125652518E+01 -0.25828522019E+02 -0.29893925263E+02  0.40659079282E+02  0.00000000000E+00 0. -1.
         11    1    3    3    0    0 -0.57636395969E+01 -0.58426926698E+01  0.33650687886E+01  0.88701909364E+01  0.51100000000E-03 0. -1.
        -11    1    3    3    0    0 -0.20966806774E+01  0.17403061743E+02  0.16954399887E+02  0.24386764929E+02  0.51100000000E-03 0.  1.
         12    1    3    3    0    0 -0.17522449775E+01  0.14268152946E+02  0.95744565869E+01  0.17271964853E+02  0.00000000000E+00 0. -1.
</event>
<event>
 7    1  0.3041451E-011  0.5052886E+02  0.7816164E-02  0.1300439E+00
        -11   -1    0    0    0    0  0.00000000000E+00  0.00000000000E+00  0.45593999997E+02  0.45594000000E+02  0.51100000000E-03 0.  1.
         11   -1    0    0    0    0 -0.00000000000E+00 -0.00000000000E+00 -0.45593999997E+02  0.45594000000E+02  0.51100000000E-03 0. -1.
    9900012    2    1    2    0    0  0.11589254394E+02 -0.12469990020E+01  0.38952537350E+02  0.50528856010E+02  0.29999988329E+02 0.  0.
         12    1    1    2    0    0 -0.11589254394E+02  0.12469990020E+01 -0.38952537350E+02  0.40659143990E+02  0.00000000000E+00 0. -1.
         11    1    3    3    0    0  0.29927443426E+01  0.89368853027E+01  0.26963122104E+02  0.28562814838E+02  0.51100000000E-03 0.  1.
        -11    1    3    3    0    0  0.11550492367E+02 -0.53987876418E+01  0.89093736858E+01  0.15554347355E+02  0.51100000000E-03 0. -1.
         12    1    3    3    0    0 -0.29539823148E+01 -0.47850966629E+01  0.30800415606E+01  0.64116938171E+01  0.00000000000E+00 0. -1.
</event>
<event>
 7    1  0.3041451E-011  0.5052886E+02  0.7816164E-02  0.1300439E+00
        -11   -1    0    0    0    0  0.00000000000E+00  0.00000000000E+00  0.45593999997E+02  0.45594000000E+02  0.51100000000E-03 0.  1.
         11   -1    0    0    0    0 -0.00000000000E+00 -0.00000000000E+00 -0.45593999997E+02  0.45594000000E+02  0.51100000000E-03 0. -1.
    9900012    2    1    2    0    0  0.32435703107E+02 -0.54188633931E+01  0.23910804849E+02  0.50528861974E+02  0.30000006457E+02 0.  0.
         12    1    1    2    0    0 -0.32435703107E+02  0.54188633931E+01 -0.23910804849E+02  0.40659138026E+02  0.00000000000E+00 0. -1.
         11    1    3    3    0    0  0.14604618091E+02  0.96668047887E+01  0.48994799075E+01  0.18186447922E+02  0.51100000000E-03 0. -1.
        -11    1    3    3    0    0  0.13596324760E+02 -0.45677373289E+01  0.13650607513E+02  0.19800589815E+02  0.51100000000E-03 0.  1.
         12    1    3    3    0    0  0.42347602561E+01 -0.10517930853E+02  0.53607174280E+01  0.12541824237E+02  0.00000000000E+00 0. -1.
</event>
<event>
 7    1  0.3041451E-011  0.5052885E+02  0.7816164E-02  0.1300439E+00
        -11   -1    0    0    0    0  0.00000000000E+00  0.00000000000E+00  0.45593999997E+02  0.45594000000E+02  0.51100000000E-03 0.  1.
         11   -1    0    0    0    0 -0.00000000000E+00 -0.00000000000E+00 -0.45593999997E+02  0.45594000000E+02  0.51100000000E-03 0. -1.
    9900012    2    1    2    0    0  0.39898411267E+01  0.29894668606E+02  0.27268228354E+02  0.50528851941E+02  0.29999975961E+02 0.  0.
         12    1    1    2    0    0 -0.39898411267E+01 -0.29894668606E+02 -0.27268228354E+02  0.40659148059E+02  0.00000000000E+00 0. -1.
         11    1    3    3    0    0  0.10318377780E+02  0.99661773648E+01 -0.25676811579E+00  0.14347806153E+02  0.51100000000E-03 0. -1.
        -11    1    3    3    0    0 -0.81789142903E+01  0.13094552259E+02  0.13666674432E+02  0.20618921605E+02  0.51100000000E-03 0.  1.
         12    1    3    3    0    0  0.18503776374E+01  0.68339389819E+01  0.13858322038E+02  0.15562124184E+02  0.00000000000E+00 0. -1.
</event>
<event>
 7    1  0.3041451E-011  0.5052887E+02  0.7816164E-02  0.1300439E+00
        -11   -1    0    0    0    0  0.00000000000E+00  0.00000000000E+00  0.45593999997E+02  0.45594000000E+02  0.51100000000E-03 0.  1.
         11   -1    0    0    0    0 -0.00000000000E+00 -0.00000000000E+00 -0.45593999997E+02  0.45594000000E+02  0.51100000000E-03 0. -1.
    9900012    2    1    2    0    0  0.40147446560E+02 -0.52414286550E+01  0.37249370453E+01  0.50528865779E+02  0.30000018020E+02 0.  0.
         12    1    1    2    0    0 -0.40147446560E+02  0.52414286550E+01 -0.37249370453E+01  0.40659134221E+02  0.00000000000E+00 0. -1.
         11    1    3    3    0    0  0.55825479356E+01 -0.12886445459E+02 -0.10595715178E+01  0.14083607850E+02  0.51100000000E-03 0. -1.
        -11    1    3    3    0    0  0.16097442386E+02  0.65779834876E+01  0.21473762699E+00  0.17390906551E+02  0.51100000000E-03 0.  1.
        -12    1    3    3    0    0  0.18467456238E+02  0.10670333163E+01  0.45697709360E+01  0.19054351377E+02  0.00000000000E+00 0.  1.
</event>
<event>
 7    1  0.3041451E-011  0.5052886E+02  0.7816164E-02  0.1300439E+00
        -11   -1    0    0    0    0  0.00000000000E+00  0.00000000000E+00  0.45593999997E+02  0.45594000000E+02  0.51100000000E-03 0. -1.
         11   -1    0    0    0    0 -0.00000000000E+00 -0.00000000000E+00 -0.45593999997E+02  0.45594000000E+02  0.51100000000E-03 0.  1.
    9900012    2    1    2    0    0 -0.30625148097E+02  0.26698417020E+02 -0.15686681397E+01  0.50528857275E+02  0.29999992174E+02 0.  0.
         12    1    1    2    0    0  0.30625148097E+02 -0.26698417020E+02  0.15686681397E+01  0.40659142725E+02  0.00000000000E+00 0. -1.
         11    1    3    3    0    0 -0.51353350070E+01  0.16984433891E+02 -0.10117175864E+01  0.17772625945E+02  0.51100000000E-03 0. -1.
        -11    1    3    3    0    0 -0.21760630709E+02  0.12788723361E+02 -0.55109925290E+01  0.25835005960E+02  0.51100000000E-03 0.  1.
         12    1    3    3    0    0 -0.37291823810E+01 -0.30747402316E+01  0.49540419757E+01  0.69212253698E+01  0.00000000000E+00 0. -1.
</event>
<event>
 7    1  0.3041451E-011  0.5052886E+02  0.7816164E-02  0.1300439E+00
        -11   -1    0    0    0    0  0.00000000000E+00  0.00000000000E+00  0.45593999997E+02  0.45594000000E+02  0.51100000000E-03 0.  1.
         11   -1    0    0    0    0 -0.00000000000E+00 -0.00000000000E+00 -0.45593999997E+02  0.45594000000E+02  0.51100000000E-03 0. -1.
    9900012    2    1    2    0    0  0.12714561229E+02 -0.31066694952E+02  0.22942669850E+02  0.50528859548E+02  0.29999999083E+02 0.  0.
         12    1    1    2    0    0 -0.12714561229E+02  0.31066694952E+02 -0.22942669850E+02  0.40659140452E+02  0.00000000000E+00 0. -1.
         11    1    3    3    0    0  0.60143447022E+01 -0.68265636057E+01 -0.30764029287E+01  0.96040912168E+01  0.51100000000E-03 0. -1.
        -11    1    3    3    0    0  0.76305078886E+00 -0.91853042683E+01  0.22568067152E+02  0.24377647882E+02  0.51100000000E-03 0.  1.
        -12    1    3    3    0    0  0.59371657375E+01 -0.15054827078E+02  0.34510056260E+01  0.16547120449E+02  0.00000000000E+00 0.  1.
</event>
<event>
 7    1  0.3041451E-011  0.5052888E+02  0.7816164E-02  0.1300439E+00
        -11   -1    0    0    0    0  0.00000000000E+00  0.00000000000E+00  0.45593999997E+02  0.45594000000E+02  0.51100000000E-03 0.  1.
         11   -1    0    0    0    0 -0.00000000000E+00 -0.00000000000E+00 -0.45593999997E+02  0.45594000000E+02  0.51100000000E-03 0. -1.
    9900012    2    1    2    0    0  0.38235577015E+02  0.99236581601E+01  0.96294379282E+01  0.50528875369E+02  0.30000047172E+02 0.  0.
         12    1    1    2    0    0 -0.38235577015E+02 -0.99236581601E+01 -0.96294379282E+01  0.40659124631E+02  0.00000000000E+00 0. -1.
         11    1    3    3    0    0  0.13324868796E+02  0.13403547619E+02 -0.85419396381E+00  0.18919219455E+02  0.51100000000E-03 0. -1.
        -11    1    3    3    0    0  0.25068359563E+02 -0.67472225765E+01  0.71232391495E+01  0.26920033431E+02  0.51100000000E-03 0.  1.
        -12    1    3    3    0    0 -0.15765134423E+00  0.32673331177E+01  0.33603927425E+01  0.46896224830E+01  0.00000000000E+00 0.  1.
</event>
<event>
 7    1  0.3041451E-011  0.5052885E+02  0.7816164E-02  0.1300439E+00
        -11   -1    0    0    0    0  0.00000000000E+00  0.00000000000E+00  0.45593999997E+02  0.45594000000E+02  0.51100000000E-03 0.  1.
         11   -1    0    0    0    0 -0.00000000000E+00 -0.00000000000E+00 -0.45593999997E+02  0.45594000000E+02  0.51100000000E-03 0. -1.
    9900012    2    1    2    0    0 -0.10460001706E+02 -0.28832607984E-01  0.39290631639E+02  0.50528853408E+02  0.29999980420E+02 0.  0.
         12    1    1    2    0    0  0.10460001706E+02  0.28832607984E-01 -0.39290631639E+02  0.40659146592E+02  0.00000000000E+00 0. -1.
         11    1    3    3    0    0 -0.12779473821E+01 -0.50532536893E+01 -0.33747135233E+01  0.62094455457E+01  0.51100000000E-03 0. -1.
        -11    1    3    3    0    0 -0.13698236580E+00  0.57575507506E+00  0.12509911483E+02  0.12523902892E+02  0.51100000000E-03 0.  1.
         12    1    3    3    0    0 -0.90450719580E+01  0.44486660062E+01  0.30155433679E+02  0.31795504971E+02  0.00000000000E+00 0. -1.
</event>
<event>
 7    1  0.3041451E-011  0.5052886E+02  0.7816164E-02  0.1300439E+00
        -11   -1    0    0    0    0  0.00000000000E+00  0.00000000000E+00  0.45593999997E+02  0.45594000000E+02  0.51100000000E-03 0.  1.
         11   -1    0    0    0    0 -0.00000000000E+00 -0.00000000000E+00 -0.45593999997E+02  0.45594000000E+02  0.51100000000E-03 0. -1.
    9900012    2    1    2    0    0  0.16983385734E+01  0.39047163868E+02  0.11207157770E+02  0.50528859018E+02  0.29999997472E+02 0.  0.
         12    1    1    2    0    0 -0.16983385734E+01 -0.39047163868E+02 -0.11207157770E+02  0.40659140982E+02  0.00000000000E+00 0. -1.
         11    1    3    3    0    0  0.22655624580E+01 -0.34782278952E+01  0.49266731923E+01  0.64422784438E+01  0.51100000000E-03 0. -1.
        -11    1    3    3    0    0 -0.17716839069E+01  0.43362305717E+01  0.33645617473E+01  0.57673248087E+01  0.51100000000E-03 0.  1.
         12    1    3    3    0    0  0.12044600224E+01  0.38189161192E+02  0.29159228306E+01  0.38319255766E+02  0.00000000000E+00 0. -1.
</event>
<event>
 7    1  0.3041451E-011  0.5052886E+02  0.7816164E-02  0.1300439E+00
        -11   -1    0    0    0    0  0.00000000000E+00  0.00000000000E+00  0.45593999997E+02  0.45594000000E+02  0.51100000000E-03 0.  1.
         11   -1    0    0    0    0 -0.00000000000E+00 -0.00000000000E+00 -0.45593999997E+02  0.45594000000E+02  0.51100000000E-03 0. -1.
    9900012    2    1    2    0    0 -0.84387374153E+01  0.36630393757E+02  0.15497340185E+02  0.50528860944E+02  0.30000003325E+02 0.  0.
         12    1    1    2    0    0  0.84387374153E+01 -0.36630393757E+02 -0.15497340185E+02  0.40659139056E+02  0.00000000000E+00 0. -1.
         11    1    3    3    0    0  0.24287528646E+01  0.69465710197E+01 -0.75421192307E+01  0.10537421514E+02  0.51100000000E-03 0. -1.
        -11    1    3    3    0    0 -0.67491801533E+01  0.11496456803E+02  0.13773356679E+02  0.19168341249E+02  0.51100000000E-03 0.  1.
         12    1    3    3    0    0 -0.41183101266E+01  0.18187365935E+02  0.92661027366E+01  0.20823098181E+02  0.00000000000E+00 0. -1.
</event>
<event>
 7    1  0.3041451E-011  0.5052886E+02  0.7816164E-02  0.1300439E+00
        -11   -1    0    0    0    0  0.00000000000E+00  0.00000000000E+00  0.45593999997E+02  0.45594000000E+02  0.51100000000E-03 0.  1.
         11   -1    0    0    0    0 -0.00000000000E+00 -0.00000000000E+00 -0.45593999997E+02  0.45594000000E+02  0.51100000000E-03 0. -1.
    9900012    2    1    2    0    0  0.90150591035E+01  0.27329418980E+02  0.28722766329E+02  0.50528859109E+02  0.29999997746E+02 0.  0.
         12    1    1    2    0    0 -0.90150591035E+01 -0.27329418980E+02 -0.28722766329E+02  0.40659140891E+02  0.00000000000E+00 0. -1.
         11    1    3    3    0    0  0.96793090305E+00  0.11041936847E+02 -0.86567681947E+00  0.11118032927E+02  0.51100000000E-03 0. -1.
        -11    1    3    3    0    0  0.30851652504E+00  0.12586758631E+02  0.27981498030E+02  0.30683642345E+02  0.51100000000E-03 0.  1.
        -12    1    3    3    0    0  0.77386116754E+01  0.37007235027E+01  0.16069451188E+01  0.87271838367E+01  0.00000000000E+00 0.  1.
</event>
<event>
 7    1  0.3041451E-011  0.5052888E+02  0.7816164E-02  0.1300439E+00
        -11   -1    0    0    0    0  0.00000000000E+00  0.00000000000E+00  0.45593999997E+02  0.45594000000E+02  0.51100000000E-03 0. -1.
         11   -1    0    0    0    0 -0.00000000000E+00 -0.00000000000E+00 -0.45593999997E+02  0.45594000000E+02  0.51100000000E-03 0.  1.
    9900012    2    1    2    0    0 -0.40399610470E+02  0.41740186626E+01 -0.19008707430E+01  0.50528877192E+02  0.30000052713E+02 0.  0.
         12    1    1    2    0    0  0.40399610470E+02 -0.41740186626E+01  0.19008707430E+01  0.40659122808E+02  0.00000000000E+00 0. -1.
         11    1    3    3    0    0 -0.55261877362E+01  0.84725053395E+01  0.81545168382E+01  0.12993007456E+02  0.51100000000E-03 0. -1.
        -11    1    3    3    0    0 -0.90706179548E+01  0.26343810484E+01 -0.27178342064E+01  0.98286670828E+01  0.51100000000E-03 0.  1.
         12    1    3    3    0    0 -0.25802804779E+02 -0.69328677253E+01 -0.73375533748E+01  0.27707202654E+02  0.00000000000E+00 0. -1.
</event>
<event>
 7    1  0.3041451E-011  0.5052885E+02  0.7816164E-02  0.1300439E+00
        -11   -1    0    0    0    0  0.00000000000E+00  0.00000000000E+00  0.45593999997E+02  0.45594000000E+02  0.51100000000E-03 0.  1.
         11   -1    0    0    0    0 -0.00000000000E+00 -0.00000000000E+00 -0.45593999997E+02  0.45594000000E+02  0.51100000000E-03 0. -1.
    9900012    2    1    2    0    0  0.53660261901E-01 -0.27343483805E+02  0.30091482812E+02  0.50528851904E+02  0.29999975848E+02 0.  0.
         12    1    1    2    0    0 -0.53660261901E-01  0.27343483805E+02 -0.30091482812E+02  0.40659148096E+02  0.00000000000E+00 0. -1.
         11    1    3    3    0    0 -0.21672015591E+01 -0.15135831992E+02  0.33694385897E+02  0.37001375839E+02  0.51100000000E-03 0.  1.
        -11    1    3    3    0    0  0.13013093366E+01 -0.33912495759E+01 -0.28767831872E+01  0.46335581838E+01  0.51100000000E-03 0. -1.
         12    1    3    3    0    0  0.91955248438E+00 -0.88164022374E+01 -0.72611989817E+00  0.88939178819E+01  0.00000000000E+00 0. -1.
</event>
<event>
 7    1  0.3041451E-011  0.5052884E+02  0.7816164E-02  0.1300439E+00
        -11   -1    0    0    0    0  0.00000000000E+00  0.00000000000E+00  0.45593999997E+02  0.45594000000E+02  0.51100000000E-03 0.  1.
         11   -1    0    0    0    0 -0.00000000000E+00 -0.00000000000E+00 -0.45593999997E+02  0.45594000000E+02  0.51100000000E-03 0. -1.
    9900012    2    1    2    0    0  0.10873256590E+01  0.33840871311E+02  0.22511780899E+02  0.50528842023E+02  0.29999945813E+02 0.  0.
         12    1    1    2    0    0 -0.10873256590E+01 -0.33840871311E+02 -0.22511780899E+02  0.40659157977E+02  0.00000000000E+00 0. -1.
         11    1    3    3    0    0  0.22636546840E+01  0.53313788605E+01  0.59140845568E+01  0.82779302660E+01  0.51100000000E-03 0.  1.
        -11    1    3    3    0    0 -0.11211252750E+02  0.17989268699E+02  0.17776819487E+02  0.27664440856E+02  0.51100000000E-03 0. -1.
        -12    1    3    3    0    0  0.10034923725E+02  0.10520223751E+02 -0.11791231450E+01  0.14586470901E+02  0.00000000000E+00 0.  1.
</event>
<event>
 7    1  0.3041451E-011  0.5052886E+02  0.7816164E-02  0.1300439E+00
        -11   -1    0    0    0    0  0.00000000000E+00  0.00000000000E+00  0.45593999997E+02  0.45594000000E+02  0.51100000000E-03 0. -1.
         11   -1    0    0    0    0 -0.00000000000E+00 -0.00000000000E+00 -0.45593999997E+02  0.45594000000E+02  0.51100000000E-03 0.  1.
    9900012    2    1    2    0    0 -0.25002447308E+02 -0.37029732274E+01 -0.31848571476E+02  0.50528857275E+02  0.29999992173E+02 0.  0.
         12    1    1    2    0    0  0.25002447308E+02  0.37029732274E+01  0.31848571476E+02  0.40659142725E+02  0.00000000000E+00 0. -1.
         11    1    3    3    0    0 -0.14711688077E+02 -0.16567371196E+02 -0.15287009359E+02  0.26918473393E+02  0.51100000000E-03 0. -1.
        -11    1    3    3    0    0 -0.38899110317E+01  0.53607262240E+01 -0.43976715274E+01  0.79503653128E+01  0.51100000000E-03 0.  1.
         12    1    3    3    0    0 -0.64008481992E+01  0.75036717446E+01 -0.12163890589E+02  0.15660018569E+02  0.00000000000E+00 0. -1.
</event>
<event>
 7    1  0.3041451E-011  0.5052886E+02  0.7816164E-02  0.1300439E+00
        -11   -1    0    0    0    0  0.00000000000E+00  0.00000000000E+00  0.45593999997E+02  0.45594000000E+02  0.51100000000E-03 0. -1.
         11   -1    0    0    0    0 -0.00000000000E+00 -0.00000000000E+00 -0.45593999997E+02  0.45594000000E+02  0.51100000000E-03 0.  1.
    9900012    2    1    2    0    0 -0.32841155633E+02  0.23949765497E+02 -0.10164426020E+01  0.50528856794E+02  0.29999990711E+02 0.  0.
         12    1    1    2    0    0  0.32841155633E+02 -0.23949765497E+02  0.10164426020E+01  0.40659143206E+02  0.00000000000E+00 0. -1.
         11    1    3    3    0    0 -0.18809385064E+02  0.10208418556E+02  0.95966635262E+01  0.23454226208E+02  0.51100000000E-03 0. -1.
        -11    1    3    3    0    0 -0.31715382496E+01  0.13562984245E+02 -0.72587690290E+01  0.15706779573E+02  0.51100000000E-03 0.  1.
         12    1    3    3    0    0 -0.10860232319E+02  0.17836269664E+00 -0.33543370993E+01  0.11367851013E+02  0.00000000000E+00 0. -1.
</event>
<event>
 7    1  0.3041451E-011  0.5052885E+02  0.7816164E-02  0.1300439E+00
        -11   -1    0    0    0    0  0.00000000000E+00  0.00000000000E+00  0.45593999997E+02  0.45594000000E+02  0.51100000000E-03 0.  1.
         11   -1    0    0    0    0 -0.00000000000E+00 -0.00000000000E+00 -0.45593999997E+02  0.45594000000E+02  0.51100000000E-03 0. -1.
    9900012    2    1    2    0    0  0.11581611469E+02  0.21469967063E+02  0.32528035081E+02  0.50528852491E+02  0.29999977633E+02 0.  0.
         12    1    1    2    0    0 -0.11581611469E+02 -0.21469967063E+02 -0.32528035081E+02  0.40659147509E+02  0.00000000000E+00 0. -1.
         11    1    3    3    0    0  0.15431093370E+02  0.69471450229E+01  0.19873925968E+02  0.26102766141E+02  0.51100000000E-03 0.  1.
        -11    1    3    3    0    0 -0.52341751270E+01  0.88155375714E+01  0.14943879796E+02  0.18122633240E+02  0.51100000000E-03 0. -1.
         12    1    3    3    0    0  0.13846932263E+01  0.57072844689E+01 -0.22897706831E+01  0.63034531108E+01  0.00000000000E+00 0. -1.
</event>
<event>
 7    1  0.3041451E-011  0.5052893E+02  0.7816164E-02  0.1300439E+00
        -11   -1    0    0    0    0  0.00000000000E+00  0.00000000000E+00  0.45593999997E+02  0.45594000000E+02  0.51100000000E-03 0.  1.
         11   -1    0    0    0    0 -0.00000000000E+00 -0.00000000000E+00 -0.45593999997E+02  0.45594000000E+02  0.51100000000E-03 0. -1.
    9900012    2    1    2    0    0  0.32407933261E+02  0.22598900694E+02  0.96008246776E+01  0.50528926162E+02  0.30000201563E+02 0.  0.
         12    1    1    2    0    0 -0.32407933261E+02 -0.22598900694E+02 -0.96008246776E+01  0.40659073838E+02  0.00000000000E+00 0. -1.
         11    1    3    3    0    0 -0.13947771817E+00  0.14078828211E+02  0.48346963092E+01  0.14886475287E+02  0.51100000000E-03 0. -1.
        -11    1    3    3    0    0  0.21236618202E+02  0.89968717223E+01  0.70013865193E+01  0.24103050987E+02  0.51100000000E-03 0.  1.
        -12    1    3    3    0    0  0.11310792778E+02 -0.47679923904E+00 -0.22352581509E+01  0.11539399888E+02  0.00000000000E+00 0.  1.
</event>
<event>
 7    1  0.3041451E-011  0.5052887E+02  0.7816164E-02  0.1300439E+00
        -11   -1    0    0    0    0  0.00000000000E+00  0.00000000000E+00  0.45593999997E+02  0.45594000000E+02  0.51100000000E-03 0.  1.
         11   -1    0    0    0    0 -0.00000000000E+00 -0.00000000000E+00 -0.45593999997E+02  0.45594000000E+02  0.51100000000E-03 0. -1.
    9900012    2    1    2    0    0  0.18627600969E+02  0.10324151245E+01  0.36126329672E+02  0.50528867023E+02  0.30000021804E+02 0.  0.
         12    1    1    2    0    0 -0.18627600969E+02 -0.10324151245E+01 -0.36126329672E+02  0.40659132977E+02  0.00000000000E+00 0. -1.
         11    1    3    3    0    0  0.93236213829E+01  0.10531673244E+02  0.14512786998E+02  0.20210567625E+02  0.51100000000E-03 0. -1.
        -11    1    3    3    0    0  0.11381022508E+02 -0.91191718498E+01  0.23386510472E+02  0.27561129166E+02  0.51100000000E-03 0.  1.
         12    1    3    3    0    0 -0.20770429223E+01 -0.38008627015E+00 -0.17729677985E+01  0.27571702320E+01  0.00000000000E+00 0. -1.
</event>
<event>
 7    1  0.3041451E-011  0.5052886E+02  0.7816164E-02  0.1300439E+00
        -11   -1    0    0    0    0  0.00000000000E+00  0.00000000000E+00  0.45593999997E+02  0.45594000000E+02  0.51100000000E-03 0. -1.
         11   -1    0    0    0    0 -0.00000000000E+00 -0.00000000000E+00 -0.45593999997E+02  0.45594000000E+02  0.51100000000E-03 0.  1.
    9900012    2    1    2    0    0  0.82771206467E+01 -0.33047972431E+02  0.22192034893E+02  0.50528860551E+02  0.30000002132E+02 0.  0.
         12    1    1    2    0    0 -0.82771206467E+01  0.33047972431E+02 -0.22192034893E+02  0.40659139449E+02  0.00000000000E+00 0. -1.
         11    1    3    3    0    0  0.13574338331E+01 -0.31605274550E+02  0.65713493394E+01  0.32309729779E+02  0.51100000000E-03 0. -1.
        -11    1    3    3    0    0  0.21124560432E+01 -0.33431261336E+01  0.89112440030E+01  0.97493196081E+01  0.51100000000E-03 0.  1.
         12    1    3    3    0    0  0.48072307703E+01  0.19004282531E+01  0.67094415511E+01  0.84698111639E+01  0.00000000000E+00 0. -1.
</event>
<event>
 7    1  0.3041451E-011  0.5052886E+02  0.7816164E-02  0.1300439E+00
        -11   -1    0    0    0    0  0.00000000000E+00  0.00000000000E+00  0.45593999997E+02  0.45594000000E+02  0.51100000000E-03 0.  1.
         11   -1    0    0    0    0 -0.00000000000E+00 -0.00000000000E+00 -0.45593999997E+02  0.45594000000E+02  0.51100000000E-03 0. -1.
    9900012    2    1    2    0    0  0.11068761560E+02  0.26552134539E+02  0.28733823974E+02  0.50528856241E+02  0.29999989029E+02 0.  0.
         12    1    1    2    0    0 -0.11068761560E+02 -0.26552134539E+02 -0.28733823974E+02  0.40659143759E+02  0.00000000000E+00 0. -1.
         11    1    3    3    0    0 -0.20927544716E+01  0.51958960259E+01 -0.28025093179E+01  0.62634667340E+01  0.51100000000E-03 0. -1.
        -11    1    3    3    0    0  0.14365795502E+02  0.12716260637E+02  0.29688899303E+02  0.35348410248E+02  0.51100000000E-03 0.  1.
        -12    1    3    3    0    0 -0.12042794705E+01  0.86399778765E+01  0.18474339895E+01  0.89169792585E+01  0.00000000000E+00 0.  1.
</event>
<event>
 7    1  0.3041451E-011  0.5052887E+02  0.7816164E-02  0.1300439E+00
        -11   -1    0    0    0    0  0.00000000000E+00  0.00000000000E+00  0.45593999997E+02  0.45594000000E+02  0.51100000000E-03 0.  1.
         11   -1    0    0    0    0 -0.00000000000E+00 -0.00000000000E+00 -0.45593999997E+02  0.45594000000E+02  0.51100000000E-03 0. -1.
    9900012    2    1    2    0    0  0.18635253824E+02 -0.31390026799E+02  0.17904143744E+02  0.50528870265E+02  0.30000031659E+02 0.  0.
         12    1    1    2    0    0 -0.18635253824E+02  0.31390026799E+02 -0.17904143744E+02  0.40659129735E+02  0.00000000000E+00 0. -1.
         11    1    3    3    0    0  0.10888094258E+00 -0.19670550001E+01  0.74673071772E+01  0.77228127760E+01  0.51100000000E-03 0. -1.
        -11    1    3    3    0    0  0.38607635531E+01 -0.19510139952E+02 -0.36035938523E+01  0.20212296878E+02  0.51100000000E-03 0.  1.
        -12    1    3    3    0    0  0.14665609329E+02 -0.99128318472E+01  0.14040430419E+02  0.22593760612E+02  0.00000000000E+00 0.  1.
</event>
<event>
 7    1  0.3041451E-011  0.5052886E+02  0.7816164E-02  0.1300439E+00
        -11   -1    0    0    0    0  0.00000000000E+00  0.00000000000E+00  0.45593999997E+02  0.45594000000E+02  0.51100000000E-03 0.  1.
         11   -1    0    0    0    0 -0.00000000000E+00 -0.00000000000E+00 -0.45593999997E+02  0.45594000000E+02  0.51100000000E-03 0. -1.
    9900012    2    1    2    0    0  0.23079614317E+02 -0.13718974394E+02  0.30533375752E+02  0.50528857237E+02  0.29999992057E+02 0.  0.
         12    1    1    2    0    0 -0.23079614317E+02  0.13718974394E+02 -0.30533375752E+02  0.40659142763E+02  0.00000000000E+00 0. -1.
         11    1    3    3    0    0  0.25260194665E+01 -0.69856906993E+01  0.81413846980E+01  0.11021016013E+02  0.51100000000E-03 0. -1.
        -11    1    3    3    0    0  0.18088887711E+02  0.34195656569E-01  0.25824355768E+02  0.31529452565E+02  0.51100000000E-03 0.  1.
        -12    1    3    3    0    0  0.24647071395E+01 -0.67674793514E+01 -0.34323647144E+01  0.79783886586E+01  0.00000000000E+00 0.  1.
</event>
<event>
 7    1  0.3041451E-011  0.5052885E+02  0.7816164E-02  0.1300439E+00
        -11   -1    0    0    0    0  0.00000000000E+00  0.00000000000E+00  0.45593999997E+02  0.45594000000E+02  0.51100000000E-03 0.  1.
         11   -1    0    0    0    0 -0.00000000000E+00 -0.00000000000E+00 -0.45593999997E+02  0.45594000000E+02  0.51100000000E-03 0. -1.
    9900012    2    1    2    0    0  0.97667200047E+01  0.43447161289E+01  0.39228828128E+02  0.50528851778E+02  0.29999975464E+02 0.  0.
         12    1    1    2    0    0 -0.97667200047E+01 -0.43447161289E+01 -0.39228828128E+02  0.40659148222E+02  0.00000000000E+00 0. -1.
         11    1    3    3    0    0  0.11580401665E+02 -0.45481290875E+00  0.17334910867E+02  0.20852138800E+02  0.51100000000E-03 0. -1.
        -11    1    3    3    0    0 -0.38838185340E+01  0.96216157879E+01  0.22111070652E+02  0.24424556954E+02  0.51100000000E-03 0.  1.
        -12    1    3    3    0    0  0.20701368735E+01 -0.48220867503E+01 -0.21715339107E+00  0.52521560237E+01  0.00000000000E+00 0.  1.
</event>
<event>
 7    1  0.3041451E-011  0.5052886E+02  0.7816164E-02  0.1300439E+00
        -11   -1    0    0    0    0  0.00000000000E+00  0.00000000000E+00  0.45593999997E+02  0.45594000000E+02  0.51100000000E-03 0. -1.
         11   -1    0    0    0    0 -0.00000000000E+00 -0.00000000000E+00 -0.45593999997E+02  0.45594000000E+02  0.51100000000E-03 0.  1.
    9900012    2    1    2    0    0  0.37919142669E+02  0.10102995686E+02 -0.10641135727E+02  0.50528859919E+02  0.30000000209E+02 0.  0.
         12    1    1    2    0    0 -0.37919142669E+02 -0.10102995686E+02  0.10641135727E+02  0.40659140081E+02  0.00000000000E+00 0. -1.
         11    1    3    3    0    0  0.10753264783E+01  0.10286697688E+02 -0.26725295530E+01  0.10682457154E+02  0.51100000000E-03 0. -1.
        -11    1    3    3    0    0  0.32643040517E+02 -0.44428401189E+01 -0.78342032974E+01  0.33862688376E+02  0.51100000000E-03 0.  1.
        -12    1    3    3    0    0  0.42007756742E+01  0.42591381162E+01 -0.13440287637E+00  0.59837143891E+01  0.00000000000E+00 0.  1.
</event>
<event>
 7    1  0.3041451E-011  0.5052886E+02  0.7816164E-02  0.1300439E+00
        -11   -1    0    0    0    0  0.00000000000E+00  0.00000000000E+00  0.45593999997E+02  0.45594000000E+02  0.51100000000E-03 0. -1.
         11   -1    0    0    0    0 -0.00000000000E+00 -0.00000000000E+00 -0.45593999997E+02  0.45594000000E+02  0.51100000000E-03 0.  1.
    9900012    2    1    2    0    0 -0.17631262788E+02  0.32563119549E+02 -0.16791288206E+02  0.50528861521E+02  0.30000005078E+02 0.  0.
         12    1    1    2    0    0  0.17631262788E+02 -0.32563119549E+02  0.16791288206E+02  0.40659138479E+02  0.00000000000E+00 0. -1.
         11    1    3    3    0    0  0.85881011640E+00  0.87471074402E+01  0.23079088189E+00  0.87921958622E+01  0.51100000000E-03 0. -1.
        -11    1    3    3    0    0 -0.85308278647E+01  0.83264145013E+01 -0.19801695320E+02  0.23113012359E+02  0.51100000000E-03 0.  1.
        -12    1    3    3    0    0 -0.99592450393E+01  0.15489597608E+02  0.27796162323E+01  0.18623653299E+02  0.00000000000E+00 0.  1.
</event>
<event>
 7    1  0.3041451E-011  0.5052887E+02  0.7816164E-02  0.1300439E+00
        -11   -1    0    0    0    0  0.00000000000E+00  0.00000000000E+00  0.45593999997E+02  0.45594000000E+02  0.51100000000E-03 0.  1.
         11   -1    0    0    0    0 -0.00000000000E+00 -0.00000000000E+00 -0.45593999997E+02  0.45594000000E+02  0.51100000000E-03 0. -1.
    9900012    2    1    2    0    0  0.23121780687E+02  0.32519333091E+02  0.78128762967E+01  0.50528870609E+02  0.30000032703E+02 0.  0.
         12    1    1    2    0    0 -0.23121780687E+02 -0.32519333091E+02 -0.78128762967E+01  0.40659129391E+02  0.00000000000E+00 0. -1.
         11    1    3    3    0    0  0.63846692846E+01  0.19143600749E+02  0.10795404184E+02  0.22886288543E+02  0.51100000000E-03 0. -1.
        -11    1    3    3    0    0  0.17371376065E+02  0.78063895938E+01 -0.74748865856E+01  0.20459187536E+02  0.51100000000E-03 0.  1.
        -12    1    3    3    0    0 -0.63426466312E+00  0.55693427478E+01  0.44923586980E+01  0.71833945302E+01  0.00000000000E+00 0.  1.
</event>
<event>
 7    1  0.3041451E-011  0.5052886E+02  0.7816164E-02  0.1300439E+00
        -11   -1    0    0    0    0  0.00000000000E+00  0.00000000000E+00  0.45593999997E+02  0.45594000000E+02  0.51100000000E-03 0.  1.
         11   -1    0    0    0    0 -0.00000000000E+00 -0.00000000000E+00 -0.45593999997E+02  0.45594000000E+02  0.51100000000E-03 0. -1.
    9900012    2    1    2    0    0  0.27532261220E+01 -0.40201297789E+02  0.54259540895E+01  0.50528861104E+02  0.30000003812E+02 0.  0.
         12    1    1    2    0    0 -0.27532261220E+01  0.40201297789E+02 -0.54259540895E+01  0.40659138896E+02  0.00000000000E+00 0. -1.
         11    1    3    3    0    0  0.87200788456E+01 -0.57905608055E+01 -0.18108579892E+01  0.10623068127E+02  0.51100000000E-03 0. -1.
        -11    1    3    3    0    0 -0.83595112605E+01 -0.12427785709E+02 -0.34136890010E+01  0.15361788926E+02  0.51100000000E-03 0.  1.
        -12    1    3    3    0    0  0.23926585369E+01 -0.21982951274E+02  0.10650501080E+02  0.24544004051E+02  0.00000000000E+00 0.  1.
</event>
<event>
 7    1  0.3041451E-011  0.5052886E+02  0.7816164E-02  0.1300439E+00
        -11   -1    0    0    0    0  0.00000000000E+00  0.00000000000E+00  0.45593999997E+02  0.45594000000E+02  0.51100000000E-03 0.  1.
         11   -1    0    0    0    0 -0.00000000000E+00 -0.00000000000E+00 -0.45593999997E+02  0.45594000000E+02  0.51100000000E-03 0. -1.
    9900012    2    1    2    0    0  0.28281607665E+02 -0.98809551252E+01  0.27489692066E+02  0.50528858639E+02  0.29999996318E+02 0.  0.
         12    1    1    2    0    0 -0.28281607665E+02  0.98809551252E+01 -0.27489692066E+02  0.40659141361E+02  0.00000000000E+00 0. -1.
         11    1    3    3    0    0 -0.34562968522E+00  0.52164914550E+01  0.63023651249E+01  0.81884705171E+01  0.51100000000E-03 0. -1.
        -11    1    3    3    0    0  0.24542592096E+02 -0.17415396090E+02  0.12748515239E+02  0.32682709325E+02  0.51100000000E-03 0.  1.
        -12    1    3    3    0    0  0.40846452548E+01  0.23179495096E+01  0.84388117029E+01  0.96576787969E+01  0.00000000000E+00 0.  1.
</event>
<event>
 7    1  0.3041451E-011  0.5052886E+02  0.7816164E-02  0.1300439E+00
        -11   -1    0    0    0    0  0.00000000000E+00  0.00000000000E+00  0.45593999997E+02  0.45594000000E+02  0.51100000000E-03 0. -1.
         11   -1    0    0    0    0 -0.00000000000E+00 -0.00000000000E+00 -0.45593999997E+02  0.45594000000E+02  0.51100000000E-03 0.  1.
    9900012    2    1    2    0    0  0.18276635545E+02 -0.22546135902E+02 -0.28474581669E+02  0.50528862624E+02  0.30000008431E+02 0.  0.
         12    1    1    2    0    0 -0.18276635545E+02  0.22546135902E+02  0.28474581669E+02  0.40659137376E+02  0.00000000000E+00 0. -1.
         11    1    3    3    0    0  0.99310727337E+01 -0.11941718724E+02 -0.74452238069E+00  0.15549442613E+02  0.51100000000E-03 0. -1.
        -11    1    3    3    0    0 -0.13844895328E+01 -0.36043215638E+01 -0.20755297842E+02  0.21111379253E+02  0.51100000000E-03 0.  1.
        -12    1    3    3    0    0  0.97300523445E+01 -0.70000956143E+01 -0.69747614459E+01  0.13868040758E+02  0.00000000000E+00 0.  1.
</event>
<event>
 7    1  0.3041451E-011  0.5052883E+02  0.7816164E-02  0.1300439E+00
        -11   -1    0    0    0    0  0.00000000000E+00  0.00000000000E+00  0.45593999997E+02  0.45594000000E+02  0.51100000000E-03 0.  1.
         11   -1    0    0    0    0 -0.00000000000E+00 -0.00000000000E+00 -0.45593999997E+02  0.45594000000E+02  0.51100000000E-03 0. -1.
    9900012    2    1    2    0    0 -0.69455694752E+00  0.22005009484E+02  0.34182825035E+02  0.50528826630E+02  0.29999899025E+02 0.  0.
         12    1    1    2    0    0  0.69455694752E+00 -0.22005009484E+02 -0.34182825035E+02  0.40659173370E+02  0.00000000000E+00 0. -1.
         11    1    3    3    0    0 -0.58505382216E+01  0.20154213949E+02  0.83426357834E+01  0.22583638091E+02  0.51100000000E-03 0. -1.
        -11    1    3    3    0    0  0.30824115133E+01 -0.34219028163E+01  0.15307520252E+02  0.15985332532E+02  0.51100000000E-03 0.  1.
        -12    1    3    3    0    0  0.20735697607E+01  0.52726983513E+01  0.10532669000E+02  0.11959856007E+02  0.00000000000E+00 0.  1.
</event>
<event>
 7    1  0.3132081E-011  0.5052890E+02  0.7816164E-02  0.1300439E+00
        -11   -1    0    0    0    0  0.00000000000E+00  0.00000000000E+00  0.45593999997E+02  0.45594000000E+02  0.51100000000E-03 0. -1.
         11   -1    0    0    0    0 -0.00000000000E+00 -0.00000000000E+00 -0.45593999997E+02  0.45594000000E+02  0.51100000000E-03 0.  1.
    9900012    2    1    2    0    0  0.91224142378E+01 -0.51376279343E+01 -0.39288020700E+02  0.50528902213E+02  0.30000128767E+02 0.  0.
         12    1    1    2    0    0 -0.91224142378E+01  0.51376279343E+01  0.39288020700E+02  0.40659097787E+02  0.00000000000E+00 0. -1.
         11    1    3    3    0    0  0.22662416860E+00 -0.11331493041E+02 -0.75281043653E+01  0.13606118059E+02  0.51100000000E-03 0. -1.
        -11    1    3    3    0    0  0.21063854629E+01  0.25912660513E+00 -0.26290757456E+02  0.26376275972E+02  0.51100000000E-03 0.  1.
         12    1    3    3    0    0  0.67894046064E+01  0.59347385011E+01 -0.54691588789E+01  0.10546508182E+02  0.00000000000E+00 0. -1.
</event>
<event>
 7    1  0.3041451E-011  0.5052886E+02  0.7816164E-02  0.1300439E+00
        -11   -1    0    0    0    0  0.00000000000E+00  0.00000000000E+00  0.45593999997E+02  0.45594000000E+02  0.51100000000E-03 0.  1.
         11   -1    0    0    0    0 -0.00000000000E+00 -0.00000000000E+00 -0.45593999997E+02  0.45594000000E+02  0.51100000000E-03 0. -1.
    9900012    2    1    2    0    0 -0.32343141837E+02  0.10314328724E+02  0.22376354066E+02  0.50528862992E+02  0.30000009552E+02 0.  0.
         12    1    1    2    0    0  0.32343141837E+02 -0.10314328724E+02 -0.22376354066E+02  0.40659137008E+02  0.00000000000E+00 0. -1.
         11    1    3    3    0    0  0.56064755028E-01  0.74392175303E+00 -0.61996272989E+00  0.97000870046E+00  0.51100000000E-03 0. -1.
        -11    1    3    3    0    0 -0.56553836518E+01 -0.81468801076E+01 -0.28429327265E+00  0.99214838942E+01  0.51100000000E-03 0.  1.
        -12    1    3    3    0    0 -0.26743822940E+02  0.17717287078E+02  0.23280610069E+02  0.39637370398E+02  0.00000000000E+00 0.  1.
</event>
<event>
 7    1  0.3041451E-011  0.5052884E+02  0.7816164E-02  0.1300439E+00
        -11   -1    0    0    0    0  0.00000000000E+00  0.00000000000E+00  0.45593999997E+02  0.45594000000E+02  0.51100000000E-03 0.  1.
         11   -1    0    0    0    0 -0.00000000000E+00 -0.00000000000E+00 -0.45593999997E+02  0.45594000000E+02  0.51100000000E-03 0. -1.
    9900012    2    1    2    0    0  0.17072809397E+02 -0.52337945953E+01  0.36527989589E+02  0.50528838056E+02  0.29999933755E+02 0.  0.
         12    1    1    2    0    0 -0.17072809397E+02  0.52337945953E+01 -0.36527989589E+02  0.40659161944E+02  0.00000000000E+00 0. -1.
         11    1    3    3    0    0  0.16184824304E+01 -0.10816728903E+02  0.30660873606E+02  0.32553191550E+02  0.51100000000E-03 0. -1.
        -11    1    3    3    0    0  0.51330505109E+01  0.39328072369E+01  0.14427312988E+01  0.66254550162E+01  0.51100000000E-03 0.  1.
         12    1    3    3    0    0  0.10321276456E+02  0.16501270712E+01  0.44243846848E+01  0.11350191490E+02  0.00000000000E+00 0. -1.
</event>
<event>
 7    1  0.3041451E-011  0.5052887E+02  0.7816164E-02  0.1300439E+00
        -11   -1    0    0    0    0  0.00000000000E+00  0.00000000000E+00  0.45593999997E+02  0.45594000000E+02  0.51100000000E-03 0. -1.
         11   -1    0    0    0    0 -0.00000000000E+00 -0.00000000000E+00 -0.45593999997E+02  0.45594000000E+02  0.51100000000E-03 0.  1.
    9900012    2    1    2    0    0  0.20813770439E+02 -0.14201636176E+02 -0.31910272579E+02  0.50528868110E+02  0.30000025108E+02 0.  0.
         12    1    1    2    0    0 -0.20813770439E+02  0.14201636176E+02  0.31910272579E+02  0.40659131890E+02  0.00000000000E+00 0. -1.
         11    1    3    3    0    0  0.41284578026E+01 -0.93869796836E+01  0.30229829639E+01  0.10691023228E+02  0.51100000000E-03 0. -1.
        -11    1    3    3    0    0  0.12388590835E+02 -0.12728244785E+01 -0.17092511836E+02  0.21148314972E+02  0.51100000000E-03 0.  1.
         12    1    3    3    0    0  0.42967218015E+01 -0.35418320140E+01 -0.17840743706E+02  0.18689529910E+02  0.00000000000E+00 0. -1.
</event>
<event>
 7    1  0.3041451E-011  0.5052886E+02  0.7816164E-02  0.1300439E+00
        -11   -1    0    0    0    0  0.00000000000E+00  0.00000000000E+00  0.45593999997E+02  0.45594000000E+02  0.51100000000E-03 0.  1.
         11   -1    0    0    0    0 -0.00000000000E+00 -0.00000000000E+00 -0.45593999997E+02  0.45594000000E+02  0.51100000000E-03 0. -1.
    9900012    2    1    2    0    0  0.14150349308E+02  0.14387457816E+01  0.38090195563E+02  0.50528863597E+02  0.30000011390E+02 0.  0.
         12    1    1    2    0    0 -0.14150349308E+02 -0.14387457816E+01 -0.38090195563E+02  0.40659136403E+02  0.00000000000E+00 0. -1.
         11    1    3    3    0    0  0.12087618711E+02  0.48105030359E+01  0.29416991141E+02  0.32165366990E+02  0.51100000000E-03 0. -1.
        -11    1    3    3    0    0 -0.66671817170E+01 -0.81402220098E+00  0.56511105504E+01  0.87777556873E+01  0.51100000000E-03 0.  1.
         12    1    3    3    0    0  0.87299123140E+01 -0.25577350533E+01  0.30220938721E+01  0.95857409200E+01  0.00000000000E+00 0. -1.
</event>
<event>
 7    1  0.3041451E-011  0.5052886E+02  0.7816164E-02  0.1300439E+00
        -11   -1    0    0    0    0  0.00000000000E+00  0.00000000000E+00  0.45593999997E+02  0.45594000000E+02  0.51100000000E-03 0. -1.
         11   -1    0    0    0    0 -0.00000000000E+00 -0.00000000000E+00 -0.45593999997E+02  0.45594000000E+02  0.51100000000E-03 0.  1.
    9900012    2    1    2    0    0 -0.35827097205E+02  0.80046718465E+01  0.17478848789E+02  0.50528858095E+02  0.29999994665E+02 0.  0.
         12    1    1    2    0    0  0.35827097205E+02 -0.80046718465E+01 -0.17478848789E+02  0.40659141905E+02  0.00000000000E+00 0. -1.
         11    1    3    3    0    0  0.42431943197E+01  0.52188368774E+01  0.17051236936E+01  0.69389050620E+01  0.51100000000E-03 0. -1.
        -11    1    3    3    0    0 -0.22137050892E+02  0.35029388914E+01  0.62278952932E+01  0.23261691321E+02  0.51100000000E-03 0.  1.
         12    1    3    3    0    0 -0.17933240633E+02 -0.71710392231E+00  0.95458298017E+01  0.20328261712E+02  0.00000000000E+00 0. -1.
</event>
<event>
 7    1  0.3041451E-011  0.5052885E+02  0.7816164E-02  0.1300439E+00
        -11   -1    0    0    0    0  0.00000000000E+00  0.00000000000E+00  0.45593999997E+02  0.45594000000E+02  0.51100000000E-03 0.  1.
         11   -1    0    0    0    0 -0.00000000000E+00 -0.00000000000E+00 -0.45593999997E+02  0.45594000000E+02  0.51100000000E-03 0. -1.
    9900012    2    1    2    0    0  0.17734430005E+02  0.16991669156E+02  0.32402769332E+02  0.50528852336E+02  0.29999977161E+02 0.  0.
         12    1    1    2    0    0 -0.17734430005E+02 -0.16991669156E+02 -0.32402769332E+02  0.40659147664E+02  0.00000000000E+00 0. -1.
         11    1    3    3    0    0 -0.86136784064E+00  0.34517115049E+01  0.10012686325E+02  0.10625918999E+02  0.51100000000E-03 0. -1.
        -11    1    3    3    0    0 -0.70601852500E+00  0.76736444383E+01 -0.22784767363E+01  0.80358408161E+01  0.51100000000E-03 0.  1.
        -12    1    3    3    0    0  0.19301816371E+02  0.58663132131E+01  0.24668559744E+02  0.31867092521E+02  0.00000000000E+00 0.  1.
</event>
<event>
 7    1  0.3041451E-011  0.5052888E+02  0.7816164E-02  0.1300439E+00
        -11   -1    0    0    0    0  0.00000000000E+00  0.00000000000E+00  0.45593999997E+02  0.45594000000E+02  0.51100000000E-03 0.  1.
         11   -1    0    0    0    0 -0.00000000000E+00 -0.00000000000E+00 -0.45593999997E+02  0.45594000000E+02  0.51100000000E-03 0. -1.
    9900012    2    1    2    0    0 -0.36788608974E+02 -0.16717818299E+02  0.45030206946E+01  0.50528875633E+02  0.30000047974E+02 0.  0.
         12    1    1    2    0    0  0.36788608974E+02  0.16717818299E+02 -0.45030206946E+01  0.40659124367E+02  0.00000000000E+00 0. -1.
         11    1    3    3    0    0 -0.77760980376E+01  0.46204185235E+01 -0.22125063006E+01  0.93118823239E+01  0.51100000000E-03 0. -1.
        -11    1    3    3    0    0 -0.22553982036E+02 -0.14109592644E+02  0.13055105359E+02  0.29634413888E+02  0.51100000000E-03 0.  1.
        -12    1    3    3    0    0 -0.64585289008E+01 -0.72286441780E+01 -0.63395783642E+01  0.11582579421E+02  0.00000000000E+00 0.  1.
</event>
<event>
 7    1  0.3041451E-011  0.5052886E+02  0.7816164E-02  0.1300439E+00
        -11   -1    0    0    0    0  0.00000000000E+00  0.00000000000E+00  0.45593999997E+02  0.45594000000E+02  0.51100000000E-03 0.  1.
         11   -1    0    0    0    0 -0.00000000000E+00 -0.00000000000E+00 -0.45593999997E+02  0.45594000000E+02  0.51100000000E-03 0. -1.
    9900012    2    1    2    0    0 -0.18799187126E+02  0.17726071895E+01  0.36008522922E+02  0.50528864546E+02  0.30000014274E+02 0.  0.
         12    1    1    2    0    0  0.18799187126E+02 -0.17726071895E+01 -0.36008522922E+02  0.40659135454E+02  0.00000000000E+00 0. -1.
         11    1    3    3    0    0 -0.10385100474E+02 -0.25610186861E+01  0.38864162513E+01  0.11380393671E+02  0.51100000000E-03 0. -1.
        -11    1    3    3    0    0  0.65659965765E+01  0.56145538159E+00  0.12923159319E+02  0.14506398252E+02  0.51100000000E-03 0.  1.
        -12    1    3    3    0    0 -0.14980083229E+02  0.37721704940E+01  0.19198947352E+02  0.24642072624E+02  0.00000000000E+00 0.  1.
</event>
<event>
 7    1  0.3041451E-011  0.5052886E+02  0.7816164E-02  0.1300439E+00
        -11   -1    0    0    0    0  0.00000000000E+00  0.00000000000E+00  0.45593999997E+02  0.45594000000E+02  0.51100000000E-03 0.  1.
         11   -1    0    0    0    0 -0.00000000000E+00 -0.00000000000E+00 -0.45593999997E+02  0.45594000000E+02  0.51100000000E-03 0. -1.
    9900012    2    1    2    0    0  0.87687292923E+01  0.62766518599E+00  0.39697366029E+02  0.50528862692E+02  0.30000008638E+02 0.  0.
         12    1    1    2    0    0 -0.87687292923E+01 -0.62766518599E+00 -0.39697366029E+02  0.40659137308E+02  0.00000000000E+00 0. -1.
         11    1    3    3    0    0 -0.86035370566E+01 -0.14892542385E+01  0.24824216688E+02  0.26315023513E+02  0.51100000000E-03 0. -1.
        -11    1    3    3    0    0  0.84150164335E+01  0.46808841905E+01  0.59874980032E+01  0.11339017196E+02  0.51100000000E-03 0.  1.
         12    1    3    3    0    0  0.89572499154E+01 -0.25639647660E+01  0.88856513380E+01  0.12874821982E+02  0.00000000000E+00 0. -1.
</event>
<event>
 7    1  0.3041451E-011  0.5052886E+02  0.7816164E-02  0.1300439E+00
        -11   -1    0    0    0    0  0.00000000000E+00  0.00000000000E+00  0.45593999997E+02  0.45594000000E+02  0.51100000000E-03 0. -1.
         11   -1    0    0    0    0 -0.00000000000E+00 -0.00000000000E+00 -0.45593999997E+02  0.45594000000E+02  0.51100000000E-03 0.  1.
    9900012    2    1    2    0    0  0.31611062745E+02  0.23222222488E+02 -0.10706777599E+02  0.50528855989E+02  0.29999988264E+02 0.  0.
         12    1    1    2    0    0 -0.31611062745E+02 -0.23222222488E+02  0.10706777599E+02  0.40659144011E+02  0.00000000000E+00 0. -1.
         11    1    3    3    0    0 -0.73794056885E+00  0.17674843100E+01 -0.52966898897E+01  0.56323601729E+01  0.51100000000E-03 0. -1.
        -11    1    3    3    0    0  0.21721118843E+02  0.21003275577E+02  0.42683661826E+01  0.30514972373E+02  0.51100000000E-03 0.  1.
        -12    1    3    3    0    0  0.10627884471E+02  0.45146260065E+00 -0.96784538918E+01  0.14381523443E+02  0.00000000000E+00 0.  1.
</event>
<event>
 7    1  0.3041451E-011  0.5052882E+02  0.7816164E-02  0.1300439E+00
        -11   -1    0    0    0    0  0.00000000000E+00  0.00000000000E+00  0.45593999997E+02  0.45594000000E+02  0.51100000000E-03 0.  1.
         11   -1    0    0    0    0 -0.00000000000E+00 -0.00000000000E+00 -0.45593999997E+02  0.45594000000E+02  0.51100000000E-03 0. -1.
    9900012    2    1    2    0    0 -0.13645236589E+02 -0.34736607539E+02  0.16135192858E+02  0.50528821043E+02  0.29999882041E+02 0.  0.
         12    1    1    2    0    0  0.13645236589E+02  0.34736607539E+02 -0.16135192858E+02  0.40659178957E+02  0.00000000000E+00 0. -1.
         11    1    3    3    0    0  0.50602215663E+01 -0.23926557113E+02  0.26905702179E+01  0.24603356396E+02  0.51100000000E-03 0. -1.
        -11    1    3    3    0    0 -0.68813182714E+01 -0.66183714062E+01  0.47660290241E+01  0.10671008113E+02  0.51100000000E-03 0.  1.
         12    1    3    3    0    0 -0.11824139884E+02 -0.41916790199E+01  0.86785936158E+01  0.15254456534E+02  0.00000000000E+00 0. -1.
</event>
<event>
 7    1  0.3041451E-011  0.5052886E+02  0.7816164E-02  0.1300439E+00
        -11   -1    0    0    0    0  0.00000000000E+00  0.00000000000E+00  0.45593999997E+02  0.45594000000E+02  0.51100000000E-03 0.  1.
         11   -1    0    0    0    0 -0.00000000000E+00 -0.00000000000E+00 -0.45593999997E+02  0.45594000000E+02  0.51100000000E-03 0. -1.
    9900012    2    1    2    0    0 -0.95463913590E+01  0.27537384958E+02  0.28350038260E+02  0.50528858006E+02  0.29999994396E+02 0.  0.
         12    1    1    2    0    0  0.95463913590E+01 -0.27537384958E+02 -0.28350038260E+02  0.40659141994E+02  0.00000000000E+00 0. -1.
         11    1    3    3    0    0  0.84272591522E+01  0.56372643814E+01  0.79797812254E+00  0.10170261347E+02  0.51100000000E-03 0. -1.
        -11    1    3    3    0    0 -0.99772894925E+01  0.17978932329E+02  0.18487414558E+02  0.27650909761E+02  0.51100000000E-03 0.  1.
         12    1    3    3    0    0 -0.79963610188E+01  0.39211882470E+01  0.90646455802E+01  0.12707686898E+02  0.00000000000E+00 0. -1.
</event>
<event>
 7    1  0.3041451E-011  0.5052886E+02  0.7816164E-02  0.1300439E+00
        -11   -1    0    0    0    0  0.00000000000E+00  0.00000000000E+00  0.45593999997E+02  0.45594000000E+02  0.51100000000E-03 0.  1.
         11   -1    0    0    0    0 -0.00000000000E+00 -0.00000000000E+00 -0.45593999997E+02  0.45594000000E+02  0.51100000000E-03 0. -1.
    9900012    2    1    2    0    0 -0.69923901398E+01  0.22540498654E+02  0.33108876756E+02  0.50528864255E+02  0.30000013390E+02 0.  0.
         12    1    1    2    0    0  0.69923901398E+01 -0.22540498654E+02 -0.33108876756E+02  0.40659135745E+02  0.00000000000E+00 0. -1.
         11    1    3    3    0    0 -0.10150438711E+02 -0.32323434497E+01  0.83611000545E+01  0.13542062051E+02  0.51100000000E-03 0. -1.
        -11    1    3    3    0    0 -0.26149486650E+01  0.15204552230E+02  0.13240199229E+02  0.20330254325E+02  0.51100000000E-03 0.  1.
         12    1    3    3    0    0  0.57729972367E+01  0.10568289874E+02  0.11507577473E+02  0.16656547880E+02  0.00000000000E+00 0. -1.
</event>
<event>
 7    1  0.3041451E-011  0.5052886E+02  0.7816164E-02  0.1300439E+00
        -11   -1    0    0    0    0  0.00000000000E+00  0.00000000000E+00  0.45593999997E+02  0.45594000000E+02  0.51100000000E-03 0.  1.
         11   -1    0    0    0    0 -0.00000000000E+00 -0.00000000000E+00 -0.45593999997E+02  0.45594000000E+02  0.51100000000E-03 0. -1.
    9900012    2    1    2    0    0 -0.27326997489E+02 -0.26337400259E+02  0.14585699087E+02  0.50528855124E+02  0.29999985636E+02 0.  0.
         12    1    1    2    0    0  0.27326997489E+02  0.26337400259E+02 -0.14585699087E+02  0.40659144876E+02  0.00000000000E+00 0. -1.
         11    1    3    3    0    0  0.27073974069E+01 -0.21589862235E+01 -0.39369966716E+01  0.52432018162E+01  0.51100000000E-03 0. -1.
        -11    1    3    3    0    0 -0.21440430667E+02 -0.78897460623E+01  0.90241554609E+01  0.24563703755E+02  0.51100000000E-03 0.  1.
         12    1    3    3    0    0 -0.85939642285E+01 -0.16288667973E+02  0.94985402978E+01  0.20721949553E+02  0.00000000000E+00 0. -1.
</event>
<event>
 7    1  0.3041451E-011  0.5052887E+02  0.7816164E-02  0.1300439E+00
        -11   -1    0    0    0    0  0.00000000000E+00  0.00000000000E+00  0.45593999997E+02  0.45594000000E+02  0.51100000000E-03 0. -1.
         11   -1    0    0    0    0 -0.00000000000E+00 -0.00000000000E+00 -0.45593999997E+02  0.45594000000E+02  0.51100000000E-03 0.  1.
    9900012    2    1    2    0    0 -0.25699386618E+02  0.31393091459E+02 -0.26796209842E+01  0.50528867785E+02  0.30000024118E+02 0.  0.
         12    1    1    2    0    0  0.25699386618E+02 -0.31393091459E+02  0.26796209842E+01  0.40659132215E+02  0.00000000000E+00 0. -1.
         11    1    3    3    0    0  0.17449630685E+00  0.10827932655E+02 -0.22197974140E+01  0.11054504754E+02  0.51100000000E-03 0. -1.
        -11    1    3    3    0    0 -0.16399010627E+02  0.51246171662E+01 -0.90569367674E+01  0.19422084196E+02  0.51100000000E-03 0.  1.
        -12    1    3    3    0    0 -0.94748722976E+01  0.15440541639E+02  0.85971131972E+01  0.20052278835E+02  0.00000000000E+00 0.  1.
</event>
<event>
 7    1  0.3041451E-011  0.5052883E+02  0.7816164E-02  0.1300439E+00
        -11   -1    0    0    0    0  0.00000000000E+00  0.00000000000E+00  0.45593999997E+02  0.45594000000E+02  0.51100000000E-03 0.  1.
         11   -1    0    0    0    0 -0.00000000000E+00 -0.00000000000E+00 -0.45593999997E+02  0.45594000000E+02  0.51100000000E-03 0. -1.
    9900012    2    1    2    0    0 -0.24033005531E+02  0.26529720751E+02  0.19280982340E+02  0.50528834761E+02  0.29999923739E+02 0.  0.
         12    1    1    2    0    0  0.24033005531E+02 -0.26529720751E+02 -0.19280982340E+02  0.40659165239E+02  0.00000000000E+00 0. -1.
         11    1    3    3    0    0  0.49651549326E+01  0.29700549494E+01 -0.11801815741E+01  0.59048131821E+01  0.51100000000E-03 0. -1.
        -11    1    3    3    0    0 -0.24586141587E+02  0.23705998380E+02  0.21126893251E+02  0.40159660556E+02  0.51100000000E-03 0.  1.
         12    1    3    3    0    0 -0.44120188762E+01 -0.14633257814E+00 -0.66572933687E+00  0.44643610222E+01  0.00000000000E+00 0. -1.
</event>
<event>
 7    1  0.3041451E-011  0.5052887E+02  0.7816164E-02  0.1300439E+00
        -11   -1    0    0    0    0  0.00000000000E+00  0.00000000000E+00  0.45593999997E+02  0.45594000000E+02  0.51100000000E-03 0.  1.
         11   -1    0    0    0    0 -0.00000000000E+00 -0.00000000000E+00 -0.45593999997E+02  0.45594000000E+02  0.51100000000E-03 0. -1.
    9900012    2    1    2    0    0  0.14137952707E+02  0.31025191978E+02  0.22152221069E+02  0.50528866435E+02  0.30000020015E+02 0.  0.
         12    1    1    2    0    0 -0.14137952707E+02 -0.31025191978E+02 -0.22152221069E+02  0.40659133565E+02  0.00000000000E+00 0. -1.
         11    1    3    3    0    0  0.17882027051E+02  0.16093395007E+02  0.17934737328E+02  0.30006983480E+02  0.51100000000E-03 0. -1.
        -11    1    3    3    0    0 -0.22620280146E+01  0.15460603318E+02  0.71580523501E+01  0.17186760585E+02  0.51100000000E-03 0.  1.
         12    1    3    3    0    0 -0.14820463296E+01 -0.52880634784E+00 -0.29405686086E+01  0.33351223693E+01  0.00000000000E+00 0. -1.
</event>
<event>
 7    1  0.3041451E-011  0.5052886E+02  0.7816164E-02  0.1300439E+00
        -11   -1    0    0    0    0  0.00000000000E+00  0.00000000000E+00  0.45593999997E+02  0.45594000000E+02  0.51100000000E-03 0. -1.
         11   -1    0    0    0    0 -0.00000000000E+00 -0.00000000000E+00 -0.45593999997E+02  0.45594000000E+02  0.51100000000E-03 0.  1.
    9900012    2    1    2    0    0 -0.21578382957E+02  0.13446771095E+02 -0.31728909848E+02  0.50528856083E+02  0.29999988551E+02 0.  0.
         12    1    1    2    0    0  0.21578382957E+02 -0.13446771095E+02  0.31728909848E+02  0.40659143917E+02  0.00000000000E+00 0. -1.
         11    1    3    3    0    0 -0.17347388549E+02  0.64996682847E+01 -0.46259476313E+01  0.19093898738E+02  0.51100000000E-03 0. -1.
        -11    1    3    3    0    0 -0.92223659772E+01  0.53471470908E+01 -0.17371735213E+02  0.20381884133E+02  0.51100000000E-03 0.  1.
         12    1    3    3    0    0  0.49913715690E+01  0.15999557193E+01 -0.97312270034E+01  0.11053073212E+02  0.00000000000E+00 0. -1.
</event>
<event>
 7    1  0.3041451E-011  0.5052887E+02  0.7816164E-02  0.1300439E+00
        -11   -1    0    0    0    0  0.00000000000E+00  0.00000000000E+00  0.45593999997E+02  0.45594000000E+02  0.51100000000E-03 0. -1.
         11   -1    0    0    0    0 -0.00000000000E+00 -0.00000000000E+00 -0.45593999997E+02  0.45594000000E+02  0.51100000000E-03 0.  1.
    9900012    2    1    2    0    0 -0.30588136158E+02  0.16468817747E+02 -0.21126019901E+02  0.50528871278E+02  0.30000034735E+02 0.  0.
         12    1    1    2    0    0  0.30588136158E+02 -0.16468817747E+02  0.21126019901E+02  0.40659128722E+02  0.00000000000E+00 0. -1.
         11    1    3    3    0    0  0.20875085726E+01 -0.31028486725E+01 -0.70781892970E+01  0.80053810597E+01  0.51100000000E-03 0. -1.
        -11    1    3    3    0    0 -0.19103207173E+02  0.18184411360E+02 -0.10794334982E+02  0.28497771997E+02  0.51100000000E-03 0.  1.
         12    1    3    3    0    0 -0.13572437558E+02  0.13872550591E+01 -0.32534956220E+01  0.14025718221E+02  0.00000000000E+00 0. -1.
</event>
<event>
 7    1  0.3041451E-011  0.5052886E+02  0.7816164E-02  0.1300439E+00
        -11   -1    0    0    0    0  0.00000000000E+00  0.00000000000E+00  0.45593999997E+02  0.45594000000E+02  0.51100000000E-03 0.  1.
         11   -1    0    0    0    0 -0.00000000000E+00 -0.00000000000E+00 -0.45593999997E+02  0.45594000000E+02  0.51100000000E-03 0. -1.
    9900012    2    1    2    0    0  0.12090417268E+02 -0.14378234824E+02  0.36059031977E+02  0.50528860640E+02  0.30000002403E+02 0.  0.
         12    1    1    2    0    0 -0.12090417268E+02  0.14378234824E+02 -0.36059031977E+02  0.40659139360E+02  0.00000000000E+00 0. -1.
         11    1    3    3    0    0 -0.10929509326E+01 -0.16562306176E+02  0.24269836490E+02  0.29402882361E+02  0.51100000000E-03 0. -1.
        -11    1    3    3    0    0  0.62898048859E+01 -0.26639222136E+00  0.12273426848E+02  0.13793825328E+02  0.51100000000E-03 0.  1.
         12    1    3    3    0    0  0.68935633144E+01  0.24504635733E+01 -0.48423136174E+00  0.73321529515E+01  0.00000000000E+00 0. -1.
</event>
<event>
 7    1  0.3041451E-011  0.5052888E+02  0.7816164E-02  0.1300439E+00
        -11   -1    0    0    0    0  0.00000000000E+00  0.00000000000E+00  0.45593999997E+02  0.45594000000E+02  0.51100000000E-03 0. -1.
         11   -1    0    0    0    0 -0.00000000000E+00 -0.00000000000E+00 -0.45593999997E+02  0.45594000000E+02  0.51100000000E-03 0.  1.
    9900012    2    1    2    0    0 -0.24441162670E+02  0.32191787108E+02 -0.44138916082E+01  0.50528880125E+02  0.30000061629E+02 0.  0.
         12    1    1    2    0    0  0.24441162670E+02 -0.32191787108E+02  0.44138916082E+01  0.40659119875E+02  0.00000000000E+00 0. -1.
         11    1    3    3    0    0 -0.60390183820E+01  0.38926093216E+01 -0.88985107725E+01  0.11437029535E+02  0.51100000000E-03 0. -1.
        -11    1    3    3    0    0 -0.14996551471E+02  0.30901490802E+02  0.27165478153E+01  0.34455454171E+02  0.51100000000E-03 0.  1.
         12    1    3    3    0    0 -0.34055928170E+01 -0.26023130160E+01  0.17680713490E+01  0.46363964200E+01  0.00000000000E+00 0. -1.
</event>
<event>
 7    1  0.3041451E-011  0.5052886E+02  0.7816164E-02  0.1300439E+00
        -11   -1    0    0    0    0  0.00000000000E+00  0.00000000000E+00  0.45593999997E+02  0.45594000000E+02  0.51100000000E-03 0.  1.
         11   -1    0    0    0    0 -0.00000000000E+00 -0.00000000000E+00 -0.45593999997E+02  0.45594000000E+02  0.51100000000E-03 0. -1.
    9900012    2    1    2    0    0 -0.28208950773E+02  0.10025779108E+02  0.27511904629E+02  0.50528855312E+02  0.29999986207E+02 0.  0.
         12    1    1    2    0    0  0.28208950773E+02 -0.10025779108E+02 -0.27511904629E+02  0.40659144688E+02  0.00000000000E+00 0. -1.
         11    1    3    3    0    0 -0.12476507669E+02  0.79971079645E+00  0.48617406251E+01  0.13414145636E+02  0.51100000000E-03 0.  1.
        -11    1    3    3    0    0 -0.59023346905E+00  0.92898389564E+01 -0.64471027656E+00  0.93308700015E+01  0.51100000000E-03 0. -1.
        -12    1    3    3    0    0 -0.15142209635E+02 -0.63770644953E-01  0.23294874280E+02  0.27783839675E+02  0.00000000000E+00 0.  1.
</event>
<event>
 7    1  0.3041451E-011  0.5052885E+02  0.7816164E-02  0.1300439E+00
        -11   -1    0    0    0    0  0.00000000000E+00  0.00000000000E+00  0.45593999997E+02  0.45594000000E+02  0.51100000000E-03 0.  1.
         11   -1    0    0    0    0 -0.00000000000E+00 -0.00000000000E+00 -0.45593999997E+02  0.45594000000E+02  0.51100000000E-03 0. -1.
    9900012    2    1    2    0    0  0.17566675491E+02 -0.75175652492E+01  0.35889612257E+02  0.50528854128E+02  0.29999982607E+02 0.  0.
         12    1    1    2    0    0 -0.17566675491E+02  0.75175652492E+01 -0.35889612257E+02  0.40659145872E+02  0.00000000000E+00 0. -1.
         11    1    3    3    0    0  0.23068255909E+01 -0.11771911842E+02  0.10351677827E+02  0.15844765281E+02  0.51100000000E-03 0. -1.
        -11    1    3    3    0    0  0.18976295139E+02  0.24809547174E+01  0.19073431709E+02  0.27019450604E+02  0.51100000000E-03 0.  1.
        -12    1    3    3    0    0 -0.37164452388E+01  0.17733918758E+01  0.64645027216E+01  0.76646382430E+01  0.00000000000E+00 0.  1.
</event>
<event>
 7    1  0.3041451E-011  0.5052886E+02  0.7816164E-02  0.1300439E+00
        -11   -1    0    0    0    0  0.00000000000E+00  0.00000000000E+00  0.45593999997E+02  0.45594000000E+02  0.51100000000E-03 0.  1.
         11   -1    0    0    0    0 -0.00000000000E+00 -0.00000000000E+00 -0.45593999997E+02  0.45594000000E+02  0.51100000000E-03 0. -1.
    9900012    2    1    2    0    0 -0.10737922963E+02 -0.24757181814E+02  0.30412896721E+02  0.50528864152E+02  0.30000013077E+02 0.  0.
         12    1    1    2    0    0  0.10737922963E+02  0.24757181814E+02 -0.30412896721E+02  0.40659135848E+02  0.00000000000E+00 0. -1.
         11    1    3    3    0    0  0.24700311724E+01 -0.49904823058E+01  0.14875288984E+01  0.57635674822E+01  0.51100000000E-03 0. -1.
        -11    1    3    3    0    0 -0.34690383932E+01  0.55755107407E+01  0.87523861311E+01  0.10941883322E+02  0.51100000000E-03 0.  1.
        -12    1    3    3    0    0 -0.97389157425E+01 -0.25342210249E+02  0.20172981691E+02  0.33823413347E+02  0.00000000000E+00 0.  1.
</event>
<event>
 7    1  0.3041451E-011  0.5052886E+02  0.7816164E-02  0.1300439E+00
        -11   -1    0    0    0    0  0.00000000000E+00  0.00000000000E+00  0.45593999997E+02  0.45594000000E+02  0.51100000000E-03 0.  1.
         11   -1    0    0    0    0 -0.00000000000E+00 -0.00000000000E+00 -0.45593999997E+02  0.45594000000E+02  0.51100000000E-03 0. -1.
    9900012    2    1    2    0    0 -0.14422929831E+02  0.19143927590E+02  0.32842881039E+02  0.50528859534E+02  0.29999999040E+02 0.  0.
         12    1    1    2    0    0  0.14422929831E+02 -0.19143927590E+02 -0.32842881039E+02  0.40659140466E+02  0.00000000000E+00 0. -1.
         11    1    3    3    0    0 -0.69627357199E+01  0.14611160883E+02  0.14492320857E+01  0.16250107229E+02  0.51100000000E-03 0. -1.
        -11    1    3    3    0    0 -0.11019528491E+01  0.45550133812E+01  0.24320286951E+02  0.24767696797E+02  0.51100000000E-03 0.  1.
        -12    1    3    3    0    0 -0.63582412621E+01 -0.22246674624E-01  0.70733620022E+01  0.95110555080E+01  0.00000000000E+00 0.  1.
</event>
<event>
 7    1  0.3041451E-011  0.5052887E+02  0.7816164E-02  0.1300439E+00
        -11   -1    0    0    0    0  0.00000000000E+00  0.00000000000E+00  0.45593999997E+02  0.45594000000E+02  0.51100000000E-03 0.  1.
         11   -1    0    0    0    0 -0.00000000000E+00 -0.00000000000E+00 -0.45593999997E+02  0.45594000000E+02  0.51100000000E-03 0. -1.
    9900012    2    1    2    0    0  0.28156517084E+02  0.28018681421E+02  0.86791984745E+01  0.50528874960E+02  0.30000045928E+02 0.  0.
         12    1    1    2    0    0 -0.28156517084E+02 -0.28018681421E+02 -0.86791984745E+01  0.40659125040E+02  0.00000000000E+00 0. -1.
         11    1    3    3    0    0  0.29825330728E+01 -0.44497185801E+01  0.19855172264E+01  0.57129482660E+01  0.51100000000E-03 0. -1.
        -11    1    3    3    0    0  0.25343654657E+02  0.34157964556E+02  0.69545323894E+01  0.43097945369E+02  0.51100000000E-03 0.  1.
        -12    1    3    3    0    0 -0.16967064538E+00 -0.16895645554E+01 -0.26085114129E+00  0.17179813249E+01  0.00000000000E+00 0.  1.
</event>
<event>
 7    1  0.3041451E-011  0.5052885E+02  0.7816164E-02  0.1300439E+00
        -11   -1    0    0    0    0  0.00000000000E+00  0.00000000000E+00  0.45593999997E+02  0.45594000000E+02  0.51100000000E-03 0.  1.
         11   -1    0    0    0    0 -0.00000000000E+00 -0.00000000000E+00 -0.45593999997E+02  0.45594000000E+02  0.51100000000E-03 0. -1.
    9900012    2    1    2    0    0  0.11793632005E+02 -0.51714566165E+01  0.38565953030E+02  0.50528850322E+02  0.29999971039E+02 0.  0.
         12    1    1    2    0    0 -0.11793632005E+02  0.51714566165E+01 -0.38565953030E+02  0.40659149678E+02  0.00000000000E+00 0. -1.
         11    1    3    3    0    0  0.12686890236E+02 -0.78508873578E+01  0.68560563922E+01  0.16419473977E+02  0.51100000000E-03 0. -1.
        -11    1    3    3    0    0  0.17655802535E+01 -0.35141514564E+01  0.21623392270E+02  0.21978117017E+02  0.51100000000E-03 0.  1.
         12    1    3    3    0    0 -0.26588384841E+01  0.61935821978E+01  0.10086504368E+02  0.12131259328E+02  0.00000000000E+00 0. -1.
</event>
<event>
 7    1  0.3041451E-011  0.5052887E+02  0.7816164E-02  0.1300439E+00
        -11   -1    0    0    0    0  0.00000000000E+00  0.00000000000E+00  0.45593999997E+02  0.45594000000E+02  0.51100000000E-03 0.  1.
         11   -1    0    0    0    0 -0.00000000000E+00 -0.00000000000E+00 -0.45593999997E+02  0.45594000000E+02  0.51100000000E-03 0. -1.
    9900012    2    1    2    0    0 -0.26064172725E+02 -0.26891079598E+02  0.15833315236E+02  0.50528866547E+02  0.30000020356E+02 0.  0.
         12    1    1    2    0    0  0.26064172725E+02  0.26891079598E+02 -0.15833315236E+02  0.40659133453E+02  0.00000000000E+00 0. -1.
         11    1    3    3    0    0 -0.10430853806E+02  0.28816036025E+01 -0.14703904261E+01  0.10921007220E+02  0.51100000000E-03 0. -1.
        -11    1    3    3    0    0 -0.42294017763E+01 -0.17253349664E+02  0.13340430855E+02  0.22215602843E+02  0.51100000000E-03 0.  1.
        -12    1    3    3    0    0 -0.11403917143E+02 -0.12519333537E+02  0.39632748071E+01  0.17392256484E+02  0.00000000000E+00 0.  1.
</event>
<event>
 7    1  0.3041451E-011  0.5052886E+02  0.7816164E-02  0.1300439E+00
        -11   -1    0    0    0    0  0.00000000000E+00  0.00000000000E+00  0.45593999997E+02  0.45594000000E+02  0.51100000000E-03 0. -1.
         11   -1    0    0    0    0 -0.00000000000E+00 -0.00000000000E+00 -0.45593999997E+02  0.45594000000E+02  0.51100000000E-03 0.  1.
    9900012    2    1    2    0    0  0.10875937847E+02  0.10762894037E+02 -0.37670146194E+02  0.50528858022E+02  0.29999994443E+02 0.  0.
         12    1    1    2    0    0 -0.10875937847E+02 -0.10762894037E+02  0.37670146194E+02  0.40659141978E+02  0.00000000000E+00 0. -1.
         11    1    3    3    0    0  0.66659349345E+01  0.19562636178E+01 -0.19993268381E+01  0.72290361709E+01  0.51100000000E-03 0. -1.
        -11    1    3    3    0    0 -0.11468806252E+01 -0.13890806106E+01 -0.30704627419E+02  0.30757422280E+02  0.51100000000E-03 0.  1.
        -12    1    3    3    0    0  0.53568835374E+01  0.10195711030E+02 -0.49661919371E+01  0.12542399571E+02  0.00000000000E+00 0.  1.
</event>
<event>
 7    1  0.3041451E-011  0.5052890E+02  0.7816164E-02  0.1300439E+00
        -11   -1    0    0    0    0  0.00000000000E+00  0.00000000000E+00  0.45593999997E+02  0.45594000000E+02  0.51100000000E-03 0. -1.
         11   -1    0    0    0    0 -0.00000000000E+00 -0.00000000000E+00 -0.45593999997E+02  0.45594000000E+02  0.51100000000E-03 0.  1.
    9900012    2    1    2    0    0  0.67151622412E+01  0.36656569463E+02  0.16259300748E+02  0.50528900778E+02  0.30000124406E+02 0.  0.
         12    1    1    2    0    0 -0.67151622412E+01 -0.36656569463E+02 -0.16259300748E+02  0.40659099222E+02  0.00000000000E+00 0. -1.
         11    1    3    3    0    0 -0.43984027989E+01 -0.34976048219E+01  0.41078955282E+01  0.69608902163E+01  0.51100000000E-03 0. -1.
        -11    1    3    3    0    0  0.56355814691E+01  0.26448050033E+02  0.69812685847E+01  0.27928430682E+02  0.51100000000E-03 0.  1.
         12    1    3    3    0    0  0.54779835710E+01  0.13706124252E+02  0.51701366349E+01  0.15639579880E+02  0.00000000000E+00 0. -1.
</event>
<event>
 7    1  0.3041451E-011  0.5052886E+02  0.7816164E-02  0.1300439E+00
        -11   -1    0    0    0    0  0.00000000000E+00  0.00000000000E+00  0.45593999997E+02  0.45594000000E+02  0.51100000000E-03 0.  1.
         11   -1    0    0    0    0 -0.00000000000E+00 -0.00000000000E+00 -0.45593999997E+02  0.45594000000E+02  0.51100000000E-03 0. -1.
    9900012    2    1    2    0    0 -0.21408247097E+02 -0.29658674422E+02  0.17754312640E+02  0.50528860443E+02  0.30000001802E+02 0.  0.
         12    1    1    2    0    0  0.21408247097E+02  0.29658674422E+02 -0.17754312640E+02  0.40659139557E+02  0.00000000000E+00 0. -1.
         11    1    3    3    0    0 -0.74422950508E+01 -0.49414646588E+01 -0.43159488246E+01  0.99213528874E+01  0.51100000000E-03 0. -1.
        -11    1    3    3    0    0 -0.14155054579E+02 -0.24502475721E+02  0.24942600707E+02  0.37720951961E+02  0.51100000000E-03 0.  1.
        -12    1    3    3    0    0  0.18910253270E+00 -0.21473404239E+00 -0.28723392421E+01  0.28865555942E+01  0.00000000000E+00 0.  1.
</event>
<event>
 7    1  0.3041451E-011  0.5052886E+02  0.7816164E-02  0.1300439E+00
        -11   -1    0    0    0    0  0.00000000000E+00  0.00000000000E+00  0.45593999997E+02  0.45594000000E+02  0.51100000000E-03 0.  1.
         11   -1    0    0    0    0 -0.00000000000E+00 -0.00000000000E+00 -0.45593999997E+02  0.45594000000E+02  0.51100000000E-03 0. -1.
    9900012    2    1    2    0    0  0.15525681484E+02  0.37065867615E+02  0.61838736515E+01  0.50528860548E+02  0.30000002123E+02 0.  0.
         12    1    1    2    0    0 -0.15525681484E+02 -0.37065867615E+02 -0.61838736515E+01  0.40659139452E+02  0.00000000000E+00 0. -1.
         11    1    3    3    0    0 -0.23221535474E+00 -0.16881866784E+01  0.47510356626E+01  0.50473991679E+01  0.51100000000E-03 0. -1.
        -11    1    3    3    0    0  0.12206006788E+02  0.25456515513E+02 -0.73266500697E+01  0.29166771938E+02  0.51100000000E-03 0.  1.
         12    1    3    3    0    0  0.35518900511E+01  0.13297538780E+02  0.87594880586E+01  0.16314689442E+02  0.00000000000E+00 0. -1.
</event>
<event>
 7    1  0.3041451E-011  0.5052886E+02  0.7816164E-02  0.1300439E+00
        -11   -1    0    0    0    0  0.00000000000E+00  0.00000000000E+00  0.45593999997E+02  0.45594000000E+02  0.51100000000E-03 0. -1.
         11   -1    0    0    0    0 -0.00000000000E+00 -0.00000000000E+00 -0.45593999997E+02  0.45594000000E+02  0.51100000000E-03 0.  1.
    9900012    2    1    2    0    0 -0.38318067972E+02 -0.65144113150E+01 -0.11935396094E+02  0.50528861202E+02  0.30000004110E+02 0.  0.
         12    1    1    2    0    0  0.38318067972E+02  0.65144113150E+01  0.11935396094E+02  0.40659138798E+02  0.00000000000E+00 0. -1.
         11    1    3    3    0    0 -0.77699399529E+00  0.33685988914E+01 -0.22608818932E+01  0.41307100305E+01  0.51100000000E-03 0. -1.
        -11    1    3    3    0    0 -0.39848098914E+02 -0.80557247525E+01 -0.51197764559E+01  0.40975331598E+02  0.51100000000E-03 0.  1.
         12    1    3    3    0    0  0.23070249380E+01 -0.18272854539E+01 -0.45547377454E+01  0.54228195733E+01  0.00000000000E+00 0. -1.
</event>
<event>
 7    1  0.3041451E-011  0.5052886E+02  0.7816164E-02  0.1300439E+00
        -11   -1    0    0    0    0  0.00000000000E+00  0.00000000000E+00  0.45593999997E+02  0.45594000000E+02  0.51100000000E-03 0.  1.
         11   -1    0    0    0    0 -0.00000000000E+00 -0.00000000000E+00 -0.45593999997E+02  0.45594000000E+02  0.51100000000E-03 0. -1.
    9900012    2    1    2    0    0  0.31915580332E+01  0.30204024307E+02  0.27031404335E+02  0.50528856535E+02  0.29999989923E+02 0.  0.
         12    1    1    2    0    0 -0.31915580332E+01 -0.30204024307E+02 -0.27031404335E+02  0.40659143465E+02  0.00000000000E+00 0. -1.
         11    1    3    3    0    0 -0.10289460235E+02  0.11198698797E+02  0.63376931811E+01  0.16475745865E+02  0.51100000000E-03 0. -1.
        -11    1    3    3    0    0  0.10401415245E+02  0.16751332185E+02  0.88559315817E+01  0.21615367069E+02  0.51100000000E-03 0.  1.
        -12    1    3    3    0    0  0.30796030238E+01  0.22539933244E+01  0.11837779572E+02  0.12437743601E+02  0.00000000000E+00 0.  1.
</event>
<event>
 7    1  0.3041451E-011  0.5052886E+02  0.7816164E-02  0.1300439E+00
        -11   -1    0    0    0    0  0.00000000000E+00  0.00000000000E+00  0.45593999997E+02  0.45594000000E+02  0.51100000000E-03 0. -1.
         11   -1    0    0    0    0 -0.00000000000E+00 -0.00000000000E+00 -0.45593999997E+02  0.45594000000E+02  0.51100000000E-03 0.  1.
    9900012    2    1    2    0    0  0.33302861584E+02 -0.19450762150E+02 -0.12874507170E+02  0.50528859911E+02  0.30000000186E+02 0.  0.
         12    1    1    2    0    0 -0.33302861584E+02  0.19450762150E+02  0.12874507170E+02  0.40659140089E+02  0.00000000000E+00 0. -1.
         11    1    3    3    0    0  0.21980766060E+02 -0.51568689939E+01 -0.12182338665E+01  0.22610428311E+02  0.51100000000E-03 0. -1.
        -11    1    3    3    0    0 -0.37199607787E+01 -0.69660110529E+01 -0.72099907314E+00  0.79298964753E+01  0.51100000000E-03 0.  1.
        -12    1    3    3    0    0  0.15042056302E+02 -0.73278821035E+01 -0.10935274231E+02  0.19988535125E+02  0.00000000000E+00 0.  1.
</event>
<event>
 7    1  0.3041451E-011  0.5052886E+02  0.7816164E-02  0.1300439E+00
        -11   -1    0    0    0    0  0.00000000000E+00  0.00000000000E+00  0.45593999997E+02  0.45594000000E+02  0.51100000000E-03 0. -1.
         11   -1    0    0    0    0 -0.00000000000E+00 -0.00000000000E+00 -0.45593999997E+02  0.45594000000E+02  0.51100000000E-03 0.  1.
    9900012    2    1    2    0    0 -0.64005873247E+01  0.40150882295E+02 -0.32347975579E+00  0.50528861958E+02  0.30000006407E+02 0.  0.
         12    1    1    2    0    0  0.64005873247E+01 -0.40150882295E+02  0.32347975579E+00  0.40659138042E+02  0.00000000000E+00 0. -1.
         11    1    3    3    0    0  0.33541001156E+01 -0.30795873001E+01  0.66758414888E+00  0.46021206396E+01  0.51100000000E-03 0. -1.
        -11    1    3    3    0    0 -0.29794791849E+01  0.34811517843E+02  0.92787090732E+00  0.34951108930E+02  0.51100000000E-03 0.  1.
         12    1    3    3    0    0 -0.67752082554E+01  0.84189517522E+01 -0.19189348120E+01  0.10975632388E+02  0.00000000000E+00 0. -1.
</event>
<event>
 7    1  0.3041451E-011  0.5052887E+02  0.7816164E-02  0.1300439E+00
        -11   -1    0    0    0    0  0.00000000000E+00  0.00000000000E+00  0.45593999997E+02  0.45594000000E+02  0.51100000000E-03 0.  1.
         11   -1    0    0    0    0 -0.00000000000E+00 -0.00000000000E+00 -0.45593999997E+02  0.45594000000E+02  0.51100000000E-03 0. -1.
    9900012    2    1    2    0    0  0.25600829898E+02  0.62628700649E+01  0.30960275176E+02  0.50528872219E+02  0.30000037597E+02 0.  0.
         12    1    1    2    0    0 -0.25600829898E+02 -0.62628700649E+01 -0.30960275176E+02  0.40659127781E+02  0.00000000000E+00 0. -1.
         11    1    3    3    0    0  0.91352004482E+01 -0.92930100961E+01  0.20059859213E+01  0.13184684435E+02  0.51100000000E-03 0. -1.
        -11    1    3    3    0    0  0.11831881966E+02  0.13555692941E+02  0.18905697176E+02  0.26099341523E+02  0.51100000000E-03 0.  1.
         12    1    3    3    0    0  0.46337474834E+01  0.20001872203E+01  0.10048592079E+02  0.11244846261E+02  0.00000000000E+00 0. -1.
</event>
<event>
 7    1  0.3041451E-011  0.5052886E+02  0.7816164E-02  0.1300439E+00
        -11   -1    0    0    0    0  0.00000000000E+00  0.00000000000E+00  0.45593999997E+02  0.45594000000E+02  0.51100000000E-03 0. -1.
         11   -1    0    0    0    0 -0.00000000000E+00 -0.00000000000E+00 -0.45593999997E+02  0.45594000000E+02  0.51100000000E-03 0.  1.
    9900012    2    1    2    0    0 -0.20804891846E+02  0.14461708582E+01 -0.34903167967E+02  0.50528855038E+02  0.29999985374E+02 0.  0.
         12    1    1    2    0    0  0.20804891846E+02 -0.14461708582E+01  0.34903167967E+02  0.40659144962E+02  0.00000000000E+00 0. -1.
         11    1    3    3    0    0  0.42297031914E+01  0.83197672598E+01 -0.82536359799E+01  0.12459190323E+02  0.51100000000E-03 0. -1.
        -11    1    3    3    0    0 -0.18735286833E+02 -0.70770564401E+01 -0.15747937690E+02  0.25477308381E+02  0.51100000000E-03 0.  1.
         12    1    3    3    0    0 -0.62993082052E+01  0.20346003844E+00 -0.10901594297E+02  0.12592356335E+02  0.00000000000E+00 0. -1.
</event>
<event>
 7    1  0.3041451E-011  0.5052886E+02  0.7816164E-02  0.1300439E+00
        -11   -1    0    0    0    0  0.00000000000E+00  0.00000000000E+00  0.45593999997E+02  0.45594000000E+02  0.51100000000E-03 0.  1.
         11   -1    0    0    0    0 -0.00000000000E+00 -0.00000000000E+00 -0.45593999997E+02  0.45594000000E+02  0.51100000000E-03 0. -1.
    9900012    2    1    2    0    0 -0.40200982880E+02 -0.62923549119E-01 -0.60862560253E+01  0.50528862081E+02  0.30000006781E+02 0.  0.
         12    1    1    2    0    0  0.40200982880E+02  0.62923549119E-01  0.60862560253E+01  0.40659137919E+02  0.00000000000E+00 0. -1.
         11    1    3    3    0    0 -0.90940179654E+01 -0.11727547005E+02 -0.63650033906E+01  0.16147748758E+02  0.51100000000E-03 0. -1.
        -11    1    3    3    0    0 -0.15167492534E+02  0.70366399183E+01  0.43794833057E+01  0.17284299390E+02  0.51100000000E-03 0.  1.
         12    1    3    3    0    0 -0.15939472381E+02  0.46279835379E+01 -0.41007359405E+01  0.17096813934E+02  0.00000000000E+00 0. -1.
</event>
<event>
 7    1  0.3041451E-011  0.5052885E+02  0.7816164E-02  0.1300439E+00
        -11   -1    0    0    0    0  0.00000000000E+00  0.00000000000E+00  0.45593999997E+02  0.45594000000E+02  0.51100000000E-03 0.  1.
         11   -1    0    0    0    0 -0.00000000000E+00 -0.00000000000E+00 -0.45593999997E+02  0.45594000000E+02  0.51100000000E-03 0. -1.
    9900012    2    1    2    0    0 -0.29294216562E+02  0.28093312163E+02  0.24043310075E+01  0.50528854413E+02  0.29999983474E+02 0.  0.
         12    1    1    2    0    0  0.29294216562E+02 -0.28093312163E+02 -0.24043310075E+01  0.40659145587E+02  0.00000000000E+00 0. -1.
         11    1    3    3    0    0 -0.13470868761E+02  0.90854186915E+01 -0.77555056683E+01  0.18004360761E+02  0.51100000000E-03 0. -1.
        -11    1    3    3    0    0 -0.14717490298E+02  0.61849096432E+01  0.11366726758E+02  0.19597451503E+02  0.51100000000E-03 0.  1.
        -12    1    3    3    0    0 -0.11058575037E+01  0.12822983828E+02 -0.12068900819E+01  0.12927042150E+02  0.00000000000E+00 0.  1.
</event>
<event>
 7    1  0.3041451E-011  0.5052887E+02  0.7816164E-02  0.1300439E+00
        -11   -1    0    0    0    0  0.00000000000E+00  0.00000000000E+00  0.45593999997E+02  0.45594000000E+02  0.51100000000E-03 0.  1.
         11   -1    0    0    0    0 -0.00000000000E+00 -0.00000000000E+00 -0.45593999997E+02  0.45594000000E+02  0.51100000000E-03 0. -1.
    9900012    2    1    2    0    0 -0.29339518729E+02 -0.25520693558E+02 -0.11876519056E+02  0.50528869859E+02  0.30000030422E+02 0.  0.
         12    1    1    2    0    0  0.29339518729E+02  0.25520693558E+02  0.11876519056E+02  0.40659130141E+02  0.00000000000E+00 0. -1.
         11    1    3    3    0    0 -0.21260916308E+02 -0.29639512996E+02 -0.98949730931E+01  0.37794679330E+02  0.51100000000E-03 0. -1.
        -11    1    3    3    0    0 -0.53850289542E+01  0.63114792468E+00  0.29074813032E+01  0.61522623749E+01  0.51100000000E-03 0.  1.
         12    1    3    3    0    0 -0.26935734672E+01  0.34876715133E+01 -0.48890272663E+01  0.65819281535E+01  0.00000000000E+00 0. -1.
</event>
<event>
 7    1  0.3041451E-011  0.5052885E+02  0.7816164E-02  0.1300439E+00
        -11   -1    0    0    0    0  0.00000000000E+00  0.00000000000E+00  0.45593999997E+02  0.45594000000E+02  0.51100000000E-03 0. -1.
         11   -1    0    0    0    0 -0.00000000000E+00 -0.00000000000E+00 -0.45593999997E+02  0.45594000000E+02  0.51100000000E-03 0.  1.
    9900012    2    1    2    0    0  0.81667775756E+01  0.18839115064E+02 -0.35093564470E+02  0.50528846300E+02  0.29999958814E+02 0.  0.
         12    1    1    2    0    0 -0.81667775756E+01 -0.18839115064E+02  0.35093564470E+02  0.40659153700E+02  0.00000000000E+00 0. -1.
         11    1    3    3    0    0 -0.91219616101E+00 -0.28002166749E+01 -0.21885750247E+02  0.22083011104E+02  0.51100000000E-03 0. -1.
        -11    1    3    3    0    0  0.97867939845E+01  0.18145514780E+02 -0.13832138425E+02  0.24826781845E+02  0.51100000000E-03 0.  1.
         12    1    3    3    0    0 -0.70782024792E+00  0.34938169594E+01  0.62432420201E+00  0.36190533511E+01  0.00000000000E+00 0. -1.
</event>
<event>
 7    1  0.3041451E-011  0.5052887E+02  0.7816164E-02  0.1300439E+00
        -11   -1    0    0    0    0  0.00000000000E+00  0.00000000000E+00  0.45593999997E+02  0.45594000000E+02  0.51100000000E-03 0.  1.
         11   -1    0    0    0    0 -0.00000000000E+00 -0.00000000000E+00 -0.45593999997E+02  0.45594000000E+02  0.51100000000E-03 0. -1.
    9900012    2    1    2    0    0  0.32421722563E+02 -0.12684553644E+02  0.21002359019E+02  0.50528867207E+02  0.30000022363E+02 0.  0.
         12    1    1    2    0    0 -0.32421722563E+02  0.12684553644E+02 -0.21002359019E+02  0.40659132793E+02  0.00000000000E+00 0. -1.
         11    1    3    3    0    0  0.14590356118E+02 -0.88187445041E+01 -0.15994369279E+01  0.17123286631E+02  0.51100000000E-03 0. -1.
        -11    1    3    3    0    0  0.74122338217E+00 -0.56679238143E+01  0.11789619530E+02  0.13102286114E+02  0.51100000000E-03 0.  1.
         12    1    3    3    0    0  0.17090143062E+02  0.18021146743E+01  0.10812176416E+02  0.20303294463E+02  0.00000000000E+00 0. -1.
</event>
<event>
 7    1  0.3041451E-011  0.5052885E+02  0.7816164E-02  0.1300439E+00
        -11   -1    0    0    0    0  0.00000000000E+00  0.00000000000E+00  0.45593999997E+02  0.45594000000E+02  0.51100000000E-03 0.  1.
         11   -1    0    0    0    0 -0.00000000000E+00 -0.00000000000E+00 -0.45593999997E+02  0.45594000000E+02  0.51100000000E-03 0. -1.
    9900012    2    1    2    0    0 -0.18688570670E+02 -0.24118494740E+02  0.26873810698E+02  0.50528853875E+02  0.29999981838E+02 0.  0.
         12    1    1    2    0    0  0.18688570670E+02  0.24118494740E+02 -0.26873810698E+02  0.40659146125E+02  0.00000000000E+00 0. -1.
         11    1    3    3    0    0 -0.16466289555E+02 -0.12718047435E+02  0.26104520753E+01  0.20969069664E+02  0.51100000000E-03 0.  1.
        -11    1    3    3    0    0  0.31762528254E+01 -0.76190481116E+01  0.20188187639E+02  0.21810579922E+02  0.51100000000E-03 0. -1.
         12    1    3    3    0    0 -0.53985339403E+01 -0.37813991927E+01  0.40751709840E+01  0.77492042887E+01  0.00000000000E+00 0. -1.
</event>
<event>
 7    1  0.3041451E-011  0.5052887E+02  0.7816164E-02  0.1300439E+00
        -11   -1    0    0    0    0  0.00000000000E+00  0.00000000000E+00  0.45593999997E+02  0.45594000000E+02  0.51100000000E-03 0.  1.
         11   -1    0    0    0    0 -0.00000000000E+00 -0.00000000000E+00 -0.45593999997E+02  0.45594000000E+02  0.51100000000E-03 0. -1.
    9900012    2    1    2    0    0 -0.31946850071E+02 -0.24212744160E+02  0.68049060672E+01  0.50528868728E+02  0.30000026985E+02 0.  0.
         12    1    1    2    0    0  0.31946850071E+02  0.24212744160E+02 -0.68049060672E+01  0.40659131272E+02  0.00000000000E+00 0. -1.
         11    1    3    3    0    0 -0.52377182976E+01 -0.13434306780E+02 -0.65014558874E+01  0.15817181182E+02  0.51100000000E-03 0. -1.
        -11    1    3    3    0    0 -0.57509136939E+01 -0.91404245586E+01  0.65512850498E+01  0.12630902798E+02  0.51100000000E-03 0.  1.
         12    1    3    3    0    0 -0.20958218080E+02 -0.16380128213E+01  0.67550769047E+01  0.22080784748E+02  0.00000000000E+00 0. -1.
</event>
<event>
 7    1  0.3041451E-011  0.5052886E+02  0.7816164E-02  0.1300439E+00
        -11   -1    0    0    0    0  0.00000000000E+00  0.00000000000E+00  0.45593999997E+02  0.45594000000E+02  0.51100000000E-03 0. -1.
         11   -1    0    0    0    0 -0.00000000000E+00 -0.00000000000E+00 -0.45593999997E+02  0.45594000000E+02  0.51100000000E-03 0.  1.
    9900012    2    1    2    0    0  0.21934013521E+02  0.10648727466E+02 -0.32537197980E+02  0.50528860828E+02  0.30000002974E+02 0.  0.
         12    1    1    2    0    0 -0.21934013521E+02 -0.10648727466E+02  0.32537197980E+02  0.40659139172E+02  0.00000000000E+00 0. -1.
         11    1    3    3    0    0  0.70162862908E+01  0.11342681714E+02 -0.15155736131E+02  0.20188636400E+02  0.51100000000E-03 0. -1.
        -11    1    3    3    0    0  0.59618903800E+00 -0.23440127927E+01  0.39276752566E+01  0.46126424665E+01  0.51100000000E-03 0.  1.
        -12    1    3    3    0    0  0.14321538192E+02  0.16500585446E+01 -0.21309137106E+02  0.25727581962E+02  0.00000000000E+00 0.  1.
</event>
<event>
 7    1  0.3041451E-011  0.5052886E+02  0.7816164E-02  0.1300439E+00
        -11   -1    0    0    0    0  0.00000000000E+00  0.00000000000E+00  0.45593999997E+02  0.45594000000E+02  0.51100000000E-03 0.  1.
         11   -1    0    0    0    0 -0.00000000000E+00 -0.00000000000E+00 -0.45593999997E+02  0.45594000000E+02  0.51100000000E-03 0. -1.
    9900012    2    1    2    0    0  0.94942960988E+01  0.10832223765E+01  0.39520254679E+02  0.50528861310E+02  0.30000004439E+02 0.  0.
         12    1    1    2    0    0 -0.94942960988E+01 -0.10832223765E+01 -0.39520254679E+02  0.40659138690E+02  0.00000000000E+00 0. -1.
         11    1    3    3    0    0  0.27697093977E+01  0.78020664189E+01 -0.84407748100E-01  0.82795323226E+01  0.51100000000E-03 0. -1.
        -11    1    3    3    0    0  0.62996406622E+01  0.14998156490E+00  0.28474236120E+02  0.29163163234E+02  0.51100000000E-03 0.  1.
         12    1    3    3    0    0  0.42494603894E+00 -0.68688256073E+01  0.11130426307E+02  0.13086165753E+02  0.00000000000E+00 0. -1.
</event>
<event>
 7    1  0.3041451E-011  0.5052886E+02  0.7816164E-02  0.1300439E+00
        -11   -1    0    0    0    0  0.00000000000E+00  0.00000000000E+00  0.45593999997E+02  0.45594000000E+02  0.51100000000E-03 0.  1.
         11   -1    0    0    0    0 -0.00000000000E+00 -0.00000000000E+00 -0.45593999997E+02  0.45594000000E+02  0.51100000000E-03 0. -1.
    9900012    2    1    2    0    0 -0.21690176692E+02 -0.20187380489E+02  0.27841900479E+02  0.50528861811E+02  0.30000005961E+02 0.  0.
         12    1    1    2    0    0  0.21690176692E+02  0.20187380489E+02 -0.27841900479E+02  0.40659138189E+02  0.00000000000E+00 0. -1.
         11    1    3    3    0    0 -0.55645841467E+01  0.54747419749E+00  0.21388245867E+00  0.55955402500E+01  0.51100000000E-03 0. -1.
        -11    1    3    3    0    0 -0.15160976993E+02 -0.15230501125E+02  0.31501742021E+02  0.38133753271E+02  0.51100000000E-03 0.  1.
        -12    1    3    3    0    0 -0.96461555260E+00 -0.55043535620E+01 -0.38737240007E+01  0.67995682903E+01  0.00000000000E+00 0.  1.
</event>
<event>
 7    1  0.3041451E-011  0.5052886E+02  0.7816164E-02  0.1300439E+00
        -11   -1    0    0    0    0  0.00000000000E+00  0.00000000000E+00  0.45593999997E+02  0.45594000000E+02  0.51100000000E-03 0.  1.
         11   -1    0    0    0    0 -0.00000000000E+00 -0.00000000000E+00 -0.45593999997E+02  0.45594000000E+02  0.51100000000E-03 0. -1.
    9900012    2    1    2    0    0 -0.19435164848E+02 -0.34388836492E+02  0.96357721228E+01  0.50528858195E+02  0.29999994968E+02 0.  0.
         12    1    1    2    0    0  0.19435164848E+02  0.34388836492E+02 -0.96357721228E+01  0.40659141805E+02  0.00000000000E+00 0. -1.
         11    1    3    3    0    0 -0.74355476666E+01 -0.21167305358E+02  0.12170116308E+02  0.25523595288E+02  0.51100000000E-03 0.  1.
        -11    1    3    3    0    0 -0.67482902470E+01 -0.14740390911E+01 -0.83901593898E+01  0.10867703867E+02  0.51100000000E-03 0. -1.
         12    1    3    3    0    0 -0.52513269341E+01 -0.11747492043E+02  0.58558152050E+01  0.14137559039E+02  0.00000000000E+00 0. -1.
</event>
<event>
 7    1  0.3041451E-011  0.5052885E+02  0.7816164E-02  0.1300439E+00
        -11   -1    0    0    0    0  0.00000000000E+00  0.00000000000E+00  0.45593999997E+02  0.45594000000E+02  0.51100000000E-03 0.  1.
         11   -1    0    0    0    0 -0.00000000000E+00 -0.00000000000E+00 -0.45593999997E+02  0.45594000000E+02  0.51100000000E-03 0. -1.
    9900012    2    1    2    0    0 -0.19546246306E+02  0.35639875467E+02  0.95398217320E+00  0.50528849124E+02  0.29999967398E+02 0.  0.
         12    1    1    2    0    0  0.19546246306E+02 -0.35639875467E+02 -0.95398217320E+00  0.40659150876E+02  0.00000000000E+00 0. -1.
         11    1    3    3    0    0 -0.49541915648E+01 -0.16109434069E+01 -0.34102108080E+01  0.62264508941E+01  0.51100000000E-03 0. -1.
        -11    1    3    3    0    0 -0.41942211366E+01  0.23090249000E+02 -0.55701025976E+01  0.24120056655E+02  0.51100000000E-03 0.  1.
         12    1    3    3    0    0 -0.10397833605E+02  0.14160569873E+02  0.99342955788E+01  0.20182341575E+02  0.00000000000E+00 0. -1.
</event>
<event>
 7    1  0.3041451E-011  0.5052886E+02  0.7816164E-02  0.1300439E+00
        -11   -1    0    0    0    0  0.00000000000E+00  0.00000000000E+00  0.45593999997E+02  0.45594000000E+02  0.51100000000E-03 0. -1.
         11   -1    0    0    0    0 -0.00000000000E+00 -0.00000000000E+00 -0.45593999997E+02  0.45594000000E+02  0.51100000000E-03 0.  1.
    9900012    2    1    2    0    0  0.38742171869E+02  0.87855646216E+01 -0.86616166603E+01  0.50528860436E+02  0.30000001783E+02 0.  0.
         12    1    1    2    0    0 -0.38742171869E+02 -0.87855646216E+01  0.86616166603E+01  0.40659139564E+02  0.00000000000E+00 0. -1.
         11    1    3    3    0    0  0.81434371444E+01  0.73213214783E+01  0.43657355449E+01  0.11788849131E+02  0.51100000000E-03 0. -1.
        -11    1    3    3    0    0  0.20671860359E+02  0.98910874555E+01 -0.11468010836E+02  0.25625664763E+02  0.51100000000E-03 0.  1.
         12    1    3    3    0    0  0.99268743662E+01 -0.84268443121E+01 -0.15593413687E+01  0.13114346543E+02  0.00000000000E+00 0. -1.
</event>
<event>
 7    1  0.3041451E-011  0.5052887E+02  0.7816164E-02  0.1300439E+00
        -11   -1    0    0    0    0  0.00000000000E+00  0.00000000000E+00  0.45593999997E+02  0.45594000000E+02  0.51100000000E-03 0. -1.
         11   -1    0    0    0    0 -0.00000000000E+00 -0.00000000000E+00 -0.45593999997E+02  0.45594000000E+02  0.51100000000E-03 0.  1.
    9900012    2    1    2    0    0 -0.39801889225E+02  0.82822246393E+01  0.61602362061E+00  0.50528866758E+02  0.30000020998E+02 0.  0.
         12    1    1    2    0    0  0.39801889225E+02 -0.82822246393E+01 -0.61602362061E+00  0.40659133242E+02  0.00000000000E+00 0. -1.
         11    1    3    3    0    0 -0.27283596147E+02  0.14607344310E+01  0.94080667868E+01  0.28897060140E+02  0.51100000000E-03 0. -1.
        -11    1    3    3    0    0 -0.85854196369E+01 -0.30598261307E+01 -0.44764806758E+01  0.10154351077E+02  0.51100000000E-03 0.  1.
         12    1    3    3    0    0 -0.39328734412E+01  0.98813163390E+01 -0.43155624905E+01  0.11477455541E+02  0.00000000000E+00 0. -1.
</event>
<event>
 7    1  0.3041451E-011  0.5052887E+02  0.7816164E-02  0.1300439E+00
        -11   -1    0    0    0    0  0.00000000000E+00  0.00000000000E+00  0.45593999997E+02  0.45594000000E+02  0.51100000000E-03 0. -1.
         11   -1    0    0    0    0 -0.00000000000E+00 -0.00000000000E+00 -0.45593999997E+02  0.45594000000E+02  0.51100000000E-03 0.  1.
    9900012    2    1    2    0    0  0.30682552559E+02  0.62728990532E+00 -0.26671194607E+02  0.50528866390E+02  0.30000019879E+02 0.  0.
         12    1    1    2    0    0 -0.30682552559E+02 -0.62728990532E+00  0.26671194607E+02  0.40659133610E+02  0.00000000000E+00 0. -1.
         11    1    3    3    0    0  0.12210016145E+02  0.43174452369E+01  0.81441038860E+00  0.12976443741E+02  0.51100000000E-03 0. -1.
        -11    1    3    3    0    0  0.13003710602E+02  0.32178134630E+01 -0.25057094878E+02  0.28413180338E+02  0.51100000000E-03 0.  1.
        -12    1    3    3    0    0  0.54688258124E+01 -0.69079687946E+01 -0.24285101173E+01  0.91392423112E+01  0.00000000000E+00 0.  1.
</event>
<event>
 7    1  0.3041451E-011  0.5052886E+02  0.7816164E-02  0.1300439E+00
        -11   -1    0    0    0    0  0.00000000000E+00  0.00000000000E+00  0.45593999997E+02  0.45594000000E+02  0.51100000000E-03 0. -1.
         11   -1    0    0    0    0 -0.00000000000E+00 -0.00000000000E+00 -0.45593999997E+02  0.45594000000E+02  0.51100000000E-03 0.  1.
    9900012    2    1    2    0    0  0.11558382837E+02 -0.38068873088E+02  0.83863423498E+01  0.50528855273E+02  0.29999986087E+02 0.  0.
         12    1    1    2    0    0 -0.11558382837E+02  0.38068873088E+02 -0.83863423498E+01  0.40659144727E+02  0.00000000000E+00 0. -1.
         11    1    3    3    0    0  0.39558383571E-01 -0.21551695887E+02  0.12549220580E+02  0.24939127849E+02  0.51100000000E-03 0. -1.
        -11    1    3    3    0    0  0.81414768512E+01 -0.72433389407E+01 -0.94225545408E+01  0.14406045212E+02  0.51100000000E-03 0.  1.
        -12    1    3    3    0    0  0.33773476018E+01 -0.92738382602E+01  0.52596763103E+01  0.11183682211E+02  0.00000000000E+00 0.  1.
</event>
<event>
 7    1  0.3041451E-011  0.5052886E+02  0.7816164E-02  0.1300439E+00
        -11   -1    0    0    0    0  0.00000000000E+00  0.00000000000E+00  0.45593999997E+02  0.45594000000E+02  0.51100000000E-03 0.  1.
         11   -1    0    0    0    0 -0.00000000000E+00 -0.00000000000E+00 -0.45593999997E+02  0.45594000000E+02  0.51100000000E-03 0. -1.
    9900012    2    1    2    0    0 -0.25176960144E+02  0.30734625361E+02  0.86411429645E+01  0.50528857487E+02  0.29999992816E+02 0.  0.
         12    1    1    2    0    0  0.25176960144E+02 -0.30734625361E+02 -0.86411429645E+01  0.40659142513E+02  0.00000000000E+00 0. -1.
         11    1    3    3    0    0 -0.15169912814E+02  0.44837549029E+01  0.10646873535E+02  0.19067937202E+02  0.51100000000E-03 0. -1.
        -11    1    3    3    0    0 -0.10250402336E+02  0.21130559421E+02  0.37171964365E+01  0.23777906534E+02  0.51100000000E-03 0.  1.
         12    1    3    3    0    0  0.24335500582E+00  0.51203110368E+01 -0.57229270069E+01  0.76830137511E+01  0.00000000000E+00 0. -1.
</event>
<event>
 7    1  0.3041451E-011  0.5052889E+02  0.7816164E-02  0.1300439E+00
        -11   -1    0    0    0    0  0.00000000000E+00  0.00000000000E+00  0.45593999997E+02  0.45594000000E+02  0.51100000000E-03 0.  1.
         11   -1    0    0    0    0 -0.00000000000E+00 -0.00000000000E+00 -0.45593999997E+02  0.45594000000E+02  0.51100000000E-03 0. -1.
    9900012    2    1    2    0    0 -0.17304758137E+01 -0.40310758274E+02 -0.50210615147E+01  0.50528894773E+02  0.30000106152E+02 0.  0.
         12    1    1    2    0    0  0.17304758137E+01  0.40310758274E+02  0.50210615147E+01  0.40659105227E+02  0.00000000000E+00 0. -1.
         11    1    3    3    0    0 -0.85713442990E+01 -0.49963296528E+00 -0.18831206310E+00  0.85879588894E+01  0.51100000000E-03 0. -1.
        -11    1    3    3    0    0  0.74271111212E+01 -0.34350117161E+02 -0.73418311880E+01  0.35902576705E+02  0.51100000000E-03 0.  1.
        -12    1    3    3    0    0 -0.58624263587E+00 -0.54610081475E+01  0.25090817364E+01  0.60383591790E+01  0.00000000000E+00 0.  1.
</event>
<event>
 7    1  0.3041451E-011  0.5052887E+02  0.7816164E-02  0.1300439E+00
        -11   -1    0    0    0    0  0.00000000000E+00  0.00000000000E+00  0.45593999997E+02  0.45594000000E+02  0.51100000000E-03 0. -1.
         11   -1    0    0    0    0 -0.00000000000E+00 -0.00000000000E+00 -0.45593999997E+02  0.45594000000E+02  0.51100000000E-03 0.  1.
    9900012    2    1    2    0    0  0.24321909061E+02  0.99379013977E+01 -0.31029782068E+02  0.50528874090E+02  0.30000043284E+02 0.  0.
         12    1    1    2    0    0 -0.24321909061E+02 -0.99379013977E+01  0.31029782068E+02  0.40659125910E+02  0.00000000000E+00 0. -1.
         11    1    3    3    0    0 -0.31795917899E+01 -0.21222204765E+01 -0.79579142381E+01  0.88284779539E+01  0.51100000000E-03 0. -1.
        -11    1    3    3    0    0  0.26929863663E+02  0.88443634554E+01 -0.25095656139E+02  0.37858054350E+02  0.51100000000E-03 0.  1.
        -12    1    3    3    0    0  0.57163718833E+00  0.32157584187E+01  0.20237883091E+01  0.38423417863E+01  0.00000000000E+00 0.  1.
</event>
<event>
 7    1  0.3041451E-011  0.5052887E+02  0.7816164E-02  0.1300439E+00
        -11   -1    0    0    0    0  0.00000000000E+00  0.00000000000E+00  0.45593999997E+02  0.45594000000E+02  0.51100000000E-03 0. -1.
         11   -1    0    0    0    0 -0.00000000000E+00 -0.00000000000E+00 -0.45593999997E+02  0.45594000000E+02  0.51100000000E-03 0.  1.
    9900012    2    1    2    0    0  0.32526258869E+02 -0.16434031242E+02  0.18031361319E+02  0.50528869538E+02  0.30000029449E+02 0.  0.
         12    1    1    2    0    0 -0.32526258869E+02  0.16434031242E+02 -0.18031361319E+02  0.40659130462E+02  0.00000000000E+00 0. -1.
         11    1    3    3    0    0  0.25426654166E+02  0.78241490459E-01  0.13899095365E+02  0.28977676167E+02  0.51100000000E-03 0. -1.
        -11    1    3    3    0    0  0.94175459061E+00 -0.11432024069E+02  0.65512874934E+01  0.13209748071E+02  0.51100000000E-03 0.  1.
        -12    1    3    3    0    0  0.61578501120E+01 -0.50802486638E+01 -0.24190215396E+01  0.83414453002E+01  0.00000000000E+00 0.  1.
</event>
<event>
 7    1  0.3041451E-011  0.5052886E+02  0.7816164E-02  0.1300439E+00
        -11   -1    0    0    0    0  0.00000000000E+00  0.00000000000E+00  0.45593999997E+02  0.45594000000E+02  0.51100000000E-03 0. -1.
         11   -1    0    0    0    0 -0.00000000000E+00 -0.00000000000E+00 -0.45593999997E+02  0.45594000000E+02  0.51100000000E-03 0.  1.
    9900012    2    1    2    0    0  0.36332465536E+02 -0.78715507540E+00 -0.18234521727E+02  0.50528862679E+02  0.30000008600E+02 0.  0.
         12    1    1    2    0    0 -0.36332465536E+02  0.78715507540E+00  0.18234521727E+02  0.40659137321E+02  0.00000000000E+00 0. -1.
         11    1    3    3    0    0 -0.20671043852E+01  0.31072225583E+01  0.34571765775E+01  0.50872215123E+01  0.51100000000E-03 0. -1.
        -11    1    3    3    0    0  0.27396037176E+02  0.18235286933E+01 -0.16199413844E+02  0.31879289813E+02  0.51100000000E-03 0.  1.
         12    1    3    3    0    0  0.11003532746E+02 -0.57179063270E+01 -0.54922844605E+01  0.13562351354E+02  0.00000000000E+00 0. -1.
</event>
<event>
 7    1  0.3041451E-011  0.5052887E+02  0.7816164E-02  0.1300439E+00
        -11   -1    0    0    0    0  0.00000000000E+00  0.00000000000E+00  0.45593999997E+02  0.45594000000E+02  0.51100000000E-03 0.  1.
         11   -1    0    0    0    0 -0.00000000000E+00 -0.00000000000E+00 -0.45593999997E+02  0.45594000000E+02  0.51100000000E-03 0. -1.
    9900012    2    1    2    0    0  0.14856555024E+02  0.11742602499E+02  0.35979982315E+02  0.50528867348E+02  0.30000022792E+02 0.  0.
         12    1    1    2    0    0 -0.14856555024E+02 -0.11742602499E+02 -0.35979982315E+02  0.40659132652E+02  0.00000000000E+00 0. -1.
         11    1    3    3    0    0  0.18035392817E+02  0.27486770559E+01  0.14947811809E+02  0.23585328019E+02  0.51100000000E-03 0. -1.
        -11    1    3    3    0    0 -0.52504734373E+01  0.68418867513E+01  0.22137777620E+02  0.23758368711E+02  0.51100000000E-03 0.  1.
         12    1    3    3    0    0  0.20716356443E+01  0.21520386917E+01 -0.11056071141E+01  0.31851706177E+01  0.00000000000E+00 0. -1.
</event>
<event>
 7    1  0.3041451E-011  0.5052887E+02  0.7816164E-02  0.1300439E+00
        -11   -1    0    0    0    0  0.00000000000E+00  0.00000000000E+00  0.45593999997E+02  0.45594000000E+02  0.51100000000E-03 0.  1.
         11   -1    0    0    0    0 -0.00000000000E+00 -0.00000000000E+00 -0.45593999997E+02  0.45594000000E+02  0.51100000000E-03 0. -1.
    9900012    2    1    2    0    0  0.30761590626E+02 -0.23419361240E+01  0.26484043680E+02  0.50528871968E+02  0.30000036833E+02 0.  0.
         12    1    1    2    0    0 -0.30761590626E+02  0.23419361240E+01 -0.26484043680E+02  0.40659128032E+02  0.00000000000E+00 0. -1.
         11    1    3    3    0    0  0.30862732111E+02  0.64882277760E+00  0.30342542767E+02  0.43285091038E+02  0.51100000000E-03 0.  1.
        -11    1    3    3    0    0 -0.16027808346E+01 -0.30059933348E+00 -0.38300530401E+01  0.41627602519E+01  0.51100000000E-03 0. -1.
        -12    1    3    3    0    0  0.15016393498E+01 -0.26901595681E+01 -0.28446046435E-01  0.30810206777E+01  0.00000000000E+00 0.  1.
</event>
<event>
 7    1  0.3094981E-011  0.5052886E+02  0.7816164E-02  0.1300439E+00
        -11   -1    0    0    0    0  0.00000000000E+00  0.00000000000E+00  0.45593999997E+02  0.45594000000E+02  0.51100000000E-03 0.  1.
         11   -1    0    0    0    0 -0.00000000000E+00 -0.00000000000E+00 -0.45593999997E+02  0.45594000000E+02  0.51100000000E-03 0. -1.
    9900012    2    1    2    0    0  0.93980870368E+01 -0.28979236867E+02  0.26926667611E+02  0.50528860339E+02  0.30000001485E+02 0.  0.
         12    1    1    2    0    0 -0.93980870368E+01  0.28979236867E+02 -0.26926667611E+02  0.40659139661E+02  0.00000000000E+00 0. -1.
         11    1    3    3    0    0  0.10396431487E+02 -0.86157559859E+01 -0.10540627581E+01  0.13543562583E+02  0.51100000000E-03 0. -1.
        -11    1    3    3    0    0  0.33022010430E+01 -0.97737028429E+01  0.21497827846E+02  0.23845049829E+02  0.51100000000E-03 0.  1.
         12    1    3    3    0    0 -0.43005454935E+01 -0.10589778039E+02  0.64829025236E+01  0.13140247927E+02  0.00000000000E+00 0. -1.
</event>
<event>
 7    1  0.3041451E-011  0.5052883E+02  0.7816164E-02  0.1300439E+00
        -11   -1    0    0    0    0  0.00000000000E+00  0.00000000000E+00  0.45593999997E+02  0.45594000000E+02  0.51100000000E-03 0.  1.
         11   -1    0    0    0    0 -0.00000000000E+00 -0.00000000000E+00 -0.45593999997E+02  0.45594000000E+02  0.51100000000E-03 0. -1.
    9900012    2    1    2    0    0 -0.70631967159E+01 -0.19205463953E+02  0.35134451051E+02  0.50528828290E+02  0.29999904069E+02 0.  0.
         12    1    1    2    0    0  0.70631967159E+01  0.19205463953E+02 -0.35134451051E+02  0.40659171710E+02  0.00000000000E+00 0. -1.
         11    1    3    3    0    0 -0.83501356717E+01  0.47153786848E+01  0.35472205567E+01  0.10224594653E+02  0.51100000000E-03 0. -1.
        -11    1    3    3    0    0 -0.25707405956E+01 -0.14775569477E+02  0.20830617467E+02  0.25667894049E+02  0.51100000000E-03 0.  1.
         12    1    3    3    0    0  0.38576795515E+01 -0.91452731606E+01  0.10756613027E+02  0.14636339588E+02  0.00000000000E+00 0. -1.
</event>
<event>
 7    1  0.3041451E-011  0.5052887E+02  0.7816164E-02  0.1300439E+00
        -11   -1    0    0    0    0  0.00000000000E+00  0.00000000000E+00  0.45593999997E+02  0.45594000000E+02  0.51100000000E-03 0. -1.
         11   -1    0    0    0    0 -0.00000000000E+00 -0.00000000000E+00 -0.45593999997E+02  0.45594000000E+02  0.51100000000E-03 0.  1.
    9900012    2    1    2    0    0  0.30004965599E+02  0.27295326386E+02  0.27986113849E+01  0.50528867830E+02  0.30000024256E+02 0.  0.
         12    1    1    2    0    0 -0.30004965599E+02 -0.27295326386E+02 -0.27986113849E+01  0.40659132170E+02  0.00000000000E+00 0. -1.
         11    1    3    3    0    0 -0.18915383694E+00  0.27124050664E+01  0.11809294658E+01  0.29643743155E+01  0.51100000000E-03 0. -1.
        -11    1    3    3    0    0  0.17071830600E+02  0.49789651607E+01  0.12346548260E+02  0.21648897162E+02  0.51100000000E-03 0.  1.
        -12    1    3    3    0    0  0.13122288836E+02  0.19603956159E+02 -0.10728866341E+02  0.25915596353E+02  0.00000000000E+00 0.  1.
</event>
<event>
 7    1  0.3041451E-011  0.5052885E+02  0.7816164E-02  0.1300439E+00
        -11   -1    0    0    0    0  0.00000000000E+00  0.00000000000E+00  0.45593999997E+02  0.45594000000E+02  0.51100000000E-03 0. -1.
         11   -1    0    0    0    0 -0.00000000000E+00 -0.00000000000E+00 -0.45593999997E+02  0.45594000000E+02  0.51100000000E-03 0.  1.
    9900012    2    1    2    0    0 -0.31159024775E+00 -0.25047924984E+02 -0.32026092579E+02  0.50528852931E+02  0.29999978969E+02 0.  0.
         12    1    1    2    0    0  0.31159024775E+00  0.25047924984E+02  0.32026092579E+02  0.40659147069E+02  0.00000000000E+00 0. -1.
         11    1    3    3    0    0  0.83240355698E+01 -0.10523598352E+02 -0.19883596493E+01  0.13564264256E+02  0.51100000000E-03 0. -1.
        -11    1    3    3    0    0 -0.18737586193E+01 -0.16751628279E+01 -0.17796862310E+02  0.17973465169E+02  0.51100000000E-03 0.  1.
         12    1    3    3    0    0 -0.67618671982E+01 -0.12849163804E+02 -0.12240870620E+02  0.18991123506E+02  0.00000000000E+00 0. -1.
</event>
<event>
 7    1  0.3041451E-011  0.5052886E+02  0.7816164E-02  0.1300439E+00
        -11   -1    0    0    0    0  0.00000000000E+00  0.00000000000E+00  0.45593999997E+02  0.45594000000E+02  0.51100000000E-03 0.  1.
         11   -1    0    0    0    0 -0.00000000000E+00 -0.00000000000E+00 -0.45593999997E+02  0.45594000000E+02  0.51100000000E-03 0. -1.
    9900012    2    1    2    0    0  0.20595908528E+02 -0.33314047542E+02  0.10915517141E+02  0.50528859254E+02  0.29999998189E+02 0.  0.
         12    1    1    2    0    0 -0.20595908528E+02  0.33314047542E+02 -0.10915517141E+02  0.40659140746E+02  0.00000000000E+00 0. -1.
         11    1    3    3    0    0 -0.34628867796E+01 -0.49890713654E+01 -0.52574048578E+01  0.80326038143E+01  0.51100000000E-03 0. -1.
        -11    1    3    3    0    0  0.20665839601E+02 -0.17326269894E+02  0.72304213966E+01  0.27920521999E+02  0.51100000000E-03 0.  1.
         12    1    3    3    0    0  0.33929557066E+01 -0.10998706282E+02  0.89425006023E+01  0.14575733441E+02  0.00000000000E+00 0. -1.
</event>
<event>
 7    1  0.3041451E-011  0.5052885E+02  0.7816164E-02  0.1300439E+00
        -11   -1    0    0    0    0  0.00000000000E+00  0.00000000000E+00  0.45593999997E+02  0.45594000000E+02  0.51100000000E-03 0.  1.
         11   -1    0    0    0    0 -0.00000000000E+00 -0.00000000000E+00 -0.45593999997E+02  0.45594000000E+02  0.51100000000E-03 0. -1.
    9900012    2    1    2    0    0 -0.71525775140E+01  0.24267143091E+01  0.39951449448E+02  0.50528848257E+02  0.29999964762E+02 0.  0.
         12    1    1    2    0    0  0.71525775140E+01 -0.24267143091E+01 -0.39951449448E+02  0.40659151743E+02  0.00000000000E+00 0. -1.
         11    1    3    3    0    0 -0.34311146715E+01  0.16055828882E+02  0.24052114788E+02  0.29121579885E+02  0.51100000000E-03 0. -1.
        -11    1    3    3    0    0 -0.22495290520E+01 -0.39674289755E+01  0.51570504973E+01  0.68844784642E+01  0.51100000000E-03 0.  1.
         12    1    3    3    0    0 -0.14719337905E+01 -0.96616855972E+01  0.10742284163E+02  0.14522789907E+02  0.00000000000E+00 0. -1.
</event>
<event>
 7    1  0.3041451E-011  0.5052886E+02  0.7816164E-02  0.1300439E+00
        -11   -1    0    0    0    0  0.00000000000E+00  0.00000000000E+00  0.45593999997E+02  0.45594000000E+02  0.51100000000E-03 0. -1.
         11   -1    0    0    0    0 -0.00000000000E+00 -0.00000000000E+00 -0.45593999997E+02  0.45594000000E+02  0.51100000000E-03 0.  1.
    9900012    2    1    2    0    0 -0.82723311054E+01 -0.12692773776E+02 -0.37730988526E+02  0.50528862488E+02  0.30000008018E+02 0.  0.
         12    1    1    2    0    0  0.82723311054E+01  0.12692773776E+02  0.37730988526E+02  0.40659137512E+02  0.00000000000E+00 0. -1.
         11    1    3    3    0    0 -0.46021964665E+01 -0.96325077688E+01 -0.13403680300E+02  0.17135462179E+02  0.51100000000E-03 0.  1.
        -11    1    3    3    0    0 -0.81876930359E+01  0.13543674796E+01 -0.40915386089E-01  0.82990543346E+01  0.51100000000E-03 0. -1.
        -12    1    3    3    0    0  0.45175583969E+01 -0.44146334873E+01 -0.24286392840E+02  0.25094345974E+02  0.00000000000E+00 0.  1.
</event>
<event>
 7    1  0.3041451E-011  0.5052887E+02  0.7816164E-02  0.1300439E+00
        -11   -1    0    0    0    0  0.00000000000E+00  0.00000000000E+00  0.45593999997E+02  0.45594000000E+02  0.51100000000E-03 0. -1.
         11   -1    0    0    0    0 -0.00000000000E+00 -0.00000000000E+00 -0.45593999997E+02  0.45594000000E+02  0.51100000000E-03 0.  1.
    9900012    2    1    2    0    0 -0.53230810671E+01 -0.84442440774E+01 -0.39414775869E+02  0.50528868100E+02  0.30000025076E+02 0.  0.
         12    1    1    2    0    0  0.53230810671E+01  0.84442440774E+01  0.39414775869E+02  0.40659131900E+02  0.00000000000E+00 0. -1.
         11    1    3    3    0    0 -0.23854635889E+01 -0.55683325258E+01  0.27665854840E+01  0.66596365631E+01  0.51100000000E-03 0. -1.
        -11    1    3    3    0    0  0.21076044139E+01  0.33060158431E+01 -0.17342662462E+02  0.17780317170E+02  0.51100000000E-03 0.  1.
        -12    1    3    3    0    0 -0.50452218921E+01 -0.61819273946E+01 -0.24838698891E+02  0.26088914367E+02  0.00000000000E+00 0.  1.
</event>
<event>
 7    1  0.3041451E-011  0.5052886E+02  0.7816164E-02  0.1300439E+00
        -11   -1    0    0    0    0  0.00000000000E+00  0.00000000000E+00  0.45593999997E+02  0.45594000000E+02  0.51100000000E-03 0. -1.
         11   -1    0    0    0    0 -0.00000000000E+00 -0.00000000000E+00 -0.45593999997E+02  0.45594000000E+02  0.51100000000E-03 0.  1.
    9900012    2    1    2    0    0 -0.16317996882E+02 -0.35436836443E+02  0.11450721795E+02  0.50528862909E+02  0.30000009298E+02 0.  0.
         12    1    1    2    0    0  0.16317996882E+02  0.35436836443E+02 -0.11450721795E+02  0.40659137091E+02  0.00000000000E+00 0. -1.
         11    1    3    3    0    0 -0.88836967851E+00  0.12470000228E+01  0.43326299198E+01  0.45952031540E+01  0.51100000000E-03 0. -1.
        -11    1    3    3    0    0 -0.18878001294E+02 -0.30871138244E+02  0.11392623059E+02  0.37936762773E+02  0.51100000000E-03 0.  1.
        -12    1    3    3    0    0  0.34483740900E+01 -0.58126982227E+01 -0.42745311839E+01  0.79968969816E+01  0.00000000000E+00 0.  1.
</event>
<event>
 7    1  0.3041451E-011  0.5052887E+02  0.7816164E-02  0.1300439E+00
        -11   -1    0    0    0    0  0.00000000000E+00  0.00000000000E+00  0.45593999997E+02  0.45594000000E+02  0.51100000000E-03 0. -1.
         11   -1    0    0    0    0 -0.00000000000E+00 -0.00000000000E+00 -0.45593999997E+02  0.45594000000E+02  0.51100000000E-03 0.  1.
    9900012    2    1    2    0    0 -0.34798389103E+02 -0.70658375619E+01 -0.19806850065E+02  0.50528865059E+02  0.30000015833E+02 0.  0.
         12    1    1    2    0    0  0.34798389103E+02  0.70658375619E+01  0.19806850065E+02  0.40659134941E+02  0.00000000000E+00 0. -1.
         11    1    3    3    0    0 -0.11847219661E+02 -0.39007975392E+01  0.19317486713E+01  0.12621588185E+02  0.51100000000E-03 0. -1.
        -11    1    3    3    0    0 -0.11649787072E+02  0.38717165808E+01 -0.21303006803E+02  0.24587106931E+02  0.51100000000E-03 0.  1.
        -12    1    3    3    0    0 -0.11301382371E+02 -0.70367566035E+01 -0.43559193356E+00  0.13320169943E+02  0.00000000000E+00 0.  1.
</event>
<event>
 7    1  0.3041451E-011  0.5052883E+02  0.7816164E-02  0.1300439E+00
        -11   -1    0    0    0    0  0.00000000000E+00  0.00000000000E+00  0.45593999997E+02  0.45594000000E+02  0.51100000000E-03 0.  1.
         11   -1    0    0    0    0 -0.00000000000E+00 -0.00000000000E+00 -0.45593999997E+02  0.45594000000E+02  0.51100000000E-03 0. -1.
    9900012    2    1    2    0    0 -0.30578020467E+02 -0.14606110947E+02  0.22468071716E+02  0.50528830563E+02  0.29999910978E+02 0.  0.
         12    1    1    2    0    0  0.30578020467E+02  0.14606110947E+02 -0.22468071716E+02  0.40659169437E+02  0.00000000000E+00 0. -1.
         11    1    3    3    0    0 -0.37426267088E+01 -0.80915287003E+01 -0.50932141269E+01  0.10267469104E+02  0.51100000000E-03 0. -1.
        -11    1    3    3    0    0 -0.10688104253E+02 -0.30363647379E+01  0.47165281680E+01  0.12070655391E+02  0.51100000000E-03 0.  1.
         12    1    3    3    0    0 -0.16147289506E+02 -0.34782175093E+01  0.22844757675E+02  0.28190706068E+02  0.00000000000E+00 0. -1.
</event>
<event>
 7    1  0.3041451E-011  0.5052881E+02  0.7816164E-02  0.1300439E+00
        -11   -1    0    0    0    0  0.00000000000E+00  0.00000000000E+00  0.45593999997E+02  0.45594000000E+02  0.51100000000E-03 0.  1.
         11   -1    0    0    0    0 -0.00000000000E+00 -0.00000000000E+00 -0.45593999997E+02  0.45594000000E+02  0.51100000000E-03 0. -1.
    9900012    2    1    2    0    0 -0.13581951450E+02  0.64183727842E+01  0.37782339383E+02  0.50528805669E+02  0.29999835311E+02 0.  0.
         12    1    1    2    0    0  0.13581951450E+02 -0.64183727842E+01 -0.37782339383E+02  0.40659194331E+02  0.00000000000E+00 0. -1.
         11    1    3    3    0    0 -0.26831246810E+01 -0.81224582454E+01  0.71335213990E+01  0.11138250034E+02  0.51100000000E-03 0. -1.
        -11    1    3    3    0    0 -0.11246835744E+02  0.33060351351E+01  0.22937548606E+02  0.25759509290E+02  0.51100000000E-03 0.  1.
         12    1    3    3    0    0  0.34800897540E+00  0.11234795895E+02  0.77112693780E+01  0.13631046345E+02  0.00000000000E+00 0. -1.
</event>
<event>
 7    1  0.3041451E-011  0.5052884E+02  0.7816164E-02  0.1300439E+00
        -11   -1    0    0    0    0  0.00000000000E+00  0.00000000000E+00  0.45593999997E+02  0.45594000000E+02  0.51100000000E-03 0.  1.
         11   -1    0    0    0    0 -0.00000000000E+00 -0.00000000000E+00 -0.45593999997E+02  0.45594000000E+02  0.51100000000E-03 0. -1.
    9900012    2    1    2    0    0  0.32008549891E+02  0.15916084416E+02  0.19372606693E+02  0.50528844827E+02  0.29999954337E+02 0.  0.
         12    1    1    2    0    0 -0.32008549891E+02 -0.15916084416E+02 -0.19372606693E+02  0.40659155173E+02  0.00000000000E+00 0. -1.
         11    1    3    3    0    0  0.25753170778E+00  0.54829388299E+00  0.13853235545E+02  0.13866473384E+02  0.51100000000E-03 0. -1.
        -11    1    3    3    0    0  0.21864076030E+02  0.63066309499E+01  0.46310807290E+01  0.23221936258E+02  0.51100000000E-03 0.  1.
         12    1    3    3    0    0  0.98869421533E+01  0.90611595826E+01  0.88829041922E+00  0.13440435186E+02  0.00000000000E+00 0. -1.
</event>
<event>
 7    1  0.3041451E-011  0.5052886E+02  0.7816164E-02  0.1300439E+00
        -11   -1    0    0    0    0  0.00000000000E+00  0.00000000000E+00  0.45593999997E+02  0.45594000000E+02  0.51100000000E-03 0.  1.
         11   -1    0    0    0    0 -0.00000000000E+00 -0.00000000000E+00 -0.45593999997E+02  0.45594000000E+02  0.51100000000E-03 0. -1.
    9900012    2    1    2    0    0 -0.10609453776E+02  0.17596666907E+02  0.35085073379E+02  0.50528861179E+02  0.30000004040E+02 0.  0.
         12    1    1    2    0    0  0.10609453776E+02 -0.17596666907E+02 -0.35085073379E+02  0.40659138821E+02  0.00000000000E+00 0. -1.
         11    1    3    3    0    0 -0.77027360337E+00  0.13511691208E+02  0.53545313617E+00  0.13544217624E+02  0.51100000000E-03 0. -1.
        -11    1    3    3    0    0 -0.25675078843E+01  0.34243706320E+01  0.51721763739E+01  0.67134059661E+01  0.51100000000E-03 0.  1.
         12    1    3    3    0    0 -0.72716722885E+01  0.66060506667E+00  0.29377443869E+02  0.30271237589E+02  0.00000000000E+00 0. -1.
</event>
<event>
 7    1  0.3041451E-011  0.5052886E+02  0.7816164E-02  0.1300439E+00
        -11   -1    0    0    0    0  0.00000000000E+00  0.00000000000E+00  0.45593999997E+02  0.45594000000E+02  0.51100000000E-03 0.  1.
         11   -1    0    0    0    0 -0.00000000000E+00 -0.00000000000E+00 -0.45593999997E+02  0.45594000000E+02  0.51100000000E-03 0. -1.
    9900012    2    1    2    0    0 -0.35280156546E+02 -0.17542251301E+02  0.10037207762E+02  0.50528861221E+02  0.30000004167E+02 0.  0.
         12    1    1    2    0    0  0.35280156546E+02  0.17542251301E+02 -0.10037207762E+02  0.40659138779E+02  0.00000000000E+00 0. -1.
         11    1    3    3    0    0 -0.91596396035E+01 -0.10921361611E+02 -0.58795289684E+01  0.15418949324E+02  0.51100000000E-03 0. -1.
        -11    1    3    3    0    0 -0.21079385248E+02 -0.10552131067E+02  0.16372368490E+02  0.28700912925E+02  0.51100000000E-03 0.  1.
        -12    1    3    3    0    0 -0.50411316936E+01  0.39312413769E+01 -0.45563175992E+00  0.64089989715E+01  0.00000000000E+00 0.  1.
</event>
<event>
 7    1  0.3041451E-011  0.5052887E+02  0.7816164E-02  0.1300439E+00
        -11   -1    0    0    0    0  0.00000000000E+00  0.00000000000E+00  0.45593999997E+02  0.45594000000E+02  0.51100000000E-03 0.  1.
         11   -1    0    0    0    0 -0.00000000000E+00 -0.00000000000E+00 -0.45593999997E+02  0.45594000000E+02  0.51100000000E-03 0. -1.
    9900012    2    1    2    0    0 -0.74316508086E+00  0.39155789928E+02  0.10928718824E+02  0.50528867270E+02  0.30000022553E+02 0.  0.
         12    1    1    2    0    0  0.74316508086E+00 -0.39155789928E+02 -0.10928718824E+02  0.40659132730E+02  0.00000000000E+00 0. -1.
         11    1    3    3    0    0 -0.66787928159E+01 -0.68362603883E-02 -0.38577970267E+01  0.77129059616E+01  0.51100000000E-03 0. -1.
        -11    1    3    3    0    0  0.60110816279E+01  0.18422941838E+02  0.59452567975E+01  0.20270272986E+02  0.51100000000E-03 0.  1.
         12    1    3    3    0    0 -0.75453892827E-01  0.20739684351E+02  0.88412590533E+01  0.22545688322E+02  0.00000000000E+00 0. -1.
</event>
<event>
 7    1  0.3536822E-011  0.5052886E+02  0.7816164E-02  0.1300439E+00
        -11   -1    0    0    0    0  0.00000000000E+00  0.00000000000E+00  0.45593999997E+02  0.45594000000E+02  0.51100000000E-03 0.  1.
         11   -1    0    0    0    0 -0.00000000000E+00 -0.00000000000E+00 -0.45593999997E+02  0.45594000000E+02  0.51100000000E-03 0. -1.
    9900012    2    1    2    0    0  0.40083024182E+02  0.90548306500E+00  0.67599518710E+01  0.50528859866E+02  0.30000000048E+02 0.  0.
         12    1    1    2    0    0 -0.40083024182E+02 -0.90548306500E+00 -0.67599518710E+01  0.40659140134E+02  0.00000000000E+00 0. -1.
         11    1    3    3    0    0  0.10495709832E+02  0.26248630070E+01 -0.10093000546E+02  0.14795894396E+02  0.51100000000E-03 0. -1.
        -11    1    3    3    0    0  0.24093636132E+02  0.82902808853E+00  0.88149001792E+01  0.25668912229E+02  0.51100000000E-03 0.  1.
         12    1    3    3    0    0  0.54936782184E+01 -0.25484080306E+01  0.80380522377E+01  0.10064053241E+02  0.00000000000E+00 0. -1.
</event>
<event>
 7    1  0.3041451E-011  0.5052886E+02  0.7816164E-02  0.1300439E+00
        -11   -1    0    0    0    0  0.00000000000E+00  0.00000000000E+00  0.45593999997E+02  0.45594000000E+02  0.51100000000E-03 0. -1.
         11   -1    0    0    0    0 -0.00000000000E+00 -0.00000000000E+00 -0.45593999997E+02  0.45594000000E+02  0.51100000000E-03 0.  1.
    9900012    2    1    2    0    0 -0.31636173300E+02  0.14542163441E+02 -0.20996276213E+02  0.50528860887E+02  0.30000003152E+02 0.  0.
         12    1    1    2    0    0  0.31636173300E+02 -0.14542163441E+02  0.20996276213E+02  0.40659139113E+02  0.00000000000E+00 0. -1.
         11    1    3    3    0    0 -0.25844913451E+01  0.10949433762E+02 -0.26312916185E+01  0.11553934009E+02  0.51100000000E-03 0. -1.
        -11    1    3    3    0    0 -0.17653107947E+02 -0.44646515471E+01 -0.34243426913E+01  0.18528126099E+02  0.51100000000E-03 0.  1.
         12    1    3    3    0    0 -0.11398574008E+02  0.80573812254E+01 -0.14940641903E+02  0.20446800779E+02  0.00000000000E+00 0. -1.
</event>
<event>
 7    1  0.3041451E-011  0.5052886E+02  0.7816164E-02  0.1300439E+00
        -11   -1    0    0    0    0  0.00000000000E+00  0.00000000000E+00  0.45593999997E+02  0.45594000000E+02  0.51100000000E-03 0.  1.
         11   -1    0    0    0    0 -0.00000000000E+00 -0.00000000000E+00 -0.45593999997E+02  0.45594000000E+02  0.51100000000E-03 0. -1.
    9900012    2    1    2    0    0  0.22156922116E+02 -0.15608756243E+02  0.30308473678E+02  0.50528855324E+02  0.29999986243E+02 0.  0.
         12    1    1    2    0    0 -0.22156922116E+02  0.15608756243E+02 -0.30308473678E+02  0.40659144676E+02  0.00000000000E+00 0. -1.
         11    1    3    3    0    0 -0.65977675393E+01 -0.57838815251E+01  0.87894826483E+01  0.12419292552E+02  0.51100000000E-03 0. -1.
        -11    1    3    3    0    0  0.18977888919E+02 -0.75433107480E+01  0.18679012297E+02  0.27676114350E+02  0.51100000000E-03 0.  1.
         12    1    3    3    0    0  0.97768007362E+01 -0.22815639694E+01  0.28399787331E+01  0.10433448423E+02  0.00000000000E+00 0. -1.
</event>
<event>
 7    1  0.3041451E-011  0.5052886E+02  0.7816164E-02  0.1300439E+00
        -11   -1    0    0    0    0  0.00000000000E+00  0.00000000000E+00  0.45593999997E+02  0.45594000000E+02  0.51100000000E-03 0. -1.
         11   -1    0    0    0    0 -0.00000000000E+00 -0.00000000000E+00 -0.45593999997E+02  0.45594000000E+02  0.51100000000E-03 0.  1.
    9900012    2    1    2    0    0  0.38330960025E+02  0.89621007665E+01  0.10177605904E+02  0.50528863161E+02  0.30000010063E+02 0.  0.
         12    1    1    2    0    0 -0.38330960025E+02 -0.89621007665E+01 -0.10177605904E+02  0.40659136839E+02  0.00000000000E+00 0. -1.
         11    1    3    3    0    0 -0.69073884469E+00  0.26006068070E+00  0.74375873665E+01  0.74741191993E+01  0.51100000000E-03 0. -1.
        -11    1    3    3    0    0  0.30655317779E+02 -0.85024563984E-01  0.18660435035E+00  0.30656003633E+02  0.51100000000E-03 0.  1.
        -12    1    3    3    0    0  0.83663810906E+01  0.87870646498E+01  0.25534141873E+01  0.12398740328E+02  0.00000000000E+00 0.  1.
</event>
<event>
 7    1  0.3041451E-011  0.5052885E+02  0.7816164E-02  0.1300439E+00
        -11   -1    0    0    0    0  0.00000000000E+00  0.00000000000E+00  0.45593999997E+02  0.45594000000E+02  0.51100000000E-03 0.  1.
         11   -1    0    0    0    0 -0.00000000000E+00 -0.00000000000E+00 -0.45593999997E+02  0.45594000000E+02  0.51100000000E-03 0. -1.
    9900012    2    1    2    0    0  0.22899254787E+02  0.25558454314E+02  0.21807250498E+02  0.50528848127E+02  0.29999964368E+02 0.  0.
         12    1    1    2    0    0 -0.22899254787E+02 -0.25558454314E+02 -0.21807250498E+02  0.40659151873E+02  0.00000000000E+00 0. -1.
         11    1    3    3    0    0  0.18098295023E+02  0.23651090047E+02  0.77871972142E+01  0.30782507758E+02  0.51100000000E-03 0. -1.
        -11    1    3    3    0    0 -0.42145665918E+01  0.23260178192E+01  0.58140012098E+01  0.75482144101E+01  0.51100000000E-03 0.  1.
         12    1    3    3    0    0  0.90155263563E+01 -0.41865355254E+00  0.82060520743E+01  0.12198125960E+02  0.00000000000E+00 0. -1.
</event>
<event>
 7    1  0.3041451E-011  0.5052887E+02  0.7816164E-02  0.1300439E+00
        -11   -1    0    0    0    0  0.00000000000E+00  0.00000000000E+00  0.45593999997E+02  0.45594000000E+02  0.51100000000E-03 0. -1.
         11   -1    0    0    0    0 -0.00000000000E+00 -0.00000000000E+00 -0.45593999997E+02  0.45594000000E+02  0.51100000000E-03 0.  1.
    9900012    2    1    2    0    0 -0.40399255028E+02  0.17891518666E+01  0.42266135238E+01  0.50528866547E+02  0.30000020357E+02 0.  0.
         12    1    1    2    0    0  0.40399255028E+02 -0.17891518666E+01 -0.42266135238E+01  0.40659133453E+02  0.00000000000E+00 0. -1.
         11    1    3    3    0    0 -0.19289466412E+02 -0.78139408230E+01  0.52831996841E+01  0.21472153707E+02  0.51100000000E-03 0. -1.
        -11    1    3    3    0    0 -0.24668564145E+01  0.51857311307E+01 -0.69463657472E+01  0.90127235221E+01  0.51100000000E-03 0.  1.
         12    1    3    3    0    0 -0.18642932202E+02  0.44173615588E+01  0.58897795869E+01  0.20043989318E+02  0.00000000000E+00 0. -1.
</event>
<event>
 7    1  0.3041451E-011  0.5052885E+02  0.7816164E-02  0.1300439E+00
        -11   -1    0    0    0    0  0.00000000000E+00  0.00000000000E+00  0.45593999997E+02  0.45594000000E+02  0.51100000000E-03 0. -1.
         11   -1    0    0    0    0 -0.00000000000E+00 -0.00000000000E+00 -0.45593999997E+02  0.45594000000E+02  0.51100000000E-03 0.  1.
    9900012    2    1    2    0    0  0.35127798665E+02 -0.18504322055E+02 -0.87632129347E+01  0.50528854968E+02  0.29999985162E+02 0.  0.
         12    1    1    2    0    0 -0.35127798665E+02  0.18504322055E+02  0.87632129347E+01  0.40659145032E+02  0.00000000000E+00 0. -1.
         11    1    3    3    0    0  0.16954962316E+01  0.32415171216E+01 -0.99061674397E+01  0.10560032875E+02  0.51100000000E-03 0. -1.
        -11    1    3    3    0    0  0.18645361144E+02 -0.11257989912E+02  0.15496143547E+01  0.21835593282E+02  0.51100000000E-03 0.  1.
         12    1    3    3    0    0  0.14786941289E+02 -0.10487849265E+02 -0.40665984975E+00  0.18133228811E+02  0.00000000000E+00 0. -1.
</event>
<event>
 7    1  0.3041451E-011  0.5052886E+02  0.7816164E-02  0.1300439E+00
        -11   -1    0    0    0    0  0.00000000000E+00  0.00000000000E+00  0.45593999997E+02  0.45594000000E+02  0.51100000000E-03 0. -1.
         11   -1    0    0    0    0 -0.00000000000E+00 -0.00000000000E+00 -0.45593999997E+02  0.45594000000E+02  0.51100000000E-03 0.  1.
    9900012    2    1    2    0    0 -0.18063881387E+02 -0.22418582572E+02  0.28710088161E+02  0.50528858131E+02  0.29999994775E+02 0.  0.
         12    1    1    2    0    0  0.18063881387E+02  0.22418582572E+02 -0.28710088161E+02  0.40659141869E+02  0.00000000000E+00 0. -1.
         11    1    3    3    0    0  0.56614915059E+01 -0.59152166082E+00  0.32137177975E+01  0.65368468155E+01  0.51100000000E-03 0. -1.
        -11    1    3    3    0    0 -0.23298580310E+02 -0.23994948498E+02  0.22669285704E+02  0.40403934369E+02  0.51100000000E-03 0.  1.
        -12    1    3    3    0    0 -0.42679258348E+00  0.21678875874E+01  0.28270846598E+01  0.35880769466E+01  0.00000000000E+00 0.  1.
</event>
<event>
 7    1  0.3041451E-011  0.5052886E+02  0.7816164E-02  0.1300439E+00
        -11   -1    0    0    0    0  0.00000000000E+00  0.00000000000E+00  0.45593999997E+02  0.45594000000E+02  0.51100000000E-03 0.  1.
         11   -1    0    0    0    0 -0.00000000000E+00 -0.00000000000E+00 -0.45593999997E+02  0.45594000000E+02  0.51100000000E-03 0. -1.
    9900012    2    1    2    0    0 -0.16258996417E+02 -0.59545805476E+01  0.36787957384E+02  0.50528858316E+02  0.29999995339E+02 0.  0.
         12    1    1    2    0    0  0.16258996417E+02  0.59545805476E+01 -0.36787957384E+02  0.40659141684E+02  0.00000000000E+00 0. -1.
         11    1    3    3    0    0  0.30971159299E+01  0.37681032721E+01 -0.10422914721E+00  0.48786876646E+01  0.51100000000E-03 0. -1.
        -11    1    3    3    0    0 -0.16633654321E+02 -0.81797155445E+01  0.15885808946E+02  0.24411987395E+02  0.51100000000E-03 0.  1.
         12    1    3    3    0    0 -0.27224580260E+01 -0.15429682751E+01  0.21006377585E+02  0.21238183257E+02  0.00000000000E+00 0. -1.
</event>
<event>
 7    1  0.3041451E-011  0.5052887E+02  0.7816164E-02  0.1300439E+00
        -11   -1    0    0    0    0  0.00000000000E+00  0.00000000000E+00  0.45593999997E+02  0.45594000000E+02  0.51100000000E-03 0. -1.
         11   -1    0    0    0    0 -0.00000000000E+00 -0.00000000000E+00 -0.45593999997E+02  0.45594000000E+02  0.51100000000E-03 0.  1.
    9900012    2    1    2    0    0  0.19927191182E+02 -0.21499597142E+02 -0.28175151896E+02  0.50528870521E+02  0.30000032434E+02 0.  0.
         12    1    1    2    0    0 -0.19927191182E+02  0.21499597142E+02  0.28175151896E+02  0.40659129479E+02  0.00000000000E+00 0. -1.
         11    1    3    3    0    0 -0.42766835708E+01 -0.76282334530E+01 -0.41173042576E+01  0.96660313774E+01  0.51100000000E-03 0. -1.
        -11    1    3    3    0    0  0.26393435422E+02 -0.15064168917E+02 -0.23173792249E+02  0.38217368643E+02  0.51100000000E-03 0.  1.
        -12    1    3    3    0    0 -0.21895606691E+01  0.11928052284E+01 -0.88405538970E+00  0.26454705004E+01  0.00000000000E+00 0.  1.
</event>
<event>
 7    1  0.3041451E-011  0.5052885E+02  0.7816164E-02  0.1300439E+00
        -11   -1    0    0    0    0  0.00000000000E+00  0.00000000000E+00  0.45593999997E+02  0.45594000000E+02  0.51100000000E-03 0. -1.
         11   -1    0    0    0    0 -0.00000000000E+00 -0.00000000000E+00 -0.45593999997E+02  0.45594000000E+02  0.51100000000E-03 0.  1.
    9900012    2    1    2    0    0  0.95905334662E+01 -0.36505922727E+02 -0.15116395967E+02  0.50528854002E+02  0.29999982223E+02 0.  0.
         12    1    1    2    0    0 -0.95905334662E+01  0.36505922727E+02  0.15116395967E+02  0.40659145998E+02  0.00000000000E+00 0. -1.
         11    1    3    3    0    0 -0.77418567986E+01 -0.83992053620E+01 -0.13896577747E+01  0.11507134587E+02  0.51100000000E-03 0. -1.
        -11    1    3    3    0    0  0.19674797616E+02 -0.20069787350E+02 -0.96961996825E+01  0.29730629224E+02  0.51100000000E-03 0.  1.
        -12    1    3    3    0    0 -0.23424073512E+01 -0.80369300144E+01 -0.40305385098E+01  0.92910901908E+01  0.00000000000E+00 0.  1.
</event>
<event>
 7    1  0.3041451E-011  0.5052885E+02  0.7816164E-02  0.1300439E+00
        -11   -1    0    0    0    0  0.00000000000E+00  0.00000000000E+00  0.45593999997E+02  0.45594000000E+02  0.51100000000E-03 0.  1.
         11   -1    0    0    0    0 -0.00000000000E+00 -0.00000000000E+00 -0.45593999997E+02  0.45594000000E+02  0.51100000000E-03 0. -1.
    9900012    2    1    2    0    0  0.21814234119E+02 -0.56090395096E+01  0.33850316880E+02  0.50528854814E+02  0.29999984691E+02 0.  0.
         12    1    1    2    0    0 -0.21814234119E+02  0.56090395096E+01 -0.33850316880E+02  0.40659145186E+02  0.00000000000E+00 0. -1.
         11    1    3    3    0    0  0.12327674601E+02  0.10135313570E+02  0.14699134454E+02  0.21697020445E+02  0.51100000000E-03 0. -1.
        -11    1    3    3    0    0  0.75909691905E+01 -0.14883315198E+02  0.20427526057E+02  0.26389765168E+02  0.51100000000E-03 0.  1.
        -12    1    3    3    0    0  0.18955903273E+01 -0.86103788104E+00 -0.12763436304E+01  0.24420692014E+01  0.00000000000E+00 0.  1.
</event>
<event>
 7    1  0.3041451E-011  0.5052886E+02  0.7816164E-02  0.1300439E+00
        -11   -1    0    0    0    0  0.00000000000E+00  0.00000000000E+00  0.45593999997E+02  0.45594000000E+02  0.51100000000E-03 0.  1.
         11   -1    0    0    0    0 -0.00000000000E+00 -0.00000000000E+00 -0.45593999997E+02  0.45594000000E+02  0.51100000000E-03 0. -1.
    9900012    2    1    2    0    0 -0.30953149989E+02  0.95286416393E+01  0.24581967824E+02  0.50528860218E+02  0.30000001119E+02 0.  0.
         12    1    1    2    0    0  0.30953149989E+02 -0.95286416393E+01 -0.24581967824E+02  0.40659139782E+02  0.00000000000E+00 0. -1.
         11    1    3    3    0    0 -0.24215694286E+02  0.15181644403E+02  0.15891071067E+02  0.32701809070E+02  0.51100000000E-03 0.  1.
        -11    1    3    3    0    0  0.15087242563E+01  0.28410609730E+01  0.39011594047E+01  0.50563743231E+01  0.51100000000E-03 0. -1.
         12    1    3    3    0    0 -0.82461799587E+01 -0.84940637364E+01  0.47897373521E+01  0.12770676825E+02  0.00000000000E+00 0. -1.
</event>
<event>
 7    1  0.3041451E-011  0.5052879E+02  0.7816164E-02  0.1300439E+00
        -11   -1    0    0    0    0  0.00000000000E+00  0.00000000000E+00  0.45593999997E+02  0.45594000000E+02  0.51100000000E-03 0.  1.
         11   -1    0    0    0    0 -0.00000000000E+00 -0.00000000000E+00 -0.45593999997E+02  0.45594000000E+02  0.51100000000E-03 0. -1.
    9900012    2    1    2    0    0 -0.29002657716E+02 -0.77442785833E+01  0.27423410565E+02  0.50528788837E+02  0.29999784149E+02 0.  0.
         12    1    1    2    0    0  0.29002657716E+02  0.77442785833E+01 -0.27423410565E+02  0.40659211163E+02  0.00000000000E+00 0. -1.
         11    1    3    3    0    0  0.87134631921E+00  0.47300950695E+01  0.81929507695E+00  0.48789638714E+01  0.51100000000E-03 0. -1.
        -11    1    3    3    0    0 -0.12764987906E+02 -0.14832331474E+02  0.11445977232E+02  0.22670539655E+02  0.51100000000E-03 0.  1.
        -12    1    3    3    0    0 -0.17109016130E+02  0.23579578213E+01  0.15158138256E+02  0.22979285311E+02  0.00000000000E+00 0.  1.
</event>
<event>
 7    1  0.3041451E-011  0.5052883E+02  0.7816164E-02  0.1300439E+00
        -11   -1    0    0    0    0  0.00000000000E+00  0.00000000000E+00  0.45593999997E+02  0.45594000000E+02  0.51100000000E-03 0. -1.
         11   -1    0    0    0    0 -0.00000000000E+00 -0.00000000000E+00 -0.45593999997E+02  0.45594000000E+02  0.51100000000E-03 0.  1.
    9900012    2    1    2    0    0  0.93274219653E+01  0.94896171417E+01 -0.38420231659E+02  0.50528833325E+02  0.29999919374E+02 0.  0.
         12    1    1    2    0    0 -0.93274219653E+01 -0.94896171417E+01  0.38420231659E+02  0.40659166675E+02  0.00000000000E+00 0. -1.
         11    1    3    3    0    0 -0.51674624109E+01  0.29602531991E+01 -0.21189796932E+02  0.22010753305E+02  0.51100000000E-03 0. -1.
        -11    1    3    3    0    0  0.16718136292E+02  0.62828145706E+01 -0.90197417105E+01  0.20008137865E+02  0.51100000000E-03 0.  1.
        -12    1    3    3    0    0 -0.22232519163E+01  0.24654937198E+00 -0.82106930166E+01  0.85099421554E+01  0.00000000000E+00 0.  1.
</event>
<event>
 7    1  0.3041451E-011  0.5052886E+02  0.7816164E-02  0.1300439E+00
        -11   -1    0    0    0    0  0.00000000000E+00  0.00000000000E+00  0.45593999997E+02  0.45594000000E+02  0.51100000000E-03 0.  1.
         11   -1    0    0    0    0 -0.00000000000E+00 -0.00000000000E+00 -0.45593999997E+02  0.45594000000E+02  0.51100000000E-03 0. -1.
    9900012    2    1    2    0    0  0.20518689773E+01  0.26128523512E+02  0.31084659761E+02  0.50528856137E+02  0.29999988714E+02 0.  0.
         12    1    1    2    0    0 -0.20518689773E+01 -0.26128523512E+02 -0.31084659761E+02  0.40659143863E+02  0.00000000000E+00 0. -1.
         11    1    3    3    0    0 -0.21511065316E+01  0.39908368172E+01 -0.38267922493E+01  0.59328220091E+01  0.51100000000E-03 0. -1.
        -11    1    3    3    0    0 -0.52225758162E+00  0.80122552425E+01  0.26061682496E+02  0.27270502046E+02  0.51100000000E-03 0.  1.
         12    1    3    3    0    0  0.47252330906E+01  0.14125431452E+02  0.88497695143E+01  0.17325532082E+02  0.00000000000E+00 0. -1.
</event>
<event>
 7    1  0.3041451E-011  0.5052883E+02  0.7816164E-02  0.1300439E+00
        -11   -1    0    0    0    0  0.00000000000E+00  0.00000000000E+00  0.45593999997E+02  0.45594000000E+02  0.51100000000E-03 0.  1.
         11   -1    0    0    0    0 -0.00000000000E+00 -0.00000000000E+00 -0.45593999997E+02  0.45594000000E+02  0.51100000000E-03 0. -1.
    9900012    2    1    2    0    0  0.15999536957E+02 -0.33990274252E+02 -0.15551340792E+02  0.50528829731E+02  0.29999908450E+02 0.  0.
         12    1    1    2    0    0 -0.15999536957E+02  0.33990274252E+02  0.15551340792E+02  0.40659170269E+02  0.00000000000E+00 0. -1.
         11    1    3    3    0    0  0.69665724548E+01 -0.65544681979E+01 -0.13678821724E+02  0.16691445388E+02  0.51100000000E-03 0. -1.
        -11    1    3    3    0    0  0.19140971471E+01  0.17970715559E+01  0.22644213295E+01  0.34671080577E+01  0.51100000000E-03 0.  1.
        -12    1    3    3    0    0  0.71188673552E+01 -0.29232877610E+02 -0.41369403968E+01  0.30370276285E+02  0.00000000000E+00 0.  1.
</event>
<event>
 7    1  0.3041451E-011  0.5052888E+02  0.7816164E-02  0.1300439E+00
        -11   -1    0    0    0    0  0.00000000000E+00  0.00000000000E+00  0.45593999997E+02  0.45594000000E+02  0.51100000000E-03 0.  1.
         11   -1    0    0    0    0 -0.00000000000E+00 -0.00000000000E+00 -0.45593999997E+02  0.45594000000E+02  0.51100000000E-03 0. -1.
    9900012    2    1    2    0    0 -0.29020758805E+02  0.16105377123E+02  0.23485668390E+02  0.50528877609E+02  0.30000053982E+02 0.  0.
         12    1    1    2    0    0  0.29020758805E+02 -0.16105377123E+02 -0.23485668390E+02  0.40659122391E+02  0.00000000000E+00 0. -1.
         11    1    3    3    0    0 -0.88248082407E+00  0.12707675344E+01  0.12986602655E+02  0.13078435354E+02  0.51100000000E-03 0. -1.
        -11    1    3    3    0    0 -0.25846322692E+02  0.16146934460E+02  0.13604147666E+02  0.33374072618E+02  0.51100000000E-03 0.  1.
        -12    1    3    3    0    0 -0.22919552884E+01 -0.13123248712E+01 -0.31050819319E+01  0.40763696368E+01  0.00000000000E+00 0.  1.
</event>
<event>
 7    1  0.3041451E-011  0.5052886E+02  0.7816164E-02  0.1300439E+00
        -11   -1    0    0    0    0  0.00000000000E+00  0.00000000000E+00  0.45593999997E+02  0.45594000000E+02  0.51100000000E-03 0.  1.
         11   -1    0    0    0    0 -0.00000000000E+00 -0.00000000000E+00 -0.45593999997E+02  0.45594000000E+02  0.51100000000E-03 0. -1.
    9900012    2    1    2    0    0 -0.48442527151E+00  0.34248465528E+02  0.21908298587E+02  0.50528860734E+02  0.30000002688E+02 0.  0.
         12    1    1    2    0    0  0.48442527151E+00 -0.34248465528E+02 -0.21908298587E+02  0.40659139266E+02  0.00000000000E+00 0. -1.
         11    1    3    3    0    0  0.22771273739E+00  0.30139892021E+02  0.47803325517E+01  0.30517478987E+02  0.51100000000E-03 0. -1.
        -11    1    3    3    0    0 -0.15240919684E+01  0.63091315379E+01  0.16264767157E+02  0.17512014391E+02  0.51100000000E-03 0.  1.
        -12    1    3    3    0    0  0.81195395954E+00 -0.22005580311E+01  0.86319887805E+00  0.24993673567E+01  0.00000000000E+00 0.  1.
</event>
<event>
 7    1  0.3041451E-011  0.5052886E+02  0.7816164E-02  0.1300439E+00
        -11   -1    0    0    0    0  0.00000000000E+00  0.00000000000E+00  0.45593999997E+02  0.45594000000E+02  0.51100000000E-03 0. -1.
         11   -1    0    0    0    0 -0.00000000000E+00 -0.00000000000E+00 -0.45593999997E+02  0.45594000000E+02  0.51100000000E-03 0.  1.
    9900012    2    1    2    0    0 -0.27494552899E+02 -0.18570743707E+01 -0.29895929978E+02  0.50528858426E+02  0.29999995671E+02 0.  0.
         12    1    1    2    0    0  0.27494552899E+02  0.18570743707E+01  0.29895929978E+02  0.40659141574E+02  0.00000000000E+00 0. -1.
         11    1    3    3    0    0 -0.29645249842E+01  0.64932108890E+01 -0.15166078846E+02  0.16761865763E+02  0.51100000000E-03 0. -1.
        -11    1    3    3    0    0 -0.12938918766E+02 -0.17553374224E+01  0.10583272158E+01  0.13100262786E+02  0.51100000000E-03 0.  1.
        -12    1    3    3    0    0 -0.11591109149E+02 -0.65949478373E+01 -0.15788178347E+02  0.20666729877E+02  0.00000000000E+00 0.  1.
</event>
<event>
 7    1  0.3041451E-011  0.5052886E+02  0.7816164E-02  0.1300439E+00
        -11   -1    0    0    0    0  0.00000000000E+00  0.00000000000E+00  0.45593999997E+02  0.45594000000E+02  0.51100000000E-03 0.  1.
         11   -1    0    0    0    0 -0.00000000000E+00 -0.00000000000E+00 -0.45593999997E+02  0.45594000000E+02  0.51100000000E-03 0. -1.
    9900012    2    1    2    0    0  0.38136023391E+02 -0.46296346822E+01  0.13318250662E+02  0.50528860829E+02  0.30000002977E+02 0.  0.
         12    1    1    2    0    0 -0.38136023391E+02  0.46296346822E+01 -0.13318250662E+02  0.40659139171E+02  0.00000000000E+00 0. -1.
         11    1    3    3    0    0 -0.19227491675E+01  0.20094060194E+00 -0.31736035786E+01  0.37160599325E+01  0.51100000000E-03 0. -1.
        -11    1    3    3    0    0  0.32352493119E+02  0.12013533276E+01  0.17790280760E+02  0.36940778965E+02  0.51100000000E-03 0.  1.
        -12    1    3    3    0    0  0.77062794403E+01 -0.60319286117E+01 -0.12984265194E+01  0.98720219315E+01  0.00000000000E+00 0.  1.
</event>
<event>
 7    1  0.3041451E-011  0.5052885E+02  0.7816164E-02  0.1300439E+00
        -11   -1    0    0    0    0  0.00000000000E+00  0.00000000000E+00  0.45593999997E+02  0.45594000000E+02  0.51100000000E-03 0. -1.
         11   -1    0    0    0    0 -0.00000000000E+00 -0.00000000000E+00 -0.45593999997E+02  0.45594000000E+02  0.51100000000E-03 0.  1.
    9900012    2    1    2    0    0 -0.24168372651E+02  0.24069434034E+02 -0.22129577740E+02  0.50528854629E+02  0.29999984132E+02 0.  0.
         12    1    1    2    0    0  0.24168372651E+02 -0.24069434034E+02  0.22129577740E+02  0.40659145371E+02  0.00000000000E+00 0. -1.
         11    1    3    3    0    0 -0.28216069732E+01  0.74982494138E+01 -0.13761003550E+01  0.81288906150E+01  0.51100000000E-03 0. -1.
        -11    1    3    3    0    0  0.22221636770E+01 -0.44018552380E+01 -0.54014181046E+01  0.73136624714E+01  0.51100000000E-03 0.  1.
        -12    1    3    3    0    0 -0.23568929354E+02  0.20973039858E+02 -0.15352059281E+02  0.35086301543E+02  0.00000000000E+00 0.  1.
</event>
<event>
 7    1  0.3041451E-011  0.5052886E+02  0.7816164E-02  0.1300439E+00
        -11   -1    0    0    0    0  0.00000000000E+00  0.00000000000E+00  0.45593999997E+02  0.45594000000E+02  0.51100000000E-03 0.  1.
         11   -1    0    0    0    0 -0.00000000000E+00 -0.00000000000E+00 -0.45593999997E+02  0.45594000000E+02  0.51100000000E-03 0. -1.
    9900012    2    1    2    0    0  0.28174300961E+02  0.21377132445E+02  0.20059724537E+02  0.50528861117E+02  0.30000003851E+02 0.  0.
         12    1    1    2    0    0 -0.28174300961E+02 -0.21377132445E+02 -0.20059724537E+02  0.40659138883E+02  0.00000000000E+00 0. -1.
         11    1    3    3    0    0  0.22899401095E+02  0.16851150733E+02  0.22573506774E+02  0.36302989683E+02  0.51100000000E-03 0.  1.
        -11    1    3    3    0    0  0.37783357903E+01  0.58477883283E+01 -0.66532056110E+01  0.96300360768E+01  0.51100000000E-03 0. -1.
         12    1    3    3    0    0  0.14965640763E+01 -0.13218066168E+01  0.41394233736E+01  0.45958353574E+01  0.00000000000E+00 0. -1.
</event>
<event>
 7    1  0.3041451E-011  0.5052886E+02  0.7816164E-02  0.1300439E+00
        -11   -1    0    0    0    0  0.00000000000E+00  0.00000000000E+00  0.45593999997E+02  0.45594000000E+02  0.51100000000E-03 0.  1.
         11   -1    0    0    0    0 -0.00000000000E+00 -0.00000000000E+00 -0.45593999997E+02  0.45594000000E+02  0.51100000000E-03 0. -1.
    9900012    2    1    2    0    0  0.33101423329E+02  0.55004821395E+01 -0.22960972083E+02  0.50528858726E+02  0.29999996583E+02 0.  0.
         12    1    1    2    0    0 -0.33101423329E+02 -0.55004821395E+01  0.22960972083E+02  0.40659141274E+02  0.00000000000E+00 0. -1.
         11    1    3    3    0    0 -0.38216729131E+01 -0.11094574357E+01 -0.67123077687E+01  0.78032785096E+01  0.51100000000E-03 0. -1.
        -11    1    3    3    0    0  0.31797073540E+02  0.14138447961E+01 -0.15458681843E+02  0.35383946747E+02  0.51100000000E-03 0.  1.
        -12    1    3    3    0    0  0.51260227015E+01  0.51960947792E+01 -0.78998247210E+00  0.73416334693E+01  0.00000000000E+00 0.  1.
</event>
<event>
 7    1  0.3041451E-011  0.5052886E+02  0.7816164E-02  0.1300439E+00
        -11   -1    0    0    0    0  0.00000000000E+00  0.00000000000E+00  0.45593999997E+02  0.45594000000E+02  0.51100000000E-03 0. -1.
         11   -1    0    0    0    0 -0.00000000000E+00 -0.00000000000E+00 -0.45593999997E+02  0.45594000000E+02  0.51100000000E-03 0.  1.
    9900012    2    1    2    0    0 -0.33772035598E+02 -0.34528007660E+01 -0.22376176203E+02  0.50528862244E+02  0.30000007277E+02 0.  0.
         12    1    1    2    0    0  0.33772035598E+02  0.34528007660E+01  0.22376176203E+02  0.40659137756E+02  0.00000000000E+00 0. -1.
         11    1    3    3    0    0 -0.16598415461E+02 -0.55598858927E+01  0.47247400006E+01  0.18131268441E+02  0.51100000000E-03 0. -1.
        -11    1    3    3    0    0 -0.10957365445E+02 -0.55344334804E+00 -0.16026614751E+02  0.19422217631E+02  0.51100000000E-03 0.  1.
         12    1    3    3    0    0 -0.62162546924E+01  0.26605284747E+01 -0.11074301452E+02  0.12975376173E+02  0.00000000000E+00 0. -1.
</event>
<event>
 7    1  0.3041451E-011  0.5052888E+02  0.7816164E-02  0.1300439E+00
        -11   -1    0    0    0    0  0.00000000000E+00  0.00000000000E+00  0.45593999997E+02  0.45594000000E+02  0.51100000000E-03 0.  1.
         11   -1    0    0    0    0 -0.00000000000E+00 -0.00000000000E+00 -0.45593999997E+02  0.45594000000E+02  0.51100000000E-03 0. -1.
    9900012    2    1    2    0    0  0.17888676133E+02 -0.25090445851E+02  0.26526004792E+02  0.50528878797E+02  0.30000057590E+02 0.  0.
         12    1    1    2    0    0 -0.17888676133E+02  0.25090445851E+02 -0.26526004792E+02  0.40659121203E+02  0.00000000000E+00 0. -1.
         11    1    3    3    0    0  0.13771164389E+02 -0.99990632607E+01  0.22283353205E+02  0.28038795713E+02  0.51100000000E-03 0. -1.
        -11    1    3    3    0    0  0.13436364926E+01 -0.17332909898E+02  0.61562997552E+01  0.18442753360E+02  0.51100000000E-03 0.  1.
         12    1    3    3    0    0  0.27738752517E+01  0.22415273081E+01 -0.19136481675E+01  0.40473297238E+01  0.00000000000E+00 0. -1.
</event>
<event>
 7    1  0.3041451E-011  0.5052887E+02  0.7816164E-02  0.1300439E+00
        -11   -1    0    0    0    0  0.00000000000E+00  0.00000000000E+00  0.45593999997E+02  0.45594000000E+02  0.51100000000E-03 0.  1.
         11   -1    0    0    0    0 -0.00000000000E+00 -0.00000000000E+00 -0.45593999997E+02  0.45594000000E+02  0.51100000000E-03 0. -1.
    9900012    2    1    2    0    0 -0.15550947149E+02  0.15990912438E+02  0.33994461477E+02  0.50528872502E+02  0.30000038456E+02 0.  0.
         12    1    1    2    0    0  0.15550947149E+02 -0.15990912438E+02 -0.33994461477E+02  0.40659127498E+02  0.00000000000E+00 0. -1.
         11    1    3    3    0    0  0.45917555752E+01  0.11731483132E+02  0.11111760476E+02  0.16798307559E+02  0.51100000000E-03 0. -1.
        -11    1    3    3    0    0 -0.11266618367E+02 -0.29452739081E+01  0.53866972070E+01  0.12830737893E+02  0.51100000000E-03 0.  1.
         12    1    3    3    0    0 -0.88760843569E+01  0.72047032148E+01  0.17496003794E+02  0.20899827049E+02  0.00000000000E+00 0. -1.
</event>
<event>
 7    1  0.3041451E-011  0.5052887E+02  0.7816164E-02  0.1300439E+00
        -11   -1    0    0    0    0  0.00000000000E+00  0.00000000000E+00  0.45593999997E+02  0.45594000000E+02  0.51100000000E-03 0.  1.
         11   -1    0    0    0    0 -0.00000000000E+00 -0.00000000000E+00 -0.45593999997E+02  0.45594000000E+02  0.51100000000E-03 0. -1.
    9900012    2    1    2    0    0  0.15102696882E+02 -0.48140105757E+01  0.37441938218E+02  0.50528869556E+02  0.30000029502E+02 0.  0.
         12    1    1    2    0    0 -0.15102696882E+02  0.48140105757E+01 -0.37441938218E+02  0.40659130444E+02  0.00000000000E+00 0. -1.
         11    1    3    3    0    0 -0.28695013303E+01  0.83232964968E+01  0.59788103510E+01  0.10642249571E+02  0.51100000000E-03 0. -1.
        -11    1    3    3    0    0  0.10803867193E+02 -0.92509702553E+01  0.27178699577E+02  0.30675490346E+02  0.51100000000E-03 0.  1.
         12    1    3    3    0    0  0.71683310188E+01 -0.38863368172E+01  0.42844282898E+01  0.92111296388E+01  0.00000000000E+00 0. -1.
</event>
<event>
 7    1  0.3041451E-011  0.5052886E+02  0.7816164E-02  0.1300439E+00
        -11   -1    0    0    0    0  0.00000000000E+00  0.00000000000E+00  0.45593999997E+02  0.45594000000E+02  0.51100000000E-03 0.  1.
         11   -1    0    0    0    0 -0.00000000000E+00 -0.00000000000E+00 -0.45593999997E+02  0.45594000000E+02  0.51100000000E-03 0. -1.
    9900012    2    1    2    0    0 -0.32466592469E+02  0.19702019280E+02 -0.14522966538E+02  0.50528858994E+02  0.29999997400E+02 0.  0.
         12    1    1    2    0    0  0.32466592469E+02 -0.19702019280E+02  0.14522966538E+02  0.40659141006E+02  0.00000000000E+00 0. -1.
         11    1    3    3    0    0 -0.77711207692E+00  0.11671048805E+02 -0.13047018450E+02  0.17522613221E+02  0.51100000000E-03 0. -1.
        -11    1    3    3    0    0 -0.20917015298E+02  0.73760076688E+01 -0.84788328729E+00  0.22195628498E+02  0.51100000000E-03 0.  1.
         12    1    3    3    0    0 -0.10772465094E+02  0.65496280598E+00 -0.62806480043E+00  0.10810617276E+02  0.00000000000E+00 0. -1.
</event>
<event>
 7    1  0.3041451E-011  0.5052885E+02  0.7816164E-02  0.1300439E+00
        -11   -1    0    0    0    0  0.00000000000E+00  0.00000000000E+00  0.45593999997E+02  0.45594000000E+02  0.51100000000E-03 0.  1.
         11   -1    0    0    0    0 -0.00000000000E+00 -0.00000000000E+00 -0.45593999997E+02  0.45594000000E+02  0.51100000000E-03 0. -1.
    9900012    2    1    2    0    0  0.26558826376E+02 -0.89990035605E+01  0.29441689256E+02  0.50528851094E+02  0.29999973385E+02 0.  0.
         12    1    1    2    0    0 -0.26558826376E+02  0.89990035605E+01 -0.29441689256E+02  0.40659148906E+02  0.00000000000E+00 0. -1.
         11    1    3    3    0    0 -0.46575231322E+01  0.16289819421E+01  0.64690805771E+01  0.81360375901E+01  0.51100000000E-03 0. -1.
        -11    1    3    3    0    0  0.26708441417E+02 -0.76444600291E+01  0.12203574940E+02  0.30343135198E+02  0.51100000000E-03 0.  1.
         12    1    3    3    0    0  0.45079080909E+01 -0.29835254736E+01  0.10769033739E+02  0.12049678306E+02  0.00000000000E+00 0. -1.
</event>
<event>
 7    1  0.3041451E-011  0.5052886E+02  0.7816164E-02  0.1300439E+00
        -11   -1    0    0    0    0  0.00000000000E+00  0.00000000000E+00  0.45593999997E+02  0.45594000000E+02  0.51100000000E-03 0.  1.
         11   -1    0    0    0    0 -0.00000000000E+00 -0.00000000000E+00 -0.45593999997E+02  0.45594000000E+02  0.51100000000E-03 0. -1.
    9900012    2    1    2    0    0 -0.32206669507E+02  0.22316490990E+02  0.10856808071E+02  0.50528860654E+02  0.30000002445E+02 0.  0.
         12    1    1    2    0    0  0.32206669507E+02 -0.22316490990E+02 -0.10856808071E+02  0.40659139346E+02  0.00000000000E+00 0. -1.
         11    1    3    3    0    0 -0.11251750506E+02  0.16969024679E+02 -0.51674004024E+01  0.21005992364E+02  0.51100000000E-03 0. -1.
        -11    1    3    3    0    0 -0.17399337965E+02  0.41516556297E+01  0.17919837834E+02  0.25319830061E+02  0.51100000000E-03 0.  1.
        -12    1    3    3    0    0 -0.35555810355E+01  0.11958106818E+01 -0.18956293601E+01  0.42030382294E+01  0.00000000000E+00 0.  1.
</event>
<event>
 7    1  0.3041451E-011  0.5052885E+02  0.7816164E-02  0.1300439E+00
        -11   -1    0    0    0    0  0.00000000000E+00  0.00000000000E+00  0.45593999997E+02  0.45594000000E+02  0.51100000000E-03 0.  1.
         11   -1    0    0    0    0 -0.00000000000E+00 -0.00000000000E+00 -0.45593999997E+02  0.45594000000E+02  0.51100000000E-03 0. -1.
    9900012    2    1    2    0    0 -0.21781117368E+02  0.25365929770E+01  0.34239083764E+02  0.50528853001E+02  0.29999979180E+02 0.  0.
         12    1    1    2    0    0  0.21781117368E+02 -0.25365929770E+01 -0.34239083764E+02  0.40659146999E+02  0.00000000000E+00 0. -1.
         11    1    3    3    0    0  0.51332500080E+00 -0.12247891247E+00 -0.26724030462E+00  0.59154144570E+00  0.51100000000E-03 0. -1.
        -11    1    3    3    0    0  0.23015342006E+01  0.34861111231E+01 -0.29540352099E+01  0.51162832917E+01  0.51100000000E-03 0.  1.
        -12    1    3    3    0    0 -0.24595976569E+02 -0.82703923358E+00  0.37460359278E+02  0.44821028263E+02  0.00000000000E+00 0.  1.
</event>
<event>
 7    1  0.3041451E-011  0.5052886E+02  0.7816164E-02  0.1300439E+00
        -11   -1    0    0    0    0  0.00000000000E+00  0.00000000000E+00  0.45593999997E+02  0.45594000000E+02  0.51100000000E-03 0.  1.
         11   -1    0    0    0    0 -0.00000000000E+00 -0.00000000000E+00 -0.45593999997E+02  0.45594000000E+02  0.51100000000E-03 0. -1.
    9900012    2    1    2    0    0 -0.11087988090E+02 -0.33153862339E+02  0.20761582708E+02  0.50528863457E+02  0.30000010965E+02 0.  0.
         12    1    1    2    0    0  0.11087988090E+02  0.33153862339E+02 -0.20761582708E+02  0.40659136543E+02  0.00000000000E+00 0. -1.
         11    1    3    3    0    0  0.37859423656E+01 -0.20694139419E+02  0.14997238559E+02  0.25835981316E+02  0.51100000000E-03 0. -1.
        -11    1    3    3    0    0 -0.94171623411E+01 -0.15210296029E+02  0.46102393198E+01  0.18474045542E+02  0.51100000000E-03 0.  1.
         12    1    3    3    0    0 -0.54567681147E+01  0.27505731097E+01  0.11541048290E+01  0.62188365991E+01  0.00000000000E+00 0. -1.
</event>
<event>
 7    1  0.3041451E-011  0.5052890E+02  0.7816164E-02  0.1300439E+00
        -11   -1    0    0    0    0  0.00000000000E+00  0.00000000000E+00  0.45593999997E+02  0.45594000000E+02  0.51100000000E-03 0.  1.
         11   -1    0    0    0    0 -0.00000000000E+00 -0.00000000000E+00 -0.45593999997E+02  0.45594000000E+02  0.51100000000E-03 0. -1.
    9900012    2    1    2    0    0 -0.36149755859E+02  0.13259284385E+02  0.13059424104E+02  0.50528904720E+02  0.30000136386E+02 0.  0.
         12    1    1    2    0    0  0.36149755859E+02 -0.13259284385E+02 -0.13059424104E+02  0.40659095280E+02  0.00000000000E+00 0. -1.
         11    1    3    3    0    0 -0.64325446426E+01  0.59399426283E+01  0.25753817668E+01  0.91265075748E+01  0.51100000000E-03 0. -1.
        -11    1    3    3    0    0 -0.57496259153E+01 -0.68010518657E+00 -0.81570633344E+01  0.10002920760E+02  0.51100000000E-03 0.  1.
        -12    1    3    3    0    0 -0.23967585301E+02  0.79994469430E+01  0.18641105672E+02  0.31399476385E+02  0.00000000000E+00 0.  1.
</event>
<event>
 7    1  0.3041451E-011  0.5052886E+02  0.7816164E-02  0.1300439E+00
        -11   -1    0    0    0    0  0.00000000000E+00  0.00000000000E+00  0.45593999997E+02  0.45594000000E+02  0.51100000000E-03 0.  1.
         11   -1    0    0    0    0 -0.00000000000E+00 -0.00000000000E+00 -0.45593999997E+02  0.45594000000E+02  0.51100000000E-03 0. -1.
    9900012    2    1    2    0    0  0.12268512588E+02  0.23827458312E+02  0.30576154174E+02  0.50528863575E+02  0.30000011324E+02 0.  0.
         12    1    1    2    0    0 -0.12268512588E+02 -0.23827458312E+02 -0.30576154174E+02  0.40659136425E+02  0.00000000000E+00 0. -1.
         11    1    3    3    0    0 -0.15652136380E+01  0.97260303818E+01  0.31588944561E-01  0.98512211853E+01  0.51100000000E-03 0. -1.
        -11    1    3    3    0    0  0.69588342734E+01  0.93959158007E+01  0.30149449474E+02  0.32337252697E+02  0.51100000000E-03 0.  1.
        -12    1    3    3    0    0  0.68748919529E+01  0.47055121298E+01  0.39511575543E+00  0.83403896929E+01  0.00000000000E+00 0.  1.
</event>
<event>
 7    1  0.3041451E-011  0.5052886E+02  0.7816164E-02  0.1300439E+00
        -11   -1    0    0    0    0  0.00000000000E+00  0.00000000000E+00  0.45593999997E+02  0.45594000000E+02  0.51100000000E-03 0.  1.
         11   -1    0    0    0    0 -0.00000000000E+00 -0.00000000000E+00 -0.45593999997E+02  0.45594000000E+02  0.51100000000E-03 0. -1.
    9900012    2    1    2    0    0  0.22201005137E+02  0.66609965820E+00  0.34056389730E+02  0.50528855896E+02  0.29999987981E+02 0.  0.
         12    1    1    2    0    0 -0.22201005137E+02 -0.66609965820E+00 -0.34056389730E+02  0.40659144104E+02  0.00000000000E+00 0. -1.
         11    1    3    3    0    0 -0.46017506030E+01  0.22938809590E+01  0.75742748527E+01  0.91546511824E+01  0.51100000000E-03 0. -1.
        -11    1    3    3    0    0  0.18261825354E+02 -0.58623246710E+01  0.25329468342E+02  0.31771734019E+02  0.51100000000E-03 0.  1.
        -12    1    3    3    0    0  0.85409303855E+01  0.42345433702E+01  0.11526465354E+01  0.96024706945E+01  0.00000000000E+00 0.  1.
</event>
<event>
 7    1  0.3041451E-011  0.5052887E+02  0.7816164E-02  0.1300439E+00
        -11   -1    0    0    0    0  0.00000000000E+00  0.00000000000E+00  0.45593999997E+02  0.45594000000E+02  0.51100000000E-03 0.  1.
         11   -1    0    0    0    0 -0.00000000000E+00 -0.00000000000E+00 -0.45593999997E+02  0.45594000000E+02  0.51100000000E-03 0. -1.
    9900012    2    1    2    0    0  0.14086826122E+02 -0.26926793897E+02  0.27012483420E+02  0.50528866213E+02  0.30000019342E+02 0.  0.
         12    1    1    2    0    0 -0.14086826122E+02  0.26926793897E+02 -0.27012483420E+02  0.40659133787E+02  0.00000000000E+00 0. -1.
         11    1    3    3    0    0  0.45829201121E+01  0.14283403400E+01 -0.11491665641E+01  0.49359798353E+01  0.51100000000E-03 0. -1.
        -11    1    3    3    0    0  0.89280986806E+01 -0.26915250452E+02  0.31212441955E+02  0.42170584369E+02  0.51100000000E-03 0.  1.
        -12    1    3    3    0    0  0.57580732917E+00 -0.14398837849E+01 -0.30507919707E+01  0.34223020093E+01  0.00000000000E+00 0.  1.
</event>
<event>
 7    1  0.3041451E-011  0.5052886E+02  0.7816164E-02  0.1300439E+00
        -11   -1    0    0    0    0  0.00000000000E+00  0.00000000000E+00  0.45593999997E+02  0.45594000000E+02  0.51100000000E-03 0. -1.
         11   -1    0    0    0    0 -0.00000000000E+00 -0.00000000000E+00 -0.45593999997E+02  0.45594000000E+02  0.51100000000E-03 0.  1.
    9900012    2    1    2    0    0  0.38632864440E+02  0.95597675660E+01 -0.83233597655E+01  0.50528859718E+02  0.29999999597E+02 0.  0.
         12    1    1    2    0    0 -0.38632864440E+02 -0.95597675660E+01  0.83233597655E+01  0.40659140282E+02  0.00000000000E+00 0. -1.
         11    1    3    3    0    0  0.20835174465E+02  0.20095999399E+02 -0.31295656542E+01  0.29116110116E+02  0.51100000000E-03 0. -1.
        -11    1    3    3    0    0  0.59867649307E+01 -0.35564272084E+01 -0.27010847320E+01  0.74689616290E+01  0.51100000000E-03 0.  1.
         12    1    3    3    0    0  0.11810925044E+02 -0.69798046243E+01 -0.24927093793E+01  0.13943787973E+02  0.00000000000E+00 0. -1.
</event>
<event>
 7    1  0.3041451E-011  0.5052886E+02  0.7816164E-02  0.1300439E+00
        -11   -1    0    0    0    0  0.00000000000E+00  0.00000000000E+00  0.45593999997E+02  0.45594000000E+02  0.51100000000E-03 0.  1.
         11   -1    0    0    0    0 -0.00000000000E+00 -0.00000000000E+00 -0.45593999997E+02  0.45594000000E+02  0.51100000000E-03 0. -1.
    9900012    2    1    2    0    0  0.27875382704E+02  0.27206201744E+02  0.11659811427E+02  0.50528861092E+02  0.30000003776E+02 0.  0.
         12    1    1    2    0    0 -0.27875382704E+02 -0.27206201744E+02 -0.11659811427E+02  0.40659138908E+02  0.00000000000E+00 0. -1.
         11    1    3    3    0    0  0.10256643381E+02 -0.15661435286E+01  0.12204259852E+02  0.16018598497E+02  0.51100000000E-03 0.  1.
        -11    1    3    3    0    0  0.14222929094E+02  0.16576566191E+02 -0.84648723499E-01  0.21842193671E+02  0.51100000000E-03 0. -1.
         12    1    3    3    0    0  0.33958102283E+01  0.12195779081E+02 -0.45979970133E+00  0.12668068924E+02  0.00000000000E+00 0. -1.
</event>
<event>
 7    1  0.3041451E-011  0.5052887E+02  0.7816164E-02  0.1300439E+00
        -11   -1    0    0    0    0  0.00000000000E+00  0.00000000000E+00  0.45593999997E+02  0.45594000000E+02  0.51100000000E-03 0.  1.
         11   -1    0    0    0    0 -0.00000000000E+00 -0.00000000000E+00 -0.45593999997E+02  0.45594000000E+02  0.51100000000E-03 0. -1.
    9900012    2    1    2    0    0  0.39322732373E+02 -0.17453170977E+01  0.10190276021E+02  0.50528866482E+02  0.30000020158E+02 0.  0.
         12    1    1    2    0    0 -0.39322732373E+02  0.17453170977E+01 -0.10190276021E+02  0.40659133518E+02  0.00000000000E+00 0. -1.
         11    1    3    3    0    0  0.13279547480E+02 -0.98703010576E+01 -0.30867437821E+01  0.16831435223E+02  0.51100000000E-03 0. -1.
        -11    1    3    3    0    0  0.16522189217E+02  0.14608402484E+01  0.14474624090E+02  0.22014348356E+02  0.51100000000E-03 0.  1.
         12    1    3    3    0    0  0.95209956767E+01  0.66641437116E+01 -0.11976042861E+01  0.11683082903E+02  0.00000000000E+00 0. -1.
</event>
<event>
 7    1  0.3041451E-011  0.5052886E+02  0.7816164E-02  0.1300439E+00
        -11   -1    0    0    0    0  0.00000000000E+00  0.00000000000E+00  0.45593999997E+02  0.45594000000E+02  0.51100000000E-03 0.  1.
         11   -1    0    0    0    0 -0.00000000000E+00 -0.00000000000E+00 -0.45593999997E+02  0.45594000000E+02  0.51100000000E-03 0. -1.
    9900012    2    1    2    0    0 -0.74274514781E+01 -0.68318108253E+01  0.39386861846E+02  0.50528861290E+02  0.30000004377E+02 0.  0.
         12    1    1    2    0    0  0.74274514781E+01  0.68318108253E+01 -0.39386861846E+02  0.40659138710E+02  0.00000000000E+00 0. -1.
         11    1    3    3    0    0  0.26347680583E+01 -0.14174722349E+02  0.17908474990E+02  0.22990829326E+02  0.51100000000E-03 0. -1.
        -11    1    3    3    0    0 -0.94157002817E+01  0.60115499646E+01  0.74401607747E+01  0.13422001989E+02  0.51100000000E-03 0.  1.
        -12    1    3    3    0    0 -0.64651925468E+00  0.13313615588E+01  0.14038226081E+02  0.14116029975E+02  0.00000000000E+00 0.  1.
</event>
<event>
 7    1  0.3041451E-011  0.5052889E+02  0.7816164E-02  0.1300439E+00
        -11   -1    0    0    0    0  0.00000000000E+00  0.00000000000E+00  0.45593999997E+02  0.45594000000E+02  0.51100000000E-03 0. -1.
         11   -1    0    0    0    0 -0.00000000000E+00 -0.00000000000E+00 -0.45593999997E+02  0.45594000000E+02  0.51100000000E-03 0.  1.
    9900012    2    1    2    0    0  0.19198898463E+02 -0.45922477537E+01 -0.35545422965E+02  0.50528886195E+02  0.30000080079E+02 0.  0.
         12    1    1    2    0    0 -0.19198898463E+02  0.45922477537E+01  0.35545422965E+02  0.40659113805E+02  0.00000000000E+00 0. -1.
         11    1    3    3    0    0  0.96451519124E+01  0.11622411932E+02 -0.10728733859E+02  0.18526066636E+02  0.51100000000E-03 0. -1.
        -11    1    3    3    0    0  0.30368878494E+01 -0.10685743569E+02 -0.17622251943E+02  0.20831504200E+02  0.51100000000E-03 0.  1.
         12    1    3    3    0    0  0.65168587012E+01 -0.55289161166E+01 -0.71944371625E+01  0.11171315359E+02  0.00000000000E+00 0. -1.
</event>
<event>
 7    1  0.3041451E-011  0.5052886E+02  0.7816164E-02  0.1300439E+00
        -11   -1    0    0    0    0  0.00000000000E+00  0.00000000000E+00  0.45593999997E+02  0.45594000000E+02  0.51100000000E-03 0. -1.
         11   -1    0    0    0    0 -0.00000000000E+00 -0.00000000000E+00 -0.45593999997E+02  0.45594000000E+02  0.51100000000E-03 0.  1.
    9900012    2    1    2    0    0 -0.37784993809E+02  0.76777262578E+01 -0.12903967591E+02  0.50528860594E+02  0.30000002261E+02 0.  0.
         12    1    1    2    0    0  0.37784993809E+02 -0.76777262578E+01  0.12903967591E+02  0.40659139406E+02  0.00000000000E+00 0. -1.
         11    1    3    3    0    0 -0.40081836626E+02  0.99400221938E+01 -0.45500709209E+01  0.41545888054E+02  0.51100000000E-03 0. -1.
        -11    1    3    3    0    0  0.13785254575E+01 -0.16815835433E+01 -0.62059720002E+01  0.65758759400E+01  0.51100000000E-03 0.  1.
         12    1    3    3    0    0  0.91831735931E+00 -0.58071239270E+00 -0.21479246697E+01  0.24070966001E+01  0.00000000000E+00 0. -1.
</event>
<event>
 7    1  0.3041451E-011  0.5052887E+02  0.7816164E-02  0.1300439E+00
        -11   -1    0    0    0    0  0.00000000000E+00  0.00000000000E+00  0.45593999997E+02  0.45594000000E+02  0.51100000000E-03 0.  1.
         11   -1    0    0    0    0 -0.00000000000E+00 -0.00000000000E+00 -0.45593999997E+02  0.45594000000E+02  0.51100000000E-03 0. -1.
    9900012    2    1    2    0    0 -0.31389783425E+02  0.18874511614E+02  0.17652181575E+02  0.50528865645E+02  0.30000017614E+02 0.  0.
         12    1    1    2    0    0  0.31389783425E+02 -0.18874511614E+02 -0.17652181575E+02  0.40659134355E+02  0.00000000000E+00 0. -1.
         11    1    3    3    0    0  0.54365536695E+01  0.43947146902E+01  0.49329906981E+01  0.85559353959E+01  0.51100000000E-03 0. -1.
        -11    1    3    3    0    0 -0.15639861215E+02  0.37681902896E+01  0.32421185237E+01  0.16410845489E+02  0.51100000000E-03 0.  1.
         12    1    3    3    0    0 -0.21186475880E+02  0.10711606634E+02  0.94770723529E+01  0.25562084760E+02  0.00000000000E+00 0. -1.
</event>
<event>
 7    1  0.3041451E-011  0.5052885E+02  0.7816164E-02  0.1300439E+00
        -11   -1    0    0    0    0  0.00000000000E+00  0.00000000000E+00  0.45593999997E+02  0.45594000000E+02  0.51100000000E-03 0.  1.
         11   -1    0    0    0    0 -0.00000000000E+00 -0.00000000000E+00 -0.45593999997E+02  0.45594000000E+02  0.51100000000E-03 0. -1.
    9900012    2    1    2    0    0  0.77813859447E+01 -0.52545024768E-01  0.39907560996E+02  0.50528854007E+02  0.29999982241E+02 0.  0.
         12    1    1    2    0    0 -0.77813859447E+01  0.52545024768E-01 -0.39907560996E+02  0.40659145993E+02  0.00000000000E+00 0. -1.
         11    1    3    3    0    0  0.65213608497E+01 -0.55895928801E+01  0.12545462790E+02  0.15203957800E+02  0.51100000000E-03 0. -1.
        -11    1    3    3    0    0  0.25631003510E+01  0.12976975446E+02  0.10639350066E+02  0.16975486598E+02  0.51100000000E-03 0.  1.
        -12    1    3    3    0    0 -0.13030752560E+01 -0.74399275910E+01  0.16722748140E+02  0.18349409610E+02  0.00000000000E+00 0.  1.
</event>
<event>
 7    1  0.3041451E-011  0.5052886E+02  0.7816164E-02  0.1300439E+00
        -11   -1    0    0    0    0  0.00000000000E+00  0.00000000000E+00  0.45593999997E+02  0.45594000000E+02  0.51100000000E-03 0.  1.
         11   -1    0    0    0    0 -0.00000000000E+00 -0.00000000000E+00 -0.45593999997E+02  0.45594000000E+02  0.51100000000E-03 0. -1.
    9900012    2    1    2    0    0  0.33616719858E+02 -0.22610570314E+02 -0.34415491369E+01  0.50528855833E+02  0.29999987790E+02 0.  0.
         12    1    1    2    0    0 -0.33616719858E+02  0.22610570314E+02  0.34415491369E+01  0.40659144167E+02  0.00000000000E+00 0. -1.
         11    1    3    3    0    0  0.15907709416E+02 -0.10244804780E+01  0.46136469318E+01  0.16594894317E+02  0.51100000000E-03 0.  1.
        -11    1    3    3    0    0  0.48443487516E+01 -0.14261336473E+02 -0.11237662343E+02  0.18791979353E+02  0.51100000000E-03 0. -1.
         12    1    3    3    0    0  0.12864661690E+02 -0.73247533631E+01  0.31824662739E+01  0.15141982163E+02  0.00000000000E+00 0. -1.
</event>
<event>
 7    1  0.3041451E-011  0.5052887E+02  0.7816164E-02  0.1300439E+00
        -11   -1    0    0    0    0  0.00000000000E+00  0.00000000000E+00  0.45593999997E+02  0.45594000000E+02  0.51100000000E-03 0.  1.
         11   -1    0    0    0    0 -0.00000000000E+00 -0.00000000000E+00 -0.45593999997E+02  0.45594000000E+02  0.51100000000E-03 0. -1.
    9900012    2    1    2    0    0  0.31939119568E+02  0.20258474484E+02 -0.14921524063E+02  0.50528867845E+02  0.30000024303E+02 0.  0.
         12    1    1    2    0    0 -0.31939119568E+02 -0.20258474484E+02  0.14921524063E+02  0.40659132155E+02  0.00000000000E+00 0. -1.
         11    1    3    3    0    0  0.98607672244E+01 -0.62760674917E+01 -0.80977505285E+01  0.14219610308E+02  0.51100000000E-03 0. -1.
        -11    1    3    3    0    0  0.79842668247E+01  0.13493142615E+02  0.67969048032E+00  0.15693163919E+02  0.51100000000E-03 0.  1.
        -12    1    3    3    0    0  0.14094085519E+02  0.13041399361E+02 -0.75034640147E+01  0.20616093619E+02  0.00000000000E+00 0.  1.
</event>
<event>
 7    1  0.3041451E-011  0.5052887E+02  0.7816164E-02  0.1300439E+00
        -11   -1    0    0    0    0  0.00000000000E+00  0.00000000000E+00  0.45593999997E+02  0.45594000000E+02  0.51100000000E-03 0.  1.
         11   -1    0    0    0    0 -0.00000000000E+00 -0.00000000000E+00 -0.45593999997E+02  0.45594000000E+02  0.51100000000E-03 0. -1.
    9900012    2    1    2    0    0 -0.28856415151E+02  0.21983245724E+02  0.18363257056E+02  0.50528868213E+02  0.30000025421E+02 0.  0.
         12    1    1    2    0    0  0.28856415151E+02 -0.21983245724E+02 -0.18363257056E+02  0.40659131787E+02  0.00000000000E+00 0. -1.
         11    1    3    3    0    0 -0.35326058858E+00 -0.73063981985E+00  0.89569415928E+01  0.89936327781E+01  0.51100000000E-03 0. -1.
        -11    1    3    3    0    0 -0.19679747293E+02  0.92285335284E+01 -0.19455512406E+01  0.21823002875E+02  0.51100000000E-03 0.  1.
        -12    1    3    3    0    0 -0.88234072697E+01  0.13485352016E+02  0.11351866704E+02  0.19712232560E+02  0.00000000000E+00 0.  1.
</event>
<event>
 7    1  0.3041451E-011  0.5052886E+02  0.7816164E-02  0.1300439E+00
        -11   -1    0    0    0    0  0.00000000000E+00  0.00000000000E+00  0.45593999997E+02  0.45594000000E+02  0.51100000000E-03 0.  1.
         11   -1    0    0    0    0 -0.00000000000E+00 -0.00000000000E+00 -0.45593999997E+02  0.45594000000E+02  0.51100000000E-03 0. -1.
    9900012    2    1    2    0    0  0.16161909594E+02 -0.24971044199E+02  0.27720117700E+02  0.50528864551E+02  0.30000014290E+02 0.  0.
         12    1    1    2    0    0 -0.16161909594E+02  0.24971044199E+02 -0.27720117700E+02  0.40659135449E+02  0.00000000000E+00 0. -1.
         11    1    3    3    0    0  0.15162466639E+02 -0.73940421190E+01  0.16174223525E+02  0.23370446301E+02  0.51100000000E-03 0. -1.
        -11    1    3    3    0    0 -0.80274343691E+01 -0.72756198792E+01  0.59718250336E+01  0.12370814107E+02  0.51100000000E-03 0.  1.
        -12    1    3    3    0    0  0.90268773245E+01 -0.10301382201E+02  0.55740691416E+01  0.14787604143E+02  0.00000000000E+00 0.  1.
</event>
<event>
 7    1  0.3041451E-011  0.5052885E+02  0.7816164E-02  0.1300439E+00
        -11   -1    0    0    0    0  0.00000000000E+00  0.00000000000E+00  0.45593999997E+02  0.45594000000E+02  0.51100000000E-03 0.  1.
         11   -1    0    0    0    0 -0.00000000000E+00 -0.00000000000E+00 -0.45593999997E+02  0.45594000000E+02  0.51100000000E-03 0. -1.
    9900012    2    1    2    0    0 -0.25104225135E+02 -0.15928245415E+02  0.27735092825E+02  0.50528849792E+02  0.29999969427E+02 0.  0.
         12    1    1    2    0    0  0.25104225135E+02  0.15928245415E+02 -0.27735092825E+02  0.40659150208E+02  0.00000000000E+00 0. -1.
         11    1    3    3    0    0 -0.17501863514E+02 -0.16531270144E+02  0.15639977943E+02  0.28709006068E+02  0.51100000000E-03 0. -1.
        -11    1    3    3    0    0 -0.97605434385E+01  0.50106347541E+01  0.28227754814E+01  0.11328845066E+02  0.51100000000E-03 0.  1.
        -12    1    3    3    0    0  0.21581818173E+01 -0.44076100249E+01  0.92723394001E+01  0.10490998658E+02  0.00000000000E+00 0.  1.
</event>
<event>
 7    1  0.3041451E-011  0.5052885E+02  0.7816164E-02  0.1300439E+00
        -11   -1    0    0    0    0  0.00000000000E+00  0.00000000000E+00  0.45593999997E+02  0.45594000000E+02  0.51100000000E-03 0.  1.
         11   -1    0    0    0    0 -0.00000000000E+00 -0.00000000000E+00 -0.45593999997E+02  0.45594000000E+02  0.51100000000E-03 0. -1.
    9900012    2    1    2    0    0 -0.23107421688E+02 -0.30276657805E+02  0.14231562822E+02  0.50528851887E+02  0.29999975795E+02 0.  0.
         12    1    1    2    0    0  0.23107421688E+02  0.30276657805E+02 -0.14231562822E+02  0.40659148113E+02  0.00000000000E+00 0. -1.
         11    1    3    3    0    0  0.60314959349E+01 -0.10969263469E+02  0.17651471192E+01  0.12641970925E+02  0.51100000000E-03 0. -1.
        -11    1    3    3    0    0 -0.25847379031E+01 -0.20828761625E+00  0.27162111901E+01  0.37552705960E+01  0.51100000000E-03 0.  1.
         12    1    3    3    0    0 -0.26554179720E+02 -0.19099106720E+02  0.97502045126E+01  0.34131610366E+02  0.00000000000E+00 0. -1.
</event>
<event>
 7    1  0.3041451E-011  0.5052887E+02  0.7816164E-02  0.1300439E+00
        -11   -1    0    0    0    0  0.00000000000E+00  0.00000000000E+00  0.45593999997E+02  0.45594000000E+02  0.51100000000E-03 0. -1.
         11   -1    0    0    0    0 -0.00000000000E+00 -0.00000000000E+00 -0.45593999997E+02  0.45594000000E+02  0.51100000000E-03 0.  1.
    9900012    2    1    2    0    0 -0.35649252367E+02 -0.19090727585E+02 -0.42236838610E+01  0.50528873356E+02  0.30000041054E+02 0.  0.
         12    1    1    2    0    0  0.35649252367E+02  0.19090727585E+02  0.42236838610E+01  0.40659126644E+02  0.00000000000E+00 0. -1.
         11    1    3    3    0    0 -0.23263832537E+01  0.51804313525E+01 -0.39309648006E+01  0.69066209224E+01  0.51100000000E-03 0. -1.
        -11    1    3    3    0    0 -0.34184838871E+02 -0.24135220050E+02 -0.17951651572E+01  0.41884778544E+02  0.51100000000E-03 0.  1.
        -12    1    3    3    0    0  0.86196975774E+00 -0.13593888798E+00  0.15024460968E+01  0.17374738900E+01  0.00000000000E+00 0.  1.
</event>
<event>
 7    1  0.3488222E-011  0.5052886E+02  0.7816164E-02  0.1300439E+00
        -11   -1    0    0    0    0  0.00000000000E+00  0.00000000000E+00  0.45593999997E+02  0.45594000000E+02  0.51100000000E-03 0. -1.
         11   -1    0    0    0    0 -0.00000000000E+00 -0.00000000000E+00 -0.45593999997E+02  0.45594000000E+02  0.51100000000E-03 0.  1.
    9900012    2    1    2    0    0 -0.24428111883E+02  0.45339703413E+01 -0.32185029535E+02  0.50528860027E+02  0.30000000537E+02 0.  0.
         12    1    1    2    0    0  0.24428111883E+02 -0.45339703413E+01  0.32185029535E+02  0.40659139973E+02  0.00000000000E+00 0. -1.
         11    1    3    3    0    0 -0.64553384609E+01 -0.11248387615E+02 -0.13214822155E+02  0.18515645909E+02  0.51100000000E-03 0. -1.
        -11    1    3    3    0    0 -0.12222740384E+02  0.79624064239E+01 -0.16447274841E+02  0.21984270480E+02  0.51100000000E-03 0.  1.
         12    1    3    3    0    0 -0.57500330380E+01  0.78199515321E+01 -0.25229325382E+01  0.10028943638E+02  0.00000000000E+00 0. -1.
</event>
<event>
 7    1  0.3041451E-011  0.5052887E+02  0.7816164E-02  0.1300439E+00
        -11   -1    0    0    0    0  0.00000000000E+00  0.00000000000E+00  0.45593999997E+02  0.45594000000E+02  0.51100000000E-03 0.  1.
         11   -1    0    0    0    0 -0.00000000000E+00 -0.00000000000E+00 -0.45593999997E+02  0.45594000000E+02  0.51100000000E-03 0. -1.
    9900012    2    1    2    0    0  0.27539229519E+02 -0.28860085213E+02  0.78645756492E+01  0.50528865342E+02  0.30000016692E+02 0.  0.
         12    1    1    2    0    0 -0.27539229519E+02  0.28860085213E+02 -0.78645756492E+01  0.40659134658E+02  0.00000000000E+00 0. -1.
         11    1    3    3    0    0  0.15594752964E+02 -0.48268323737E+01 -0.19857583904E+01  0.16444995209E+02  0.51100000000E-03 0. -1.
        -11    1    3    3    0    0 -0.15507305072E+01 -0.17266019902E+02  0.33953830436E+01  0.17664904037E+02  0.51100000000E-03 0.  1.
         12    1    3    3    0    0  0.13495207062E+02 -0.67672329374E+01  0.64549509961E+01  0.16418966096E+02  0.00000000000E+00 0. -1.
</event>
<event>
 7    1  0.3041451E-011  0.5052886E+02  0.7816164E-02  0.1300439E+00
        -11   -1    0    0    0    0  0.00000000000E+00  0.00000000000E+00  0.45593999997E+02  0.45594000000E+02  0.51100000000E-03 0. -1.
         11   -1    0    0    0    0 -0.00000000000E+00 -0.00000000000E+00 -0.45593999997E+02  0.45594000000E+02  0.51100000000E-03 0.  1.
    9900012    2    1    2    0    0 -0.19018182362E+01 -0.29285697640E+02 -0.28140661567E+02  0.50528857949E+02  0.29999994222E+02 0.  0.
         12    1    1    2    0    0  0.19018182362E+01  0.29285697640E+02  0.28140661567E+02  0.40659142051E+02  0.00000000000E+00 0. -1.
         11    1    3    3    0    0  0.21136420541E+01 -0.10697375160E+02 -0.20192329950E+02  0.22948453261E+02  0.51100000000E-03 0.  1.
        -11    1    3    3    0    0 -0.31024155495E+01  0.15739624443E+01  0.30224999348E+01  0.46084537683E+01  0.51100000000E-03 0. -1.
         12    1    3    3    0    0 -0.91304474083E+00 -0.20162284925E+02 -0.10970831552E+02  0.22971950919E+02  0.00000000000E+00 0. -1.
</event>
<event>
 7    1  0.3041451E-011  0.5052894E+02  0.7816164E-02  0.1300439E+00
        -11   -1    0    0    0    0  0.00000000000E+00  0.00000000000E+00  0.45593999997E+02  0.45594000000E+02  0.51100000000E-03 0.  1.
         11   -1    0    0    0    0 -0.00000000000E+00 -0.00000000000E+00 -0.45593999997E+02  0.45594000000E+02  0.51100000000E-03 0. -1.
    9900012    2    1    2    0    0  0.11887404760E+02  0.28440454712E+02  0.26513948662E+02  0.50528937913E+02  0.30000237279E+02 0.  0.
         12    1    1    2    0    0 -0.11887404760E+02 -0.28440454712E+02 -0.26513948662E+02  0.40659062087E+02  0.00000000000E+00 0. -1.
         11    1    3    3    0    0  0.11816560886E+02  0.22052400553E+02  0.24176358467E+02  0.34791317743E+02  0.51100000000E-03 0.  1.
        -11    1    3    3    0    0 -0.34826688660E+01 -0.25597881360E+01  0.40913890402E+01  0.59515512491E+01  0.51100000000E-03 0. -1.
         12    1    3    3    0    0  0.35535127404E+01  0.89478422950E+01 -0.17537988447E+01  0.97860689207E+01  0.00000000000E+00 0. -1.
</event>
<event>
 7    1  0.3041451E-011  0.5052885E+02  0.7816164E-02  0.1300439E+00
        -11   -1    0    0    0    0  0.00000000000E+00  0.00000000000E+00  0.45593999997E+02  0.45594000000E+02  0.51100000000E-03 0.  1.
         11   -1    0    0    0    0 -0.00000000000E+00 -0.00000000000E+00 -0.45593999997E+02  0.45594000000E+02  0.51100000000E-03 0. -1.
    9900012    2    1    2    0    0 -0.24039730153E+02  0.88347105039E+01  0.31578567101E+02  0.50528848070E+02  0.29999964193E+02 0.  0.
         12    1    1    2    0    0  0.24039730153E+02 -0.88347105039E+01 -0.31578567101E+02  0.40659151930E+02  0.00000000000E+00 0. -1.
         11    1    3    3    0    0 -0.47921151227E+00 -0.36855391375E+01  0.77435776418E+00  0.37963762479E+01  0.51100000000E-03 0. -1.
        -11    1    3    3    0    0 -0.21891590835E+02  0.18230083797E+02  0.21506720926E+02  0.35694772023E+02  0.51100000000E-03 0.  1.
        -12    1    3    3    0    0 -0.16689278063E+01 -0.57098341557E+01  0.92974884110E+01  0.11037699799E+02  0.00000000000E+00 0.  1.
</event>
<event>
 7    1  0.3041451E-011  0.5052889E+02  0.7816164E-02  0.1300439E+00
        -11   -1    0    0    0    0  0.00000000000E+00  0.00000000000E+00  0.45593999997E+02  0.45594000000E+02  0.51100000000E-03 0.  1.
         11   -1    0    0    0    0 -0.00000000000E+00 -0.00000000000E+00 -0.45593999997E+02  0.45594000000E+02  0.51100000000E-03 0. -1.
    9900012    2    1    2    0    0  0.31320420002E+02  0.46485080446E+01  0.25506579561E+02  0.50528893553E+02  0.30000102444E+02 0.  0.
         12    1    1    2    0    0 -0.31320420002E+02 -0.46485080446E+01 -0.25506579561E+02  0.40659106447E+02  0.00000000000E+00 0. -1.
         11    1    3    3    0    0  0.17535717939E+02  0.72783698077E+01  0.67399679375E+01  0.20147040446E+02  0.51100000000E-03 0. -1.
        -11    1    3    3    0    0  0.50404168578E+00 -0.67848173910E+01  0.14183936802E+02  0.15731238619E+02  0.51100000000E-03 0.  1.
        -12    1    3    3    0    0  0.13280660378E+02  0.41549556279E+01  0.45826748221E+01  0.14650614488E+02  0.00000000000E+00 0.  1.
</event>
<event>
 7    1  0.3041451E-011  0.5052887E+02  0.7816164E-02  0.1300439E+00
        -11   -1    0    0    0    0  0.00000000000E+00  0.00000000000E+00  0.45593999997E+02  0.45594000000E+02  0.51100000000E-03 0. -1.
         11   -1    0    0    0    0 -0.00000000000E+00 -0.00000000000E+00 -0.45593999997E+02  0.45594000000E+02  0.51100000000E-03 0.  1.
    9900012    2    1    2    0    0 -0.18752887078E+02 -0.34401851271E+02  0.10863107606E+02  0.50528865092E+02  0.30000015933E+02 0.  0.
         12    1    1    2    0    0  0.18752887078E+02  0.34401851271E+02 -0.10863107606E+02  0.40659134908E+02  0.00000000000E+00 0. -1.
         11    1    3    3    0    0 -0.17122238532E+01 -0.27940384535E+02  0.50863581447E+01  0.28451148271E+02  0.51100000000E-03 0.  1.
        -11    1    3    3    0    0 -0.18337449067E+02 -0.65385436102E+01  0.39971373675E+01  0.19874398059E+02  0.51100000000E-03 0. -1.
         12    1    3    3    0    0  0.12967858419E+01  0.77076874068E-01  0.17796120937E+01  0.22033187623E+01  0.00000000000E+00 0. -1.
</event>
<event>
 7    1  0.3041451E-011  0.5052886E+02  0.7816164E-02  0.1300439E+00
        -11   -1    0    0    0    0  0.00000000000E+00  0.00000000000E+00  0.45593999997E+02  0.45594000000E+02  0.51100000000E-03 0. -1.
         11   -1    0    0    0    0 -0.00000000000E+00 -0.00000000000E+00 -0.45593999997E+02  0.45594000000E+02  0.51100000000E-03 0.  1.
    9900012    2    1    2    0    0  0.37147598159E+02  0.13628412821E+02 -0.93535090155E+01  0.50528858151E+02  0.29999994836E+02 0.  0.
         12    1    1    2    0    0 -0.37147598159E+02 -0.13628412821E+02  0.93535090155E+01  0.40659141849E+02  0.00000000000E+00 0. -1.
         11    1    3    3    0    0  0.16038960403E+02 -0.25758859446E+01  0.22004259123E+01  0.16392843368E+02  0.51100000000E-03 0. -1.
        -11    1    3    3    0    0  0.14715671311E+01  0.11928109374E+02 -0.46279584019E+01  0.12878792734E+02  0.51100000000E-03 0.  1.
        -12    1    3    3    0    0  0.19637070624E+02  0.42761893922E+01 -0.69259765260E+01  0.21257222049E+02  0.00000000000E+00 0.  1.
</event>
<event>
 7    1  0.3041451E-011  0.5052880E+02  0.7816164E-02  0.1300439E+00
        -11   -1    0    0    0    0  0.00000000000E+00  0.00000000000E+00  0.45593999997E+02  0.45594000000E+02  0.51100000000E-03 0.  1.
         11   -1    0    0    0    0 -0.00000000000E+00 -0.00000000000E+00 -0.45593999997E+02  0.45594000000E+02  0.51100000000E-03 0. -1.
    9900012    2    1    2    0    0 -0.17011869963E+02  0.31216176036E+02  0.19731121615E+02  0.50528800227E+02  0.29999818770E+02 0.  0.
         12    1    1    2    0    0  0.17011869963E+02 -0.31216176036E+02 -0.19731121615E+02  0.40659199773E+02  0.00000000000E+00 0. -1.
         11    1    3    3    0    0 -0.41735456234E+01  0.13394486516E+02 -0.32835552623E+01  0.14408764260E+02  0.51100000000E-03 0. -1.
        -11    1    3    3    0    0 -0.14080535760E+02  0.10144719889E+02  0.22375803951E+02  0.28317016644E+02  0.51100000000E-03 0.  1.
         12    1    3    3    0    0  0.12422114200E+01  0.76769696316E+01  0.63887292652E+00  0.78030193228E+01  0.00000000000E+00 0. -1.
</event>
<event>
 7    1  0.3041451E-011  0.5052886E+02  0.7816164E-02  0.1300439E+00
        -11   -1    0    0    0    0  0.00000000000E+00  0.00000000000E+00  0.45593999997E+02  0.45594000000E+02  0.51100000000E-03 0.  1.
         11   -1    0    0    0    0 -0.00000000000E+00 -0.00000000000E+00 -0.45593999997E+02  0.45594000000E+02  0.51100000000E-03 0. -1.
    9900012    2    1    2    0    0  0.13265857435E+02 -0.17616433447E+02  0.34159101960E+02  0.50528856531E+02  0.29999989912E+02 0.  0.
         12    1    1    2    0    0 -0.13265857435E+02  0.17616433447E+02 -0.34159101960E+02  0.40659143469E+02  0.00000000000E+00 0. -1.
         11    1    3    3    0    0  0.61620433346E+00 -0.36554357044E+01  0.12550160502E+01  0.39136918015E+01  0.51100000000E-03 0.  1.
        -11    1    3    3    0    0  0.64408192903E+00 -0.19556413245E+01 -0.48227936355E+01  0.52439215510E+01  0.51100000000E-03 0. -1.
        -12    1    3    3    0    0  0.12005571173E+02 -0.12005356418E+02  0.37726879546E+02  0.41371243179E+02  0.00000000000E+00 0.  1.
</event>
<event>
 7    1  0.3041451E-011  0.5052892E+02  0.7816164E-02  0.1300439E+00
        -11   -1    0    0    0    0  0.00000000000E+00  0.00000000000E+00  0.45593999997E+02  0.45594000000E+02  0.51100000000E-03 0.  1.
         11   -1    0    0    0    0 -0.00000000000E+00 -0.00000000000E+00 -0.45593999997E+02  0.45594000000E+02  0.51100000000E-03 0. -1.
    9900012    2    1    2    0    0 -0.17981690612E+02 -0.29801043395E+02  0.21017071291E+02  0.50528921428E+02  0.30000187172E+02 0.  0.
         12    1    1    2    0    0  0.17981690612E+02  0.29801043395E+02 -0.21017071291E+02  0.40659078572E+02  0.00000000000E+00 0. -1.
         11    1    3    3    0    0 -0.60857315661E+01 -0.22015985833E+01 -0.62919828567E+01  0.90261959622E+01  0.51100000000E-03 0. -1.
        -11    1    3    3    0    0 -0.94511977845E+01 -0.22045974187E+02  0.16521502957E+02  0.29125764842E+02  0.51100000000E-03 0.  1.
         12    1    3    3    0    0 -0.24447612609E+01 -0.55534706246E+01  0.10787551191E+02  0.12376960624E+02  0.00000000000E+00 0. -1.
</event>
<event>
 7    1  0.3041451E-011  0.5052888E+02  0.7816164E-02  0.1300439E+00
        -11   -1    0    0    0    0  0.00000000000E+00  0.00000000000E+00  0.45593999997E+02  0.45594000000E+02  0.51100000000E-03 0. -1.
         11   -1    0    0    0    0 -0.00000000000E+00 -0.00000000000E+00 -0.45593999997E+02  0.45594000000E+02  0.51100000000E-03 0.  1.
    9900012    2    1    2    0    0 -0.14694186807E+01  0.39910650292E+02  0.76252889254E+01  0.50528877664E+02  0.30000054146E+02 0.  0.
         12    1    1    2    0    0  0.14694186807E+01 -0.39910650292E+02 -0.76252889254E+01  0.40659122336E+02  0.00000000000E+00 0. -1.
         11    1    3    3    0    0 -0.41711790676E+01  0.14176830413E+02  0.12450888605E+02  0.19323712963E+02  0.51100000000E-03 0. -1.
        -11    1    3    3    0    0  0.32291722565E+01  0.13021603183E+02 -0.10729625347E+02  0.17178898780E+02  0.51100000000E-03 0.  1.
        -12    1    3    3    0    0 -0.52741186964E+00  0.12712216695E+02  0.59040256681E+01  0.14026265921E+02  0.00000000000E+00 0.  1.
</event>
<event>
 7    1  0.3041451E-011  0.5052887E+02  0.7816164E-02  0.1300439E+00
        -11   -1    0    0    0    0  0.00000000000E+00  0.00000000000E+00  0.45593999997E+02  0.45594000000E+02  0.51100000000E-03 0.  1.
         11   -1    0    0    0    0 -0.00000000000E+00 -0.00000000000E+00 -0.45593999997E+02  0.45594000000E+02  0.51100000000E-03 0. -1.
    9900012    2    1    2    0    0  0.28667725081E+02  0.28159327346E+02 -0.61950666553E+01  0.50528867830E+02  0.30000024258E+02 0.  0.
         12    1    1    2    0    0 -0.28667725081E+02 -0.28159327346E+02  0.61950666553E+01  0.40659132170E+02  0.00000000000E+00 0. -1.
         11    1    3    3    0    0 -0.25311679708E+01  0.15126030905E+02 -0.64469432376E+01  0.16636306669E+02  0.51100000000E-03 0. -1.
        -11    1    3    3    0    0  0.79465372025E+01  0.38612010101E+01  0.95700797043E+00  0.88866299162E+01  0.51100000000E-03 0.  1.
         12    1    3    3    0    0  0.23252355849E+02  0.91720954312E+01 -0.70513138814E+00  0.25005931245E+02  0.00000000000E+00 0. -1.
</event>
<event>
 7    1  0.3041451E-011  0.5052888E+02  0.7816164E-02  0.1300439E+00
        -11   -1    0    0    0    0  0.00000000000E+00  0.00000000000E+00  0.45593999997E+02  0.45594000000E+02  0.51100000000E-03 0.  1.
         11   -1    0    0    0    0 -0.00000000000E+00 -0.00000000000E+00 -0.45593999997E+02  0.45594000000E+02  0.51100000000E-03 0. -1.
    9900012    2    1    2    0    0  0.21313472729E+02 -0.29429500160E+02  0.18242931501E+02  0.50528878648E+02  0.30000057137E+02 0.  0.
         12    1    1    2    0    0 -0.21313472729E+02  0.29429500160E+02 -0.18242931501E+02  0.40659121352E+02  0.00000000000E+00 0. -1.
         11    1    3    3    0    0  0.10949097879E+02 -0.20757155688E+02  0.72193416991E+00  0.23479000102E+02  0.51100000000E-03 0. -1.
        -11    1    3    3    0    0 -0.26289977409E+01 -0.70267335934E+01  0.67657863511E+01  0.10102597652E+02  0.51100000000E-03 0.  1.
         12    1    3    3    0    0  0.12993372591E+02 -0.16456108788E+01  0.10755210980E+02  0.16947280893E+02  0.00000000000E+00 0. -1.
</event>
<event>
 7    1  0.3041451E-011  0.5052886E+02  0.7816164E-02  0.1300439E+00
        -11   -1    0    0    0    0  0.00000000000E+00  0.00000000000E+00  0.45593999997E+02  0.45594000000E+02  0.51100000000E-03 0.  1.
         11   -1    0    0    0    0 -0.00000000000E+00 -0.00000000000E+00 -0.45593999997E+02  0.45594000000E+02  0.51100000000E-03 0. -1.
    9900012    2    1    2    0    0  0.23983009263E+02  0.32822746092E+02  0.80501051598E+00  0.50528862820E+02  0.30000009026E+02 0.  0.
         12    1    1    2    0    0 -0.23983009263E+02 -0.32822746092E+02 -0.80501051598E+00  0.40659137180E+02  0.00000000000E+00 0. -1.
         11    1    3    3    0    0  0.63899649532E+01  0.34923805359E+01 -0.11458140161E+01  0.73716527273E+01  0.51100000000E-03 0. -1.
        -11    1    3    3    0    0 -0.36043035547E+01  0.19206839254E+02 -0.42453433583E+00  0.19546710923E+02  0.51100000000E-03 0.  1.
        -12    1    3    3    0    0  0.21197347864E+02  0.10123526302E+02  0.23753588679E+01  0.23610499170E+02  0.00000000000E+00 0.  1.
</event>
<event>
 7    1  0.3041451E-011  0.5052886E+02  0.7816164E-02  0.1300439E+00
        -11   -1    0    0    0    0  0.00000000000E+00  0.00000000000E+00  0.45593999997E+02  0.45594000000E+02  0.51100000000E-03 0.  1.
         11   -1    0    0    0    0 -0.00000000000E+00 -0.00000000000E+00 -0.45593999997E+02  0.45594000000E+02  0.51100000000E-03 0. -1.
    9900012    2    1    2    0    0  0.40631721123E+02 -0.12155475688E+01 -0.86693002198E+00  0.50528857302E+02  0.29999992255E+02 0.  0.
         12    1    1    2    0    0 -0.40631721123E+02  0.12155475688E+01  0.86693002198E+00  0.40659142698E+02  0.00000000000E+00 0. -1.
         11    1    3    3    0    0  0.71226004835E+01 -0.10653659009E+02 -0.37584506534E+01  0.13355067933E+02  0.51100000000E-03 0. -1.
        -11    1    3    3    0    0  0.31031448454E+02  0.62914042810E+01  0.58446205329E+01  0.32197704118E+02  0.51100000000E-03 0.  1.
        -12    1    3    3    0    0  0.24776721847E+01  0.31467071590E+01 -0.29530999015E+01  0.49760852512E+01  0.00000000000E+00 0.  1.
</event>
<event>
 7    1  0.3041451E-011  0.5052887E+02  0.7816164E-02  0.1300439E+00
        -11   -1    0    0    0    0  0.00000000000E+00  0.00000000000E+00  0.45593999997E+02  0.45594000000E+02  0.51100000000E-03 0.  1.
         11   -1    0    0    0    0 -0.00000000000E+00 -0.00000000000E+00 -0.45593999997E+02  0.45594000000E+02  0.51100000000E-03 0. -1.
    9900012    2    1    2    0    0 -0.73694579081E+01 -0.38240468649E+02  0.11684300431E+02  0.50528865369E+02  0.30000016776E+02 0.  0.
         12    1    1    2    0    0  0.73694579081E+01  0.38240468649E+02 -0.11684300431E+02  0.40659134631E+02  0.00000000000E+00 0. -1.
         11    1    3    3    0    0 -0.32333901376E+01  0.93935948631E-01  0.11352850931E+02  0.11804696534E+02  0.51100000000E-03 0.  1.
        -11    1    3    3    0    0 -0.21575431590E+01 -0.31340232172E+02  0.95428745549E+00  0.31428900870E+02  0.51100000000E-03 0. -1.
        -12    1    3    3    0    0 -0.19785246114E+01 -0.69941724255E+01 -0.62283795528E+00  0.72952679646E+01  0.00000000000E+00 0.  1.
</event>
<event>
 7    1  0.3041451E-011  0.5052886E+02  0.7816164E-02  0.1300439E+00
        -11   -1    0    0    0    0  0.00000000000E+00  0.00000000000E+00  0.45593999997E+02  0.45594000000E+02  0.51100000000E-03 0. -1.
         11   -1    0    0    0    0 -0.00000000000E+00 -0.00000000000E+00 -0.45593999997E+02  0.45594000000E+02  0.51100000000E-03 0.  1.
    9900012    2    1    2    0    0  0.34601577609E+02  0.26684442937E+01 -0.21184331820E+02  0.50528859790E+02  0.29999999818E+02 0.  0.
         12    1    1    2    0    0 -0.34601577609E+02 -0.26684442937E+01  0.21184331820E+02  0.40659140210E+02  0.00000000000E+00 0. -1.
         11    1    3    3    0    0  0.28390325128E+01 -0.94104820337E+01 -0.70543496732E+00  0.98546900748E+01  0.51100000000E-03 0. -1.
        -11    1    3    3    0    0  0.15650643356E+02  0.69959239294E+01 -0.15368774162E+02  0.23023570718E+02  0.51100000000E-03 0.  1.
         12    1    3    3    0    0  0.16111901740E+02  0.50830023981E+01 -0.51101226902E+01  0.17650598998E+02  0.00000000000E+00 0. -1.
</event>
<event>
 7    1  0.3041451E-011  0.5052887E+02  0.7816164E-02  0.1300439E+00
        -11   -1    0    0    0    0  0.00000000000E+00  0.00000000000E+00  0.45593999997E+02  0.45594000000E+02  0.51100000000E-03 0. -1.
         11   -1    0    0    0    0 -0.00000000000E+00 -0.00000000000E+00 -0.45593999997E+02  0.45594000000E+02  0.51100000000E-03 0.  1.
    9900012    2    1    2    0    0  0.14399559249E+02  0.19195793291E+02 -0.32822843003E+02  0.50528870528E+02  0.30000032458E+02 0.  0.
         12    1    1    2    0    0 -0.14399559249E+02 -0.19195793291E+02  0.32822843003E+02  0.40659129472E+02  0.00000000000E+00 0. -1.
         11    1    3    3    0    0 -0.78091738072E+01  0.66110141543E+01 -0.12292122012E+02  0.15993278824E+02  0.51100000000E-03 0. -1.
        -11    1    3    3    0    0  0.15974402173E+02  0.13925460120E+02 -0.17458650828E+02  0.27457320578E+02  0.51100000000E-03 0.  1.
         12    1    3    3    0    0  0.62343308833E+01 -0.13406809839E+01 -0.30720701624E+01  0.70782711269E+01  0.00000000000E+00 0. -1.
</event>
<event>
 7    1  0.3041451E-011  0.5052886E+02  0.7816164E-02  0.1300439E+00
        -11   -1    0    0    0    0  0.00000000000E+00  0.00000000000E+00  0.45593999997E+02  0.45594000000E+02  0.51100000000E-03 0.  1.
         11   -1    0    0    0    0 -0.00000000000E+00 -0.00000000000E+00 -0.45593999997E+02  0.45594000000E+02  0.51100000000E-03 0. -1.
    9900012    2    1    2    0    0 -0.38188349980E+01 -0.91052246150E+01  0.39442075873E+02  0.50528856315E+02  0.29999989255E+02 0.  0.
         12    1    1    2    0    0  0.38188349980E+01  0.91052246150E+01 -0.39442075873E+02  0.40659143685E+02  0.00000000000E+00 0. -1.
         11    1    3    3    0    0 -0.66879094870E+01  0.79356705874E+01  0.15821975386E+02  0.18921889608E+02  0.51100000000E-03 0.  1.
        -11    1    3    3    0    0 -0.23075851962E+01 -0.11007517383E+02  0.19835806216E+02  0.22802403314E+02  0.51100000000E-03 0. -1.
         12    1    3    3    0    0  0.51766596853E+01 -0.60333778191E+01  0.37842942712E+01  0.88045633927E+01  0.00000000000E+00 0. -1.
</event>
<event>
 7    1  0.3041451E-011  0.5052891E+02  0.7816164E-02  0.1300439E+00
        -11   -1    0    0    0    0  0.00000000000E+00  0.00000000000E+00  0.45593999997E+02  0.45594000000E+02  0.51100000000E-03 0.  1.
         11   -1    0    0    0    0 -0.00000000000E+00 -0.00000000000E+00 -0.45593999997E+02  0.45594000000E+02  0.51100000000E-03 0. -1.
    9900012    2    1    2    0    0 -0.39048373337E+02 -0.84507612375E+01  0.75478805635E+01  0.50528913355E+02  0.30000162635E+02 0.  0.
         12    1    1    2    0    0  0.39048373337E+02  0.84507612375E+01 -0.75478805635E+01  0.40659086645E+02  0.00000000000E+00 0. -1.
         11    1    3    3    0    0 -0.16569243003E+01  0.10849516912E+01 -0.66377914496E+01  0.69269613756E+01  0.51100000000E-03 0. -1.
        -11    1    3    3    0    0 -0.18685025880E+02  0.54593928474E+00  0.12060020724E+02  0.22245726375E+02  0.51100000000E-03 0.  1.
         12    1    3    3    0    0 -0.18706423157E+02 -0.10081652213E+02  0.21256512893E+01  0.21356225605E+02  0.00000000000E+00 0. -1.
</event>
<event>
 7    1  0.3041451E-011  0.5052886E+02  0.7816164E-02  0.1300439E+00
        -11   -1    0    0    0    0  0.00000000000E+00  0.00000000000E+00  0.45593999997E+02  0.45594000000E+02  0.51100000000E-03 0. -1.
         11   -1    0    0    0    0 -0.00000000000E+00 -0.00000000000E+00 -0.45593999997E+02  0.45594000000E+02  0.51100000000E-03 0.  1.
    9900012    2    1    2    0    0 -0.28787883963E+02 -0.26210414851E+02 -0.11723359294E+02  0.50528864952E+02  0.30000015507E+02 0.  0.
         12    1    1    2    0    0  0.28787883963E+02  0.26210414851E+02  0.11723359294E+02  0.40659135048E+02  0.00000000000E+00 0. -1.
         11    1    3    3    0    0 -0.11455005652E+01 -0.10136896278E+02 -0.39323886820E+01  0.10933092825E+02  0.51100000000E-03 0. -1.
        -11    1    3    3    0    0 -0.11055417031E+02 -0.12644423711E+02  0.59152093341E+01  0.17807116511E+02  0.51100000000E-03 0.  1.
        -12    1    3    3    0    0 -0.16586966367E+02 -0.34290948618E+01 -0.13706179946E+02  0.21788655616E+02  0.00000000000E+00 0.  1.
</event>
<event>
 7    1  0.3041451E-011  0.5052884E+02  0.7816164E-02  0.1300439E+00
        -11   -1    0    0    0    0  0.00000000000E+00  0.00000000000E+00  0.45593999997E+02  0.45594000000E+02  0.51100000000E-03 0.  1.
         11   -1    0    0    0    0 -0.00000000000E+00 -0.00000000000E+00 -0.45593999997E+02  0.45594000000E+02  0.51100000000E-03 0. -1.
    9900012    2    1    2    0    0 -0.11749646463E+02 -0.50069181415E+01  0.38601088581E+02  0.50528837921E+02  0.29999933345E+02 0.  0.
         12    1    1    2    0    0  0.11749646463E+02  0.50069181415E+01 -0.38601088581E+02  0.40659162079E+02  0.00000000000E+00 0. -1.
         11    1    3    3    0    0 -0.23520114229E+01 -0.91560341100E+01  0.75098146573E+01  0.12073203171E+02  0.51100000000E-03 0. -1.
        -11    1    3    3    0    0 -0.14979702388E+02  0.67487735732E+01  0.23651438468E+02  0.28798054973E+02  0.51100000000E-03 0.  1.
        -12    1    3    3    0    0  0.55820673475E+01 -0.25996576048E+01  0.74398354562E+01  0.96575797770E+01  0.00000000000E+00 0.  1.
</event>
<event>
 7    1  0.3041451E-011  0.5052887E+02  0.7816164E-02  0.1300439E+00
        -11   -1    0    0    0    0  0.00000000000E+00  0.00000000000E+00  0.45593999997E+02  0.45594000000E+02  0.51100000000E-03 0. -1.
         11   -1    0    0    0    0 -0.00000000000E+00 -0.00000000000E+00 -0.45593999997E+02  0.45594000000E+02  0.51100000000E-03 0.  1.
    9900012    2    1    2    0    0  0.36054773266E+02  0.10910050389E+02 -0.15303222825E+02  0.50528874289E+02  0.30000043889E+02 0.  0.
         12    1    1    2    0    0 -0.36054773266E+02 -0.10910050389E+02  0.15303222825E+02  0.40659125711E+02  0.00000000000E+00 0. -1.
         11    1    3    3    0    0 -0.23367481341E+01  0.31334664807E+01  0.28025342920E+01  0.48096988208E+01  0.51100000000E-03 0. -1.
        -11    1    3    3    0    0  0.35848106623E+02  0.39225614061E+01 -0.19365470167E+02  0.40932806787E+02  0.51100000000E-03 0.  1.
        -12    1    3    3    0    0  0.25434147773E+01  0.38540225024E+01  0.12597130507E+01  0.47863686808E+01  0.00000000000E+00 0.  1.
</event>
<event>
 7    1  0.3041451E-011  0.5052886E+02  0.7816164E-02  0.1300439E+00
        -11   -1    0    0    0    0  0.00000000000E+00  0.00000000000E+00  0.45593999997E+02  0.45594000000E+02  0.51100000000E-03 0. -1.
         11   -1    0    0    0    0 -0.00000000000E+00 -0.00000000000E+00 -0.45593999997E+02  0.45594000000E+02  0.51100000000E-03 0.  1.
    9900012    2    1    2    0    0 -0.22132176792E+02  0.22037876265E+02 -0.26031983893E+02  0.50528862955E+02  0.30000009439E+02 0.  0.
         12    1    1    2    0    0  0.22132176792E+02 -0.22037876265E+02  0.26031983893E+02  0.40659137045E+02  0.00000000000E+00 0. -1.
         11    1    3    3    0    0 -0.24551272416E+02  0.10083960928E+02 -0.77093311813E+01  0.27638470159E+02  0.51100000000E-03 0. -1.
        -11    1    3    3    0    0  0.24679979622E+01  0.50943032597E+01 -0.37676144943E+01  0.67998425630E+01  0.51100000000E-03 0.  1.
         12    1    3    3    0    0 -0.48902338195E-01  0.68596120775E+01 -0.14555038217E+02  0.16090550233E+02  0.00000000000E+00 0. -1.
</event>
<event>
 7    1  0.3041451E-011  0.5052886E+02  0.7816164E-02  0.1300439E+00
        -11   -1    0    0    0    0  0.00000000000E+00  0.00000000000E+00  0.45593999997E+02  0.45594000000E+02  0.51100000000E-03 0. -1.
         11   -1    0    0    0    0 -0.00000000000E+00 -0.00000000000E+00 -0.45593999997E+02  0.45594000000E+02  0.51100000000E-03 0.  1.
    9900012    2    1    2    0    0 -0.27512511952E+02 -0.85129391268E+01 -0.28701175070E+02  0.50528857156E+02  0.29999991810E+02 0.  0.
         12    1    1    2    0    0  0.27512511952E+02  0.85129391268E+01  0.28701175070E+02  0.40659142844E+02  0.00000000000E+00 0. -1.
         11    1    3    3    0    0 -0.59370262162E+01  0.77807595605E+01 -0.13188909336E+02  0.16423636302E+02  0.51100000000E-03 0. -1.
        -11    1    3    3    0    0 -0.19308979949E+02 -0.10341843259E+02 -0.60945464718E+01  0.22736180982E+02  0.51100000000E-03 0.  1.
        -12    1    3    3    0    0 -0.22665057860E+01 -0.59518554285E+01 -0.94177192619E+01  0.11369039872E+02  0.00000000000E+00 0.  1.
</event>
<event>
 7    1  0.3041451E-011  0.5052887E+02  0.7816164E-02  0.1300439E+00
        -11   -1    0    0    0    0  0.00000000000E+00  0.00000000000E+00  0.45593999997E+02  0.45594000000E+02  0.51100000000E-03 0.  1.
         11   -1    0    0    0    0 -0.00000000000E+00 -0.00000000000E+00 -0.45593999997E+02  0.45594000000E+02  0.51100000000E-03 0. -1.
    9900012    2    1    2    0    0 -0.24902627105E+02  0.19286159656E+01  0.32082781349E+02  0.50528865044E+02  0.30000015787E+02 0.  0.
         12    1    1    2    0    0  0.24902627105E+02 -0.19286159656E+01 -0.32082781349E+02  0.40659134956E+02  0.00000000000E+00 0. -1.
         11    1    3    3    0    0 -0.17511070853E+02 -0.45963690829E+01  0.71043136781E+01  0.19448277154E+02  0.51100000000E-03 0. -1.
        -11    1    3    3    0    0 -0.21288633654E+01  0.17155484959E+01  0.23675961794E+02  0.23833303023E+02  0.51100000000E-03 0.  1.
        -12    1    3    3    0    0 -0.52626928866E+01  0.48094365526E+01  0.13025058775E+01  0.72472848663E+01  0.00000000000E+00 0.  1.
</event>
<event>
 7    1  0.3041451E-011  0.5052884E+02  0.7816164E-02  0.1300439E+00
        -11   -1    0    0    0    0  0.00000000000E+00  0.00000000000E+00  0.45593999997E+02  0.45594000000E+02  0.51100000000E-03 0.  1.
         11   -1    0    0    0    0 -0.00000000000E+00 -0.00000000000E+00 -0.45593999997E+02  0.45594000000E+02  0.51100000000E-03 0. -1.
    9900012    2    1    2    0    0  0.83864261771E+00 -0.16236056739E+01  0.40618068828E+02  0.50528844424E+02  0.29999953111E+02 0.  0.
         12    1    1    2    0    0 -0.83864261771E+00  0.16236056739E+01 -0.40618068828E+02  0.40659155576E+02  0.00000000000E+00 0. -1.
         11    1    3    3    0    0  0.31669846934E+01  0.62767232418E+01  0.51862203674E+00  0.70495401113E+01  0.51100000000E-03 0. -1.
        -11    1    3    3    0    0  0.52240244057E+01 -0.53176087514E+01  0.28068017947E+02  0.29041023149E+02  0.51100000000E-03 0.  1.
        -12    1    3    3    0    0 -0.75523664814E+01 -0.25827201642E+01  0.12031428845E+02  0.14438281164E+02  0.00000000000E+00 0.  1.
</event>
<event>
 7    1  0.3041451E-011  0.5052886E+02  0.7816164E-02  0.1300439E+00
        -11   -1    0    0    0    0  0.00000000000E+00  0.00000000000E+00  0.45593999997E+02  0.45594000000E+02  0.51100000000E-03 0.  1.
         11   -1    0    0    0    0 -0.00000000000E+00 -0.00000000000E+00 -0.45593999997E+02  0.45594000000E+02  0.51100000000E-03 0. -1.
    9900012    2    1    2    0    0 -0.12344341278E+02 -0.38717974261E+02  0.13044134670E+01  0.50528858507E+02  0.29999995918E+02 0.  0.
         12    1    1    2    0    0  0.12344341278E+02  0.38717974261E+02 -0.13044134670E+01  0.40659141493E+02  0.00000000000E+00 0. -1.
         11    1    3    3    0    0 -0.64154222904E+01 -0.82368931017E+01 -0.92713922566E+01  0.13962906781E+02  0.51100000000E-03 0. -1.
        -11    1    3    3    0    0 -0.14923117397E+01 -0.30506719055E+02  0.96732867417E+01  0.32038404743E+02  0.51100000000E-03 0.  1.
        -12    1    3    3    0    0 -0.44366072481E+01  0.25637895495E-01  0.90251898189E+00  0.45275469836E+01  0.00000000000E+00 0.  1.
</event>
<event>
 7    1  0.3041451E-011  0.5052886E+02  0.7816164E-02  0.1300439E+00
        -11   -1    0    0    0    0  0.00000000000E+00  0.00000000000E+00  0.45593999997E+02  0.45594000000E+02  0.51100000000E-03 0.  1.
         11   -1    0    0    0    0 -0.00000000000E+00 -0.00000000000E+00 -0.45593999997E+02  0.45594000000E+02  0.51100000000E-03 0. -1.
    9900012    2    1    2    0    0  0.23334137789E+02 -0.93100691428E+01  0.31968833829E+02  0.50528859451E+02  0.29999998786E+02 0.  0.
         12    1    1    2    0    0 -0.23334137789E+02  0.93100691428E+01 -0.31968833829E+02  0.40659140549E+02  0.00000000000E+00 0. -1.
         11    1    3    3    0    0 -0.31033643153E+01 -0.53806960962E+00  0.14361019072E+00  0.31529372221E+01  0.51100000000E-03 0. -1.
        -11    1    3    3    0    0  0.16394832682E+02  0.57668695977E+01  0.14582110111E+02  0.22686675807E+02  0.51100000000E-03 0.  1.
        -12    1    3    3    0    0  0.10042669422E+02 -0.14538869131E+02  0.17243113527E+02  0.24689246421E+02  0.00000000000E+00 0.  1.
</event>
<event>
 7    1  0.3041451E-011  0.5052886E+02  0.7816164E-02  0.1300439E+00
        -11   -1    0    0    0    0  0.00000000000E+00  0.00000000000E+00  0.45593999997E+02  0.45594000000E+02  0.51100000000E-03 0.  1.
         11   -1    0    0    0    0 -0.00000000000E+00 -0.00000000000E+00 -0.45593999997E+02  0.45594000000E+02  0.51100000000E-03 0. -1.
    9900012    2    1    2    0    0  0.10051228175E+02  0.21759827522E+02  0.32842780388E+02  0.50528861971E+02  0.30000006448E+02 0.  0.
         12    1    1    2    0    0 -0.10051228175E+02 -0.21759827522E+02 -0.32842780388E+02  0.40659138029E+02  0.00000000000E+00 0. -1.
         11    1    3    3    0    0  0.57387416294E+01  0.36501014854E+01  0.25551483912E+01  0.72653410040E+01  0.51100000000E-03 0. -1.
        -11    1    3    3    0    0  0.14401049989E+02  0.13352473655E+02  0.20966495905E+02  0.28727560709E+02  0.51100000000E-03 0.  1.
        -12    1    3    3    0    0 -0.10088563444E+02  0.47572523820E+01  0.93211360922E+01  0.14535960258E+02  0.00000000000E+00 0.  1.
</event>
<event>
 7    1  0.3041451E-011  0.5052889E+02  0.7816164E-02  0.1300439E+00
        -11   -1    0    0    0    0  0.00000000000E+00  0.00000000000E+00  0.45593999997E+02  0.45594000000E+02  0.51100000000E-03 0.  1.
         11   -1    0    0    0    0 -0.00000000000E+00 -0.00000000000E+00 -0.45593999997E+02  0.45594000000E+02  0.51100000000E-03 0. -1.
    9900012    2    1    2    0    0  0.22604208202E+02 -0.15940142411E+02  0.29801422794E+02  0.50528890700E+02  0.30000093772E+02 0.  0.
         12    1    1    2    0    0 -0.22604208202E+02  0.15940142411E+02 -0.29801422794E+02  0.40659109300E+02  0.00000000000E+00 0. -1.
         11    1    3    3    0    0 -0.31621375696E+01  0.38946529102E+01  0.43761428281E+01  0.66571812062E+01  0.51100000000E-03 0. -1.
        -11    1    3    3    0    0  0.18971282367E+02 -0.17119438028E+02  0.11252547628E+02  0.27921399345E+02  0.51100000000E-03 0.  1.
        -12    1    3    3    0    0  0.67950634041E+01 -0.27153572938E+01  0.14172732338E+02  0.15950310148E+02  0.00000000000E+00 0.  1.
</event>
<event>
 7    1  0.3041451E-011  0.5052886E+02  0.7816164E-02  0.1300439E+00
        -11   -1    0    0    0    0  0.00000000000E+00  0.00000000000E+00  0.45593999997E+02  0.45594000000E+02  0.51100000000E-03 0.  1.
         11   -1    0    0    0    0 -0.00000000000E+00 -0.00000000000E+00 -0.45593999997E+02  0.45594000000E+02  0.51100000000E-03 0. -1.
    9900012    2    1    2    0    0 -0.29125772147E+02  0.14653886385E+01  0.28332098630E+02  0.50528858595E+02  0.29999996184E+02 0.  0.
         12    1    1    2    0    0  0.29125772147E+02 -0.14653886385E+01 -0.28332098630E+02  0.40659141405E+02  0.00000000000E+00 0. -1.
         11    1    3    3    0    0 -0.81167312974E+01  0.56778736222E+01  0.10124077245E+02  0.14163915989E+02  0.51100000000E-03 0.  1.
        -11    1    3    3    0    0 -0.16059932277E+02 -0.11985195528E+02  0.18317743669E+02  0.27149697419E+02  0.51100000000E-03 0. -1.
        -12    1    3    3    0    0 -0.49491085725E+01  0.77727105439E+01 -0.10972228357E+00  0.92152451862E+01  0.00000000000E+00 0.  1.
</event>
<event>
 7    1  0.3041451E-011  0.5052887E+02  0.7816164E-02  0.1300439E+00
        -11   -1    0    0    0    0  0.00000000000E+00  0.00000000000E+00  0.45593999997E+02  0.45594000000E+02  0.51100000000E-03 0.  1.
         11   -1    0    0    0    0 -0.00000000000E+00 -0.00000000000E+00 -0.45593999997E+02  0.45594000000E+02  0.51100000000E-03 0. -1.
    9900012    2    1    2    0    0 -0.93001812607E+01  0.45319977041E+01  0.39320893918E+02  0.50528867284E+02  0.30000022598E+02 0.  0.
         12    1    1    2    0    0  0.93001812607E+01 -0.45319977041E+01 -0.39320893918E+02  0.40659132716E+02  0.00000000000E+00 0. -1.
         11    1    3    3    0    0  0.80398456202E+01  0.29888357143E+01  0.45534250039E+01  0.97111243453E+01  0.51100000000E-03 0. -1.
        -11    1    3    3    0    0 -0.12069716334E+02 -0.48230377300E+01  0.19081993790E+02  0.23088140518E+02  0.51100000000E-03 0.  1.
         12    1    3    3    0    0 -0.52703105468E+01  0.63661997198E+01  0.15685475124E+02  0.17729602421E+02  0.00000000000E+00 0. -1.
</event>
<event>
 7    1  0.3041451E-011  0.5052875E+02  0.7816164E-02  0.1300439E+00
        -11   -1    0    0    0    0  0.00000000000E+00  0.00000000000E+00  0.45593999997E+02  0.45594000000E+02  0.51100000000E-03 0.  1.
         11   -1    0    0    0    0 -0.00000000000E+00 -0.00000000000E+00 -0.45593999997E+02  0.45594000000E+02  0.51100000000E-03 0. -1.
    9900012    2    1    2    0    0 -0.19009854694E+02 -0.19499001845E+02  0.30192525342E+02  0.50528754619E+02  0.29999680138E+02 0.  0.
         12    1    1    2    0    0  0.19009854694E+02  0.19499001845E+02 -0.30192525342E+02  0.40659245381E+02  0.00000000000E+00 0. -1.
         11    1    3    3    0    0 -0.10584116483E+02  0.24292359827E+01  0.38172883258E+01  0.11510708041E+02  0.51100000000E-03 0. -1.
        -11    1    3    3    0    0  0.75067492079E+00 -0.11659524502E+02  0.21388320558E+02  0.24371464482E+02  0.51100000000E-03 0.  1.
        -12    1    3    3    0    0 -0.91764131313E+01 -0.10268713326E+02  0.49869164583E+01  0.14646582096E+02  0.00000000000E+00 0.  1.
</event>
<event>
 7    1  0.3041451E-011  0.5052887E+02  0.7816164E-02  0.1300439E+00
        -11   -1    0    0    0    0  0.00000000000E+00  0.00000000000E+00  0.45593999997E+02  0.45594000000E+02  0.51100000000E-03 0.  1.
         11   -1    0    0    0    0 -0.00000000000E+00 -0.00000000000E+00 -0.45593999997E+02  0.45594000000E+02  0.51100000000E-03 0. -1.
    9900012    2    1    2    0    0  0.37730869228E+02  0.10592296012E+02  0.10832810522E+02  0.50528868045E+02  0.30000024910E+02 0.  0.
         12    1    1    2    0    0 -0.37730869228E+02 -0.10592296012E+02 -0.10832810522E+02  0.40659131955E+02  0.00000000000E+00 0. -1.
         11    1    3    3    0    0  0.92269551536E+01 -0.56326953955E+01  0.89863311112E+01  0.14057670715E+02  0.51100000000E-03 0. -1.
        -11    1    3    3    0    0  0.17458899739E+02  0.14520102241E+02  0.75422485374E+01  0.23927642225E+02  0.51100000000E-03 0.  1.
         12    1    3    3    0    0  0.11045014335E+02  0.17048891662E+01 -0.56957691263E+01  0.12543555105E+02  0.00000000000E+00 0. -1.
</event>
<event>
 7    1  0.3041451E-011  0.5052885E+02  0.7816164E-02  0.1300439E+00
        -11   -1    0    0    0    0  0.00000000000E+00  0.00000000000E+00  0.45593999997E+02  0.45594000000E+02  0.51100000000E-03 0.  1.
         11   -1    0    0    0    0 -0.00000000000E+00 -0.00000000000E+00 -0.45593999997E+02  0.45594000000E+02  0.51100000000E-03 0. -1.
    9900012    2    1    2    0    0 -0.10792535995E+02  0.39199649017E+02  0.27371780142E+00  0.50528852964E+02  0.29999979069E+02 0.  0.
         12    1    1    2    0    0  0.10792535995E+02 -0.39199649017E+02 -0.27371780142E+00  0.40659147036E+02  0.00000000000E+00 0. -1.
         11    1    3    3    0    0 -0.92546537626E+01  0.58425184932E+01 -0.38055203707E+01  0.11587304439E+02  0.51100000000E-03 0. -1.
        -11    1    3    3    0    0 -0.24445692401E+01  0.27667225455E+02  0.11054797694E+02  0.29894143833E+02  0.51100000000E-03 0.  1.
         12    1    3    3    0    0  0.90668700752E+00  0.56899050686E+01 -0.69755595221E+01  0.90474046923E+01  0.00000000000E+00 0. -1.
</event>
<event>
 7    1  0.3041451E-011  0.5052886E+02  0.7816164E-02  0.1300439E+00
        -11   -1    0    0    0    0  0.00000000000E+00  0.00000000000E+00  0.45593999997E+02  0.45594000000E+02  0.51100000000E-03 0.  1.
         11   -1    0    0    0    0 -0.00000000000E+00 -0.00000000000E+00 -0.45593999997E+02  0.45594000000E+02  0.51100000000E-03 0. -1.
    9900012    2    1    2    0    0 -0.10586452124E+02 -0.12320187449E+02  0.37273391757E+02  0.50528859325E+02  0.29999998404E+02 0.  0.
         12    1    1    2    0    0  0.10586452124E+02  0.12320187449E+02 -0.37273391757E+02  0.40659140675E+02  0.00000000000E+00 0. -1.
         11    1    3    3    0    0  0.38174469580E+01  0.35682351360E+01  0.23034093027E+01  0.57105952351E+01  0.51100000000E-03 0. -1.
        -11    1    3    3    0    0 -0.16406663697E+02 -0.12495722060E+02  0.35280763840E+02  0.40866293946E+02  0.51100000000E-03 0.  1.
        -12    1    3    3    0    0  0.20027646148E+01 -0.33927005245E+01 -0.31078138530E+00  0.39519701442E+01  0.00000000000E+00 0.  1.
</event>
<event>
 7    1  0.3041451E-011  0.5052886E+02  0.7816164E-02  0.1300439E+00
        -11   -1    0    0    0    0  0.00000000000E+00  0.00000000000E+00  0.45593999997E+02  0.45594000000E+02  0.51100000000E-03 0.  1.
         11   -1    0    0    0    0 -0.00000000000E+00 -0.00000000000E+00 -0.45593999997E+02  0.45594000000E+02  0.51100000000E-03 0. -1.
    9900012    2    1    2    0    0  0.29326277613E+02 -0.27433027881E+02 -0.63690190798E+01  0.50528856116E+02  0.29999988649E+02 0.  0.
         12    1    1    2    0    0 -0.29326277613E+02  0.27433027881E+02  0.63690190798E+01  0.40659143884E+02  0.00000000000E+00 0. -1.
         11    1    3    3    0    0  0.42535712478E+01  0.42990137839E+01 -0.46247851968E+01  0.76133452734E+01  0.51100000000E-03 0. -1.
        -11    1    3    3    0    0  0.43912101038E+01 -0.16712368132E+02  0.20967255758E+00  0.17280912522E+02  0.51100000000E-03 0.  1.
         12    1    3    3    0    0  0.20681496262E+02 -0.15019673533E+02 -0.19539064406E+01  0.25634598320E+02  0.00000000000E+00 0. -1.
</event>
<event>
 7    1  0.3041451E-011  0.5052885E+02  0.7816164E-02  0.1300439E+00
        -11   -1    0    0    0    0  0.00000000000E+00  0.00000000000E+00  0.45593999997E+02  0.45594000000E+02  0.51100000000E-03 0.  1.
         11   -1    0    0    0    0 -0.00000000000E+00 -0.00000000000E+00 -0.45593999997E+02  0.45594000000E+02  0.51100000000E-03 0. -1.
    9900012    2    1    2    0    0 -0.28403224347E+02 -0.17343962274E+02  0.23358308989E+02  0.50528846302E+02  0.29999958818E+02 0.  0.
         12    1    1    2    0    0  0.28403224347E+02  0.17343962274E+02 -0.23358308989E+02  0.40659153698E+02  0.00000000000E+00 0. -1.
         11    1    3    3    0    0 -0.19056224922E+02 -0.89663532516E+01  0.42523509750E+01  0.21485290038E+02  0.51100000000E-03 0. -1.
        -11    1    3    3    0    0  0.53445732448E+01 -0.19436805314E+01  0.35735689581E+01  0.67166027526E+01  0.51100000000E-03 0.  1.
        -12    1    3    3    0    0 -0.14691572669E+02 -0.64339284905E+01  0.15532389056E+02  0.22326953511E+02  0.00000000000E+00 0.  1.
</event>
<event>
 7    1  0.3041451E-011  0.5052887E+02  0.7816164E-02  0.1300439E+00
        -11   -1    0    0    0    0  0.00000000000E+00  0.00000000000E+00  0.45593999997E+02  0.45594000000E+02  0.51100000000E-03 0.  1.
         11   -1    0    0    0    0 -0.00000000000E+00 -0.00000000000E+00 -0.45593999997E+02  0.45594000000E+02  0.51100000000E-03 0. -1.
    9900012    2    1    2    0    0  0.22331230668E+02 -0.29025766619E+02  0.17663115306E+02  0.50528872694E+02  0.30000039042E+02 0.  0.
         12    1    1    2    0    0 -0.22331230668E+02  0.29025766619E+02 -0.17663115306E+02  0.40659127306E+02  0.00000000000E+00 0. -1.
         11    1    3    3    0    0  0.53721881757E+01  0.39049967448E+01  0.16088830823E+01  0.68335869356E+01  0.51100000000E-03 0. -1.
        -11    1    3    3    0    0  0.14123223202E+02 -0.24804237883E+02  0.39093358231E+01  0.28809695545E+02  0.51100000000E-03 0.  1.
        -12    1    3    3    0    0  0.28358192902E+01 -0.81265254805E+01  0.12144896400E+02  0.14885590214E+02  0.00000000000E+00 0.  1.
</event>
<event>
 7    1  0.3041451E-011  0.5052886E+02  0.7816164E-02  0.1300439E+00
        -11   -1    0    0    0    0  0.00000000000E+00  0.00000000000E+00  0.45593999997E+02  0.45594000000E+02  0.51100000000E-03 0.  1.
         11   -1    0    0    0    0 -0.00000000000E+00 -0.00000000000E+00 -0.45593999997E+02  0.45594000000E+02  0.51100000000E-03 0. -1.
    9900012    2    1    2    0    0 -0.26005434671E+02 -0.26464195692E+02  0.16629181782E+02  0.50528856222E+02  0.29999988971E+02 0.  0.
         12    1    1    2    0    0  0.26005434671E+02  0.26464195692E+02 -0.16629181782E+02  0.40659143778E+02  0.00000000000E+00 0. -1.
         11    1    3    3    0    0 -0.49444968041E+01 -0.11023351284E+01  0.14480665285E+02  0.15341214383E+02  0.51100000000E-03 0. -1.
        -11    1    3    3    0    0 -0.18307402010E+02 -0.13498515001E+02 -0.38117469275E+00  0.22748981735E+02  0.51100000000E-03 0.  1.
         12    1    3    3    0    0 -0.27535358567E+01 -0.11863345563E+02  0.25296911895E+01  0.12438660104E+02  0.00000000000E+00 0. -1.
</event>
<event>
 7    1  0.3041451E-011  0.5052887E+02  0.7816164E-02  0.1300439E+00
        -11   -1    0    0    0    0  0.00000000000E+00  0.00000000000E+00  0.45593999997E+02  0.45594000000E+02  0.51100000000E-03 0. -1.
         11   -1    0    0    0    0 -0.00000000000E+00 -0.00000000000E+00 -0.45593999997E+02  0.45594000000E+02  0.51100000000E-03 0.  1.
    9900012    2    1    2    0    0  0.33172250325E+02 -0.19134064301E+01 -0.23432994101E+02  0.50528873985E+02  0.30000042964E+02 0.  0.
         12    1    1    2    0    0 -0.33172250325E+02  0.19134064301E+01  0.23432994101E+02  0.40659126015E+02  0.00000000000E+00 0. -1.
         11    1    3    3    0    0  0.29103308340E+01 -0.10453202623E+02 -0.11272569844E+02  0.15646414982E+02  0.51100000000E-03 0. -1.
        -11    1    3    3    0    0  0.66815682269E+01  0.59265306717E+01 -0.25803068779E+01  0.92965102925E+01  0.51100000000E-03 0.  1.
         12    1    3    3    0    0  0.23580351264E+02  0.26132655211E+01 -0.95801173788E+01  0.25585948710E+02  0.00000000000E+00 0. -1.
</event>
<event>
 7    1  0.3041451E-011  0.5052886E+02  0.7816164E-02  0.1300439E+00
        -11   -1    0    0    0    0  0.00000000000E+00  0.00000000000E+00  0.45593999997E+02  0.45594000000E+02  0.51100000000E-03 0.  1.
         11   -1    0    0    0    0 -0.00000000000E+00 -0.00000000000E+00 -0.45593999997E+02  0.45594000000E+02  0.51100000000E-03 0. -1.
    9900012    2    1    2    0    0 -0.37597688617E+02  0.48679186524E+01  0.14692942367E+02  0.50528863551E+02  0.30000011249E+02 0.  0.
         12    1    1    2    0    0  0.37597688617E+02 -0.48679186524E+01 -0.14692942367E+02  0.40659136449E+02  0.00000000000E+00 0. -1.
         11    1    3    3    0    0 -0.10906930751E+02 -0.96242447341E+01  0.13737822073E+01  0.14610766678E+02  0.51100000000E-03 0. -1.
        -11    1    3    3    0    0 -0.25080302719E+02  0.11604578336E+02  0.65738481695E+01  0.28406043421E+02  0.51100000000E-03 0.  1.
         12    1    3    3    0    0 -0.16104551471E+01  0.28875850506E+01  0.67453119905E+01  0.75120534513E+01  0.00000000000E+00 0. -1.
</event>
<event>
 7    1  0.3041451E-011  0.5052887E+02  0.7816164E-02  0.1300439E+00
        -11   -1    0    0    0    0  0.00000000000E+00  0.00000000000E+00  0.45593999997E+02  0.45594000000E+02  0.51100000000E-03 0.  1.
         11   -1    0    0    0    0 -0.00000000000E+00 -0.00000000000E+00 -0.45593999997E+02  0.45594000000E+02  0.51100000000E-03 0. -1.
    9900012    2    1    2    0    0  0.30082379407E+02  0.13839917693E+02  0.23593904261E+02  0.50528865838E+02  0.30000018202E+02 0.  0.
         12    1    1    2    0    0 -0.30082379407E+02 -0.13839917693E+02 -0.23593904261E+02  0.40659134162E+02  0.00000000000E+00 0. -1.
         11    1    3    3    0    0  0.13798333457E+01 -0.32260026764E+01 -0.18860463462E+01  0.39834914850E+01  0.51100000000E-03 0. -1.
        -11    1    3    3    0    0  0.20026302692E+02  0.40868051597E+01  0.22946054044E+02  0.30729076986E+02  0.51100000000E-03 0.  1.
        -12    1    3    3    0    0  0.86762433690E+01  0.12979115210E+02  0.25338965624E+01  0.15816297367E+02  0.00000000000E+00 0.  1.
</event>
<event>
 7    1  0.3041451E-011  0.5052886E+02  0.7816164E-02  0.1300439E+00
        -11   -1    0    0    0    0  0.00000000000E+00  0.00000000000E+00  0.45593999997E+02  0.45594000000E+02  0.51100000000E-03 0. -1.
         11   -1    0    0    0    0 -0.00000000000E+00 -0.00000000000E+00 -0.45593999997E+02  0.45594000000E+02  0.51100000000E-03 0.  1.
    9900012    2    1    2    0    0  0.33216270556E+02 -0.23290147181E+02  0.27228573345E+01  0.50528861575E+02  0.30000005244E+02 0.  0.
         12    1    1    2    0    0 -0.33216270556E+02  0.23290147181E+02 -0.27228573345E+01  0.40659138425E+02  0.00000000000E+00 0. -1.
         11    1    3    3    0    0  0.11677326953E+02 -0.21659148349E+02  0.10155474063E+02  0.26619773209E+02  0.51100000000E-03 0. -1.
        -11    1    3    3    0    0  0.14458670894E+02 -0.23171359426E+01 -0.81519438672E+01  0.16759369680E+02  0.51100000000E-03 0.  1.
         12    1    3    3    0    0  0.70802727086E+01  0.68613711054E+00  0.71932713916E+00  0.71497186865E+01  0.00000000000E+00 0. -1.
</event>
<event>
 7    1  0.3041451E-011  0.5052885E+02  0.7816164E-02  0.1300439E+00
        -11   -1    0    0    0    0  0.00000000000E+00  0.00000000000E+00  0.45593999997E+02  0.45594000000E+02  0.51100000000E-03 0.  1.
         11   -1    0    0    0    0 -0.00000000000E+00 -0.00000000000E+00 -0.45593999997E+02  0.45594000000E+02  0.51100000000E-03 0. -1.
    9900012    2    1    2    0    0  0.36980002075E+02 -0.88810943505E+01 -0.14379562810E+02  0.50528853220E+02  0.29999979847E+02 0.  0.
         12    1    1    2    0    0 -0.36980002075E+02  0.88810943505E+01  0.14379562810E+02  0.40659146780E+02  0.00000000000E+00 0. -1.
         11    1    3    3    0    0  0.11164098405E+02  0.65028906281E+01 -0.13153250683E+02  0.18437263449E+02  0.51100000000E-03 0. -1.
        -11    1    3    3    0    0  0.13896229786E+02 -0.11687311546E+02 -0.53814728902E+01  0.18938286727E+02  0.51100000000E-03 0.  1.
         12    1    3    3    0    0  0.11919673884E+02 -0.36966734321E+01  0.41551607633E+01  0.13153303043E+02  0.00000000000E+00 0. -1.
</event>
<event>
 7    1  0.3041451E-011  0.5052886E+02  0.7816164E-02  0.1300439E+00
        -11   -1    0    0    0    0  0.00000000000E+00  0.00000000000E+00  0.45593999997E+02  0.45594000000E+02  0.51100000000E-03 0.  1.
         11   -1    0    0    0    0 -0.00000000000E+00 -0.00000000000E+00 -0.45593999997E+02  0.45594000000E+02  0.51100000000E-03 0. -1.
    9900012    2    1    2    0    0  0.12391501298E+02  0.12814029307E+02  0.36543357985E+02  0.50528860015E+02  0.30000000502E+02 0.  0.
         12    1    1    2    0    0 -0.12391501298E+02 -0.12814029307E+02 -0.36543357985E+02  0.40659139985E+02  0.00000000000E+00 0. -1.
         11    1    3    3    0    0  0.10766914072E+01 -0.63048226777E+00 -0.16268787011E+01  0.20502455573E+01  0.51100000000E-03 0. -1.
        -11    1    3    3    0    0  0.94527202353E+01  0.19440352013E+02  0.35694404062E+02  0.41729745839E+02  0.51100000000E-03 0.  1.
        -12    1    3    3    0    0  0.18620896554E+01 -0.59958404382E+01  0.24758326241E+01  0.67488686184E+01  0.00000000000E+00 0.  1.
</event>
<event>
 7    1  0.3041451E-011  0.5052887E+02  0.7816164E-02  0.1300439E+00
        -11   -1    0    0    0    0  0.00000000000E+00  0.00000000000E+00  0.45593999997E+02  0.45594000000E+02  0.51100000000E-03 0.  1.
         11   -1    0    0    0    0 -0.00000000000E+00 -0.00000000000E+00 -0.45593999997E+02  0.45594000000E+02  0.51100000000E-03 0. -1.
    9900012    2    1    2    0    0 -0.73361572236E+01 -0.38695778268E+02  0.10098641527E+02  0.50528867948E+02  0.30000024614E+02 0.  0.
         12    1    1    2    0    0  0.73361572236E+01  0.38695778268E+02 -0.10098641527E+02  0.40659132052E+02  0.00000000000E+00 0. -1.
         11    1    3    3    0    0  0.19648770782E+01  0.14431337095E+01  0.16012236011E+01  0.29167266101E+01  0.51100000000E-03 0. -1.
        -11    1    3    3    0    0 -0.14722203132E+02 -0.28660194291E+02 -0.20531313155E+00  0.32220989364E+02  0.51100000000E-03 0.  1.
        -12    1    3    3    0    0  0.54211688305E+01 -0.11478717686E+02  0.87027310573E+01  0.15391151973E+02  0.00000000000E+00 0.  1.
</event>
<event>
 7    1  0.3041451E-011  0.5052875E+02  0.7816164E-02  0.1300439E+00
        -11   -1    0    0    0    0  0.00000000000E+00  0.00000000000E+00  0.45593999997E+02  0.45594000000E+02  0.51100000000E-03 0. -1.
         11   -1    0    0    0    0 -0.00000000000E+00 -0.00000000000E+00 -0.45593999997E+02  0.45594000000E+02  0.51100000000E-03 0.  1.
    9900012    2    1    2    0    0 -0.22034634372E+02  0.31598493306E+02 -0.13007102768E+02  0.50528749964E+02  0.29999665987E+02 0.  0.
         12    1    1    2    0    0  0.22034634372E+02 -0.31598493306E+02  0.13007102768E+02  0.40659250036E+02  0.00000000000E+00 0. -1.
         11    1    3    3    0    0 -0.11012238487E+02  0.46443531860E+01 -0.14725356189E+02  0.18965113450E+02  0.51100000000E-03 0. -1.
        -11    1    3    3    0    0 -0.13352843791E+02  0.19740675040E+02  0.20488393737E+00  0.23833477842E+02  0.51100000000E-03 0.  1.
        -12    1    3    3    0    0  0.23304479056E+01  0.72134650803E+01  0.15133694842E+01  0.77301586724E+01  0.00000000000E+00 0.  1.
</event>
<event>
 7    1  0.3041451E-011  0.5052887E+02  0.7816164E-02  0.1300439E+00
        -11   -1    0    0    0    0  0.00000000000E+00  0.00000000000E+00  0.45593999997E+02  0.45594000000E+02  0.51100000000E-03 0.  1.
         11   -1    0    0    0    0 -0.00000000000E+00 -0.00000000000E+00 -0.45593999997E+02  0.45594000000E+02  0.51100000000E-03 0. -1.
    9900012    2    1    2    0    0 -0.18808425637E+02 -0.27892991425E+02  0.22833944032E+02  0.50528870083E+02  0.30000031103E+02 0.  0.
         12    1    1    2    0    0  0.18808425637E+02  0.27892991425E+02 -0.22833944032E+02  0.40659129917E+02  0.00000000000E+00 0. -1.
         11    1    3    3    0    0 -0.21852099333E+01 -0.21558803443E+02  0.18654656185E+01  0.21749416327E+02  0.51100000000E-03 0. -1.
        -11    1    3    3    0    0 -0.90454550774E+01  0.10591901146E+01  0.10313993179E+02  0.13759382138E+02  0.51100000000E-03 0.  1.
         12    1    3    3    0    0 -0.75777606267E+01 -0.73933780967E+01  0.10654485235E+02  0.15020071618E+02  0.00000000000E+00 0. -1.
</event>
<event>
 7    1  0.3041451E-011  0.5052886E+02  0.7816164E-02  0.1300439E+00
        -11   -1    0    0    0    0  0.00000000000E+00  0.00000000000E+00  0.45593999997E+02  0.45594000000E+02  0.51100000000E-03 0.  1.
         11   -1    0    0    0    0 -0.00000000000E+00 -0.00000000000E+00 -0.45593999997E+02  0.45594000000E+02  0.51100000000E-03 0. -1.
    9900012    2    1    2    0    0 -0.26513635268E+02  0.28390859170E+02  0.12006317278E+02  0.50528863338E+02  0.30000010602E+02 0.  0.
         12    1    1    2    0    0  0.26513635268E+02 -0.28390859170E+02 -0.12006317278E+02  0.40659136662E+02  0.00000000000E+00 0. -1.
         11    1    3    3    0    0 -0.15552310696E+02  0.49541656075E+01 -0.13351420817E+01  0.16376835149E+02  0.51100000000E-03 0. -1.
        -11    1    3    3    0    0  0.30549003064E+01  0.12062755228E+02  0.14297800126E+01  0.12525444133E+02  0.51100000000E-03 0.  1.
        -12    1    3    3    0    0 -0.14016224879E+02  0.11373938334E+02  0.11911679347E+02  0.21626584057E+02  0.00000000000E+00 0.  1.
</event>
<event>
 7    1  0.3041451E-011  0.5052886E+02  0.7816164E-02  0.1300439E+00
        -11   -1    0    0    0    0  0.00000000000E+00  0.00000000000E+00  0.45593999997E+02  0.45594000000E+02  0.51100000000E-03 0. -1.
         11   -1    0    0    0    0 -0.00000000000E+00 -0.00000000000E+00 -0.45593999997E+02  0.45594000000E+02  0.51100000000E-03 0.  1.
    9900012    2    1    2    0    0  0.49968848316E+01 -0.35448178176E+02 -0.19277539489E+02  0.50528859296E+02  0.29999998316E+02 0.  0.
         12    1    1    2    0    0 -0.49968848316E+01  0.35448178176E+02  0.19277539489E+02  0.40659140704E+02  0.00000000000E+00 0. -1.
         11    1    3    3    0    0  0.91140014856E+00  0.41192075345E+00 -0.86873394573E+01  0.87447238976E+01  0.51100000000E-03 0. -1.
        -11    1    3    3    0    0  0.80352927540E+01 -0.26645393095E+02 -0.14053015457E+02  0.31177398007E+02  0.51100000000E-03 0.  1.
        -12    1    3    3    0    0 -0.39498080709E+01 -0.92147058348E+01  0.34628154247E+01  0.10606737391E+02  0.00000000000E+00 0.  1.
</event>
<event>
 7    1  0.3041451E-011  0.5052885E+02  0.7816164E-02  0.1300439E+00
        -11   -1    0    0    0    0  0.00000000000E+00  0.00000000000E+00  0.45593999997E+02  0.45594000000E+02  0.51100000000E-03 0.  1.
         11   -1    0    0    0    0 -0.00000000000E+00 -0.00000000000E+00 -0.45593999997E+02  0.45594000000E+02  0.51100000000E-03 0. -1.
    9900012    2    1    2    0    0  0.75196189615E+01 -0.33035409101E+02  0.22478517557E+02  0.50528847582E+02  0.29999962711E+02 0.  0.
         12    1    1    2    0    0 -0.75196189615E+01  0.33035409101E+02 -0.22478517557E+02  0.40659152418E+02  0.00000000000E+00 0. -1.
         11    1    3    3    0    0 -0.56382584423E+01 -0.59540640455E+00 -0.19547544210E+01  0.59971269919E+01  0.51100000000E-03 0. -1.
        -11    1    3    3    0    0  0.97184893820E+01 -0.87401659246E+01  0.64007115845E+01  0.14553647148E+02  0.51100000000E-03 0.  1.
         12    1    3    3    0    0  0.34393880219E+01 -0.23699836771E+02  0.18032560394E+02  0.29978073442E+02  0.00000000000E+00 0. -1.
</event>
<event>
 7    1  0.3041451E-011  0.5052884E+02  0.7816164E-02  0.1300439E+00
        -11   -1    0    0    0    0  0.00000000000E+00  0.00000000000E+00  0.45593999997E+02  0.45594000000E+02  0.51100000000E-03 0.  1.
         11   -1    0    0    0    0 -0.00000000000E+00 -0.00000000000E+00 -0.45593999997E+02  0.45594000000E+02  0.51100000000E-03 0. -1.
    9900012    2    1    2    0    0 -0.12071011466E+02 -0.26333940949E+02  0.28530368110E+02  0.50528835373E+02  0.29999925599E+02 0.  0.
         12    1    1    2    0    0  0.12071011466E+02  0.26333940949E+02 -0.28530368110E+02  0.40659164627E+02  0.00000000000E+00 0. -1.
         11    1    3    3    0    0 -0.32923819949E+01 -0.40817910313E+01 -0.52585484671E+01  0.74265152976E+01  0.51100000000E-03 0. -1.
        -11    1    3    3    0    0 -0.87928200708E+01 -0.15280667655E+02  0.15301522664E+02  0.23344144552E+02  0.51100000000E-03 0.  1.
         12    1    3    3    0    0  0.14190599979E-01 -0.69714822628E+01  0.18487393912E+02  0.19758175523E+02  0.00000000000E+00 0. -1.
</event>
<event>
 7    1  0.3041451E-011  0.5052884E+02  0.7816164E-02  0.1300439E+00
        -11   -1    0    0    0    0  0.00000000000E+00  0.00000000000E+00  0.45593999997E+02  0.45594000000E+02  0.51100000000E-03 0. -1.
         11   -1    0    0    0    0 -0.00000000000E+00 -0.00000000000E+00 -0.45593999997E+02  0.45594000000E+02  0.51100000000E-03 0.  1.
    9900012    2    1    2    0    0 -0.17154742293E+02  0.34134708803E+02 -0.13917748276E+02  0.50528840573E+02  0.29999941406E+02 0.  0.
         12    1    1    2    0    0  0.17154742293E+02 -0.34134708803E+02  0.13917748276E+02  0.40659159427E+02  0.00000000000E+00 0. -1.
         11    1    3    3    0    0  0.40499580829E+01 -0.19455009041E+01 -0.63059387460E+01  0.77428675547E+01  0.51100000000E-03 0. -1.
        -11    1    3    3    0    0 -0.75009136530E+01  0.14708505529E+02 -0.94695151238E+00  0.16537852277E+02  0.51100000000E-03 0.  1.
         12    1    3    3    0    0 -0.13703786723E+02  0.21371704179E+02 -0.66648580172E+01  0.26248120741E+02  0.00000000000E+00 0. -1.
</event>
<event>
 7    1  0.3041451E-011  0.5052885E+02  0.7816164E-02  0.1300439E+00
        -11   -1    0    0    0    0  0.00000000000E+00  0.00000000000E+00  0.45593999997E+02  0.45594000000E+02  0.51100000000E-03 0.  1.
         11   -1    0    0    0    0 -0.00000000000E+00 -0.00000000000E+00 -0.45593999997E+02  0.45594000000E+02  0.51100000000E-03 0. -1.
    9900012    2    1    2    0    0  0.32087986428E+02 -0.96221391982E+00  0.24951994780E+02  0.50528846391E+02  0.29999959091E+02 0.  0.
         12    1    1    2    0    0 -0.32087986428E+02  0.96221391982E+00 -0.24951994780E+02  0.40659153609E+02  0.00000000000E+00 0. -1.
         11    1    3    3    0    0  0.19900348822E+02  0.10555792140E+02  0.12215415103E+02  0.25625475553E+02  0.51100000000E-03 0.  1.
        -11    1    3    3    0    0  0.26916473218E+01 -0.10784089365E+02  0.35434902316E+01  0.11666099263E+02  0.51100000000E-03 0. -1.
         12    1    3    3    0    0  0.94959902847E+01 -0.73391669537E+00  0.91930894457E+01  0.13237271575E+02  0.00000000000E+00 0. -1.
</event>
<event>
 7    1  0.3041451E-011  0.5052886E+02  0.7816164E-02  0.1300439E+00
        -11   -1    0    0    0    0  0.00000000000E+00  0.00000000000E+00  0.45593999997E+02  0.45594000000E+02  0.51100000000E-03 0.  1.
         11   -1    0    0    0    0 -0.00000000000E+00 -0.00000000000E+00 -0.45593999997E+02  0.45594000000E+02  0.51100000000E-03 0. -1.
    9900012    2    1    2    0    0 -0.27804046735E+02  0.26136888722E+02  0.14034379652E+02  0.50528858603E+02  0.29999996211E+02 0.  0.
         12    1    1    2    0    0  0.27804046735E+02 -0.26136888722E+02 -0.14034379652E+02  0.40659141397E+02  0.00000000000E+00 0. -1.
         11    1    3    3    0    0 -0.90202342416E+01  0.19762614455E+02 -0.28802270941E+01  0.21913951360E+02  0.51100000000E-03 0. -1.
        -11    1    3    3    0    0 -0.17962953046E+02  0.69152281864E+01  0.10113841362E+02  0.21743455346E+02  0.51100000000E-03 0.  1.
         12    1    3    3    0    0 -0.82085944723E+00 -0.54095391922E+00  0.68007653837E+01  0.68714518974E+01  0.00000000000E+00 0. -1.
</event>
<event>
 7    1  0.3041451E-011  0.5052886E+02  0.7816164E-02  0.1300439E+00
        -11   -1    0    0    0    0  0.00000000000E+00  0.00000000000E+00  0.45593999997E+02  0.45594000000E+02  0.51100000000E-03 0. -1.
         11   -1    0    0    0    0 -0.00000000000E+00 -0.00000000000E+00 -0.45593999997E+02  0.45594000000E+02  0.51100000000E-03 0.  1.
    9900012    2    1    2    0    0  0.18300250715E+02  0.19316215283E+02  0.30743298144E+02  0.50528859209E+02  0.29999998051E+02 0.  0.
         12    1    1    2    0    0 -0.18300250715E+02 -0.19316215283E+02 -0.30743298144E+02  0.40659140791E+02  0.00000000000E+00 0. -1.
         11    1    3    3    0    0 -0.17042075441E+01 -0.27021849654E+01  0.67190500560E+00  0.32645954632E+01  0.51100000000E-03 0. -1.
        -11    1    3    3    0    0  0.22700708988E+02  0.18283253615E+02  0.17791511346E+02  0.34148754407E+02  0.51100000000E-03 0.  1.
        -12    1    3    3    0    0 -0.26962507291E+01  0.37351466330E+01  0.12279881792E+02  0.13115509338E+02  0.00000000000E+00 0.  1.
</event>
<event>
 7    1  0.3041451E-011  0.5052886E+02  0.7816164E-02  0.1300439E+00
        -11   -1    0    0    0    0  0.00000000000E+00  0.00000000000E+00  0.45593999997E+02  0.45594000000E+02  0.51100000000E-03 0.  1.
         11   -1    0    0    0    0 -0.00000000000E+00 -0.00000000000E+00 -0.45593999997E+02  0.45594000000E+02  0.51100000000E-03 0. -1.
    9900012    2    1    2    0    0  0.27146100374E+02 -0.11506984147E+02  0.27997223940E+02  0.50528855911E+02  0.29999988027E+02 0.  0.
         12    1    1    2    0    0 -0.27146100374E+02  0.11506984147E+02 -0.27997223940E+02  0.40659144089E+02  0.00000000000E+00 0. -1.
         11    1    3    3    0    0  0.88675972404E+01  0.81906575352E+01  0.17674826351E+02  0.21403752906E+02  0.51100000000E-03 0. -1.
        -11    1    3    3    0    0  0.99180252629E+01 -0.10516543066E+02  0.79008070474E+01  0.16473847621E+02  0.51100000000E-03 0.  1.
         12    1    3    3    0    0  0.83604778710E+01 -0.91810986165E+01  0.24215905421E+01  0.12651255384E+02  0.00000000000E+00 0. -1.
</event>
<event>
 7    1  0.3041451E-011  0.5052885E+02  0.7816164E-02  0.1300439E+00
        -11   -1    0    0    0    0  0.00000000000E+00  0.00000000000E+00  0.45593999997E+02  0.45594000000E+02  0.51100000000E-03 0.  1.
         11   -1    0    0    0    0 -0.00000000000E+00 -0.00000000000E+00 -0.45593999997E+02  0.45594000000E+02  0.51100000000E-03 0. -1.
    9900012    2    1    2    0    0 -0.64883021261E+01 -0.32125123214E+02  0.24063353192E+02  0.50528848842E+02  0.29999966541E+02 0.  0.
         12    1    1    2    0    0  0.64883021261E+01  0.32125123214E+02 -0.24063353192E+02  0.40659151158E+02  0.00000000000E+00 0. -1.
         11    1    3    3    0    0 -0.40884586258E+01 -0.21719938329E+02 -0.65875067541E+00  0.22111200050E+02  0.51100000000E-03 0. -1.
        -11    1    3    3    0    0 -0.42112623490E+01 -0.11216162752E+02  0.20322661402E+02  0.23591261183E+02  0.51100000000E-03 0.  1.
         12    1    3    3    0    0  0.18114188487E+01  0.81097786739E+00  0.43994424654E+01  0.48263876091E+01  0.00000000000E+00 0. -1.
</event>
<event>
 7    1  0.3041451E-011  0.5052885E+02  0.7816164E-02  0.1300439E+00
        -11   -1    0    0    0    0  0.00000000000E+00  0.00000000000E+00  0.45593999997E+02  0.45594000000E+02  0.51100000000E-03 0.  1.
         11   -1    0    0    0    0 -0.00000000000E+00 -0.00000000000E+00 -0.45593999997E+02  0.45594000000E+02  0.51100000000E-03 0. -1.
    9900012    2    1    2    0    0 -0.95409001096E+01 -0.31800360825E+01  0.39395744342E+02  0.50528854945E+02  0.29999985090E+02 0.  0.
         12    1    1    2    0    0  0.95409001096E+01  0.31800360825E+01 -0.39395744342E+02  0.40659145055E+02  0.00000000000E+00 0. -1.
         11    1    3    3    0    0 -0.16367520243E+02 -0.47440227515E-01  0.10628156536E+02  0.19515524106E+02  0.51100000000E-03 0. -1.
        -11    1    3    3    0    0  0.77108507207E+01 -0.46676848239E+01  0.18327977059E+02  0.20424476586E+02  0.51100000000E-03 0.  1.
         12    1    3    3    0    0 -0.88423058680E+00  0.15350889689E+01  0.10439610746E+02  0.10588854253E+02  0.00000000000E+00 0. -1.
</event>
<event>
 7    1  0.3041451E-011  0.5052886E+02  0.7816164E-02  0.1300439E+00
        -11   -1    0    0    0    0  0.00000000000E+00  0.00000000000E+00  0.45593999997E+02  0.45594000000E+02  0.51100000000E-03 0.  1.
         11   -1    0    0    0    0 -0.00000000000E+00 -0.00000000000E+00 -0.45593999997E+02  0.45594000000E+02  0.51100000000E-03 0. -1.
    9900012    2    1    2    0    0  0.38204118428E+02  0.13723016019E+02  0.23000333543E+01  0.50528856047E+02  0.29999988441E+02 0.  0.
         12    1    1    2    0    0 -0.38204118428E+02 -0.13723016019E+02 -0.23000333543E+01  0.40659143953E+02  0.00000000000E+00 0. -1.
         11    1    3    3    0    0  0.11287401834E+02  0.49174523381E+01 -0.61843840117E+01  0.13778003612E+02  0.51100000000E-03 0. -1.
        -11    1    3    3    0    0  0.20977874122E+02 -0.12435349611E+01  0.12446420393E+02  0.24423983351E+02  0.51100000000E-03 0.  1.
        -12    1    3    3    0    0  0.59388424723E+01  0.10049098642E+02 -0.39620030270E+01  0.12326869084E+02  0.00000000000E+00 0.  1.
</event>
<event>
 7    1  0.3041451E-011  0.5052887E+02  0.7816164E-02  0.1300439E+00
        -11   -1    0    0    0    0  0.00000000000E+00  0.00000000000E+00  0.45593999997E+02  0.45594000000E+02  0.51100000000E-03 0.  1.
         11   -1    0    0    0    0 -0.00000000000E+00 -0.00000000000E+00 -0.45593999997E+02  0.45594000000E+02  0.51100000000E-03 0. -1.
    9900012    2    1    2    0    0 -0.13196186331E+01 -0.36730249429E+02  0.17387135095E+02  0.50528867160E+02  0.30000022220E+02 0.  0.
         12    1    1    2    0    0  0.13196186331E+01  0.36730249429E+02 -0.17387135095E+02  0.40659132840E+02  0.00000000000E+00 0. -1.
         11    1    3    3    0    0 -0.15480496198E+01 -0.24339632306E+00 -0.47364994709E+01  0.49890005908E+01  0.51100000000E-03 0. -1.
        -11    1    3    3    0    0 -0.27128970688E+01 -0.36751138574E+02  0.20542782132E+02  0.42190187188E+02  0.51100000000E-03 0.  1.
        -12    1    3    3    0    0  0.29413280555E+01  0.26428546788E+00  0.15808524340E+01  0.33496793812E+01  0.00000000000E+00 0.  1.
</event>
<event>
 7    1  0.3041451E-011  0.5052890E+02  0.7816164E-02  0.1300439E+00
        -11   -1    0    0    0    0  0.00000000000E+00  0.00000000000E+00  0.45593999997E+02  0.45594000000E+02  0.51100000000E-03 0.  1.
         11   -1    0    0    0    0 -0.00000000000E+00 -0.00000000000E+00 -0.45593999997E+02  0.45594000000E+02  0.51100000000E-03 0. -1.
    9900012    2    1    2    0    0  0.17014403075E+02 -0.13975257643E+02  0.34181347407E+02  0.50528902017E+02  0.30000128172E+02 0.  0.
         12    1    1    2    0    0 -0.17014403075E+02  0.13975257643E+02 -0.34181347407E+02  0.40659097983E+02  0.00000000000E+00 0. -1.
         11    1    3    3    0    0  0.99390988374E+01 -0.38658782363E+01 -0.40206425662E+00  0.10672036177E+02  0.51100000000E-03 0. -1.
        -11    1    3    3    0    0  0.14487150388E+01  0.35586031771E+01  0.13990431598E+02  0.14508432321E+02  0.51100000000E-03 0.  1.
        -12    1    3    3    0    0  0.56265891987E+01 -0.13667982583E+02  0.20592980066E+02  0.25348433520E+02  0.00000000000E+00 0.  1.
</event>
<event>
 7    1  0.3041451E-011  0.5052885E+02  0.7816164E-02  0.1300439E+00
        -11   -1    0    0    0    0  0.00000000000E+00  0.00000000000E+00  0.45593999997E+02  0.45594000000E+02  0.51100000000E-03 0.  1.
         11   -1    0    0    0    0 -0.00000000000E+00 -0.00000000000E+00 -0.45593999997E+02  0.45594000000E+02  0.51100000000E-03 0. -1.
    9900012    2    1    2    0    0 -0.38143403935E+02  0.74399013320E+01  0.11953862642E+02  0.50528853088E+02  0.29999979447E+02 0.  0.
         12    1    1    2    0    0  0.38143403935E+02 -0.74399013320E+01 -0.11953862642E+02  0.40659146912E+02  0.00000000000E+00 0. -1.
         11    1    3    3    0    0  0.41239554789E+01  0.34379490758E+01  0.47173102673E+01  0.71469937077E+01  0.51100000000E-03 0. -1.
        -11    1    3    3    0    0 -0.21711961803E+02  0.46552170995E+00  0.15975513643E+01  0.21775632400E+02  0.51100000000E-03 0.  1.
         12    1    3    3    0    0 -0.20555397610E+02  0.35364305463E+01  0.56390010103E+01  0.21606226980E+02  0.00000000000E+00 0. -1.
</event>
<event>
 7    1  0.3041451E-011  0.5052883E+02  0.7816164E-02  0.1300439E+00
        -11   -1    0    0    0    0  0.00000000000E+00  0.00000000000E+00  0.45593999997E+02  0.45594000000E+02  0.51100000000E-03 0. -1.
         11   -1    0    0    0    0 -0.00000000000E+00 -0.00000000000E+00 -0.45593999997E+02  0.45594000000E+02  0.51100000000E-03 0.  1.
    9900012    2    1    2    0    0  0.38665676692E+02  0.12424334021E+02  0.19414130027E+01  0.50528834805E+02  0.29999923872E+02 0.  0.
         12    1    1    2    0    0 -0.38665676692E+02 -0.12424334021E+02 -0.19414130027E+01  0.40659165195E+02  0.00000000000E+00 0. -1.
         11    1    3    3    0    0 -0.21408263629E+01 -0.20980393986E+01  0.16928708986E+01  0.34424873239E+01  0.51100000000E-03 0. -1.
        -11    1    3    3    0    0  0.28689042028E+02  0.13773581139E+02  0.78297546494E+01  0.32773125088E+02  0.51100000000E-03 0.  1.
        -12    1    3    3    0    0  0.12117461027E+02  0.74879228077E+00 -0.75812125453E+01  0.14313222393E+02  0.00000000000E+00 0.  1.
</event>
<event>
 7    1  0.3041451E-011  0.5052886E+02  0.7816164E-02  0.1300439E+00
        -11   -1    0    0    0    0  0.00000000000E+00  0.00000000000E+00  0.45593999997E+02  0.45594000000E+02  0.51100000000E-03 0. -1.
         11   -1    0    0    0    0 -0.00000000000E+00 -0.00000000000E+00 -0.45593999997E+02  0.45594000000E+02  0.51100000000E-03 0.  1.
    9900012    2    1    2    0    0 -0.27826383148E+02  0.26867205832E+02  0.12530402050E+02  0.50528864201E+02  0.30000013227E+02 0.  0.
         12    1    1    2    0    0  0.27826383148E+02 -0.26867205832E+02 -0.12530402050E+02  0.40659135799E+02  0.00000000000E+00 0. -1.
         11    1    3    3    0    0 -0.63149564258E+01  0.77774233726E+01  0.10215642090E+02  0.14308260990E+02  0.51100000000E-03 0. -1.
        -11    1    3    3    0    0 -0.21479640312E+02  0.21396791554E+02 -0.29608775994E+01  0.30462508649E+02  0.51100000000E-03 0.  1.
        -12    1    3    3    0    0 -0.31786410364E-01 -0.23070090945E+01  0.52756375597E+01  0.57580945632E+01  0.00000000000E+00 0.  1.
</event>
<event>
 7    1  0.3041451E-011  0.5052888E+02  0.7816164E-02  0.1300439E+00
        -11   -1    0    0    0    0  0.00000000000E+00  0.00000000000E+00  0.45593999997E+02  0.45594000000E+02  0.51100000000E-03 0.  1.
         11   -1    0    0    0    0 -0.00000000000E+00 -0.00000000000E+00 -0.45593999997E+02  0.45594000000E+02  0.51100000000E-03 0. -1.
    9900012    2    1    2    0    0 -0.41278611157E+01  0.88514357080E+01  0.39468681001E+02  0.50528881325E+02  0.30000065274E+02 0.  0.
         12    1    1    2    0    0  0.41278611157E+01 -0.88514357080E+01 -0.39468681001E+02  0.40659118675E+02  0.00000000000E+00 0. -1.
         11    1    3    3    0    0  0.51552766442E+01  0.40402339841E+01  0.13809929638E+01  0.66938411807E+01  0.51100000000E-03 0. -1.
        -11    1    3    3    0    0 -0.12061539136E+02  0.65875779880E+01  0.38136172633E+02  0.40536953184E+02  0.51100000000E-03 0.  1.
        -12    1    3    3    0    0  0.27784013765E+01 -0.17763762641E+01 -0.48484595516E-01  0.32980869602E+01  0.00000000000E+00 0.  1.
</event>
<event>
 7    1  0.3041451E-011  0.5052885E+02  0.7816164E-02  0.1300439E+00
        -11   -1    0    0    0    0  0.00000000000E+00  0.00000000000E+00  0.45593999997E+02  0.45594000000E+02  0.51100000000E-03 0.  1.
         11   -1    0    0    0    0 -0.00000000000E+00 -0.00000000000E+00 -0.45593999997E+02  0.45594000000E+02  0.51100000000E-03 0. -1.
    9900012    2    1    2    0    0 -0.31136875329E+02  0.25003721056E+02 -0.76468990333E+01  0.50528854205E+02  0.29999982842E+02 0.  0.
         12    1    1    2    0    0  0.31136875329E+02 -0.25003721056E+02  0.76468990333E+01  0.40659145795E+02  0.00000000000E+00 0. -1.
         11    1    3    3    0    0 -0.13478908940E+02  0.68439487058E+01 -0.23650559681E+01  0.15300787892E+02  0.51100000000E-03 0. -1.
        -11    1    3    3    0    0  0.55583909831E+01  0.69559345078E+01  0.49700169664E-01  0.89041117225E+01  0.51100000000E-03 0.  1.
        -12    1    3    3    0    0 -0.23216357372E+02  0.11203837843E+02 -0.53315432348E+01  0.26323954591E+02  0.00000000000E+00 0.  1.
</event>
<event>
 7    1  0.3041451E-011  0.5052888E+02  0.7816164E-02  0.1300439E+00
        -11   -1    0    0    0    0  0.00000000000E+00  0.00000000000E+00  0.45593999997E+02  0.45594000000E+02  0.51100000000E-03 0.  1.
         11   -1    0    0    0    0 -0.00000000000E+00 -0.00000000000E+00 -0.45593999997E+02  0.45594000000E+02  0.51100000000E-03 0. -1.
    9900012    2    1    2    0    0  0.22103934740E+02  0.33979843470E+02 -0.31543632955E+01  0.50528884159E+02  0.30000073889E+02 0.  0.
         12    1    1    2    0    0 -0.22103934740E+02 -0.33979843470E+02  0.31543632955E+01  0.40659115841E+02  0.00000000000E+00 0. -1.
         11    1    3    3    0    0  0.33849308776E+01 -0.91115075500E+00 -0.28552788148E+01  0.45211248728E+01  0.51100000000E-03 0. -1.
        -11    1    3    3    0    0  0.23657215895E+02  0.30056302797E+02 -0.34646740436E+01  0.38406368850E+02  0.51100000000E-03 0.  1.
        -12    1    3    3    0    0 -0.49382120332E+01  0.48346914279E+01  0.31655895628E+01  0.76013904365E+01  0.00000000000E+00 0.  1.
</event>
<event>
 7    1  0.3041451E-011  0.5052889E+02  0.7816164E-02  0.1300439E+00
        -11   -1    0    0    0    0  0.00000000000E+00  0.00000000000E+00  0.45593999997E+02  0.45594000000E+02  0.51100000000E-03 0.  1.
         11   -1    0    0    0    0 -0.00000000000E+00 -0.00000000000E+00 -0.45593999997E+02  0.45594000000E+02  0.51100000000E-03 0. -1.
    9900012    2    1    2    0    0  0.21701768037E+02  0.26207608259E+02  0.22256636933E+02  0.50528888424E+02  0.30000086853E+02 0.  0.
         12    1    1    2    0    0 -0.21701768037E+02 -0.26207608259E+02 -0.22256636933E+02  0.40659111576E+02  0.00000000000E+00 0. -1.
         11    1    3    3    0    0  0.13562878877E+01 -0.24345463670E+01  0.17197660887E+01  0.32747715200E+01  0.51100000000E-03 0. -1.
        -11    1    3    3    0    0  0.33890260375E-01  0.16280545802E+02  0.71198346228E+00  0.16296141901E+02  0.51100000000E-03 0.  1.
        -12    1    3    3    0    0  0.20311589889E+02  0.12361608824E+02  0.19824887382E+02  0.30957975003E+02  0.00000000000E+00 0.  1.
</event>
<event>
 7    1  0.3041451E-011  0.5052883E+02  0.7816164E-02  0.1300439E+00
        -11   -1    0    0    0    0  0.00000000000E+00  0.00000000000E+00  0.45593999997E+02  0.45594000000E+02  0.51100000000E-03 0. -1.
         11   -1    0    0    0    0 -0.00000000000E+00 -0.00000000000E+00 -0.45593999997E+02  0.45594000000E+02  0.51100000000E-03 0.  1.
    9900012    2    1    2    0    0 -0.19584513433E+00 -0.36012685572E+02 -0.18873699051E+02  0.50528826456E+02  0.29999898496E+02 0.  0.
         12    1    1    2    0    0  0.19584513433E+00  0.36012685572E+02  0.18873699051E+02  0.40659173544E+02  0.00000000000E+00 0. -1.
         11    1    3    3    0    0 -0.48666676958E+00 -0.60831673769E+01  0.57674970235E+01  0.83967727167E+01  0.51100000000E-03 0. -1.
        -11    1    3    3    0    0  0.12266057769E+01 -0.28340343722E+02 -0.14563333538E+02  0.31886836281E+02  0.51100000000E-03 0.  1.
        -12    1    3    3    0    0 -0.93578414168E+00 -0.15891744725E+01 -0.10077862536E+02  0.10245217458E+02  0.00000000000E+00 0.  1.
</event>
<event>
 7    1  0.3041451E-011  0.5052883E+02  0.7816164E-02  0.1300439E+00
        -11   -1    0    0    0    0  0.00000000000E+00  0.00000000000E+00  0.45593999997E+02  0.45594000000E+02  0.51100000000E-03 0.  1.
         11   -1    0    0    0    0 -0.00000000000E+00 -0.00000000000E+00 -0.45593999997E+02  0.45594000000E+02  0.51100000000E-03 0. -1.
    9900012    2    1    2    0    0 -0.17553845924E+01 -0.40570015550E+02 -0.20397278959E+01  0.50528830964E+02  0.29999912198E+02 0.  0.
         12    1    1    2    0    0  0.17553845924E+01  0.40570015550E+02  0.20397278959E+01  0.40659169036E+02  0.00000000000E+00 0. -1.
         11    1    3    3    0    0  0.63937757269E+01 -0.13234440474E+02  0.12106185528E+01  0.14747758482E+02  0.51100000000E-03 0.  1.
        -11    1    3    3    0    0 -0.11843844298E+02 -0.48448728834E+01 -0.20279726890E+01  0.12956161257E+02  0.51100000000E-03 0. -1.
         12    1    3    3    0    0  0.36946839790E+01 -0.22490702193E+02 -0.12223737596E+01  0.22824911225E+02  0.00000000000E+00 0. -1.
</event>
<event>
 7    1  0.3041451E-011  0.5052886E+02  0.7816164E-02  0.1300439E+00
        -11   -1    0    0    0    0  0.00000000000E+00  0.00000000000E+00  0.45593999997E+02  0.45594000000E+02  0.51100000000E-03 0. -1.
         11   -1    0    0    0    0 -0.00000000000E+00 -0.00000000000E+00 -0.45593999997E+02  0.45594000000E+02  0.51100000000E-03 0.  1.
    9900012    2    1    2    0    0 -0.28412035990E+02 -0.10396846534E+02 -0.27162973830E+02  0.50528863829E+02  0.30000012093E+02 0.  0.
         12    1    1    2    0    0  0.28412035990E+02  0.10396846534E+02  0.27162973830E+02  0.40659136171E+02  0.00000000000E+00 0. -1.
         11    1    3    3    0    0 -0.73398641398E+01  0.66615822559E+01  0.94435996670E+00  0.99570125916E+01  0.51100000000E-03 0. -1.
        -11    1    3    3    0    0 -0.11083591892E+02 -0.21395421213E+01 -0.11511034960E+02  0.16122269562E+02  0.51100000000E-03 0.  1.
         12    1    3    3    0    0 -0.99885799577E+01 -0.14918886669E+02 -0.16596298837E+02  0.24449581675E+02  0.00000000000E+00 0. -1.
</event>
<event>
 7    1  0.3041451E-011  0.5052888E+02  0.7816164E-02  0.1300439E+00
        -11   -1    0    0    0    0  0.00000000000E+00  0.00000000000E+00  0.45593999997E+02  0.45594000000E+02  0.51100000000E-03 0. -1.
         11   -1    0    0    0    0 -0.00000000000E+00 -0.00000000000E+00 -0.45593999997E+02  0.45594000000E+02  0.51100000000E-03 0.  1.
    9900012    2    1    2    0    0 -0.38970590869E+02  0.11534130698E+02  0.11921279507E+01  0.50528876883E+02  0.30000051773E+02 0.  0.
         12    1    1    2    0    0  0.38970590869E+02 -0.11534130698E+02 -0.11921279507E+01  0.40659123117E+02  0.00000000000E+00 0. -1.
         11    1    3    3    0    0  0.39397343412E+00 -0.20963904945E+01  0.56599482683E+01  0.60485603934E+01  0.51100000000E-03 0. -1.
        -11    1    3    3    0    0 -0.19158149198E+02  0.14150025293E+02 -0.46477326990E+01  0.24266423634E+02  0.51100000000E-03 0.  1.
        -12    1    3    3    0    0 -0.20206415105E+02 -0.51950410011E+00  0.17991238134E+00  0.20213892855E+02  0.00000000000E+00 0.  1.
</event>
<event>
 7    1  0.3041451E-011  0.5052886E+02  0.7816164E-02  0.1300439E+00
        -11   -1    0    0    0    0  0.00000000000E+00  0.00000000000E+00  0.45593999997E+02  0.45594000000E+02  0.51100000000E-03 0.  1.
         11   -1    0    0    0    0 -0.00000000000E+00 -0.00000000000E+00 -0.45593999997E+02  0.45594000000E+02  0.51100000000E-03 0. -1.
    9900012    2    1    2    0    0 -0.11223836632E+02  0.29098959945E+02  0.26085273246E+02  0.50528862541E+02  0.30000008179E+02 0.  0.
         12    1    1    2    0    0  0.11223836632E+02 -0.29098959945E+02 -0.26085273246E+02  0.40659137459E+02  0.00000000000E+00 0. -1.
         11    1    3    3    0    0 -0.11036731270E+01 -0.15517108641E+01  0.43760689159E+01  0.47724082385E+01  0.51100000000E-03 0. -1.
        -11    1    3    3    0    0 -0.13749987252E+02  0.18470317579E+02  0.31187348138E+01  0.23236636762E+02  0.51100000000E-03 0.  1.
        -12    1    3    3    0    0  0.36298237470E+01  0.12180353230E+02  0.18590469516E+02  0.22519817541E+02  0.00000000000E+00 0.  1.
</event>
<event>
 7    1  0.3041451E-011  0.5052885E+02  0.7816164E-02  0.1300439E+00
        -11   -1    0    0    0    0  0.00000000000E+00  0.00000000000E+00  0.45593999997E+02  0.45594000000E+02  0.51100000000E-03 0. -1.
         11   -1    0    0    0    0 -0.00000000000E+00 -0.00000000000E+00 -0.45593999997E+02  0.45594000000E+02  0.51100000000E-03 0.  1.
    9900012    2    1    2    0    0  0.37047945067E+02 -0.13462428639E+02  0.99688978114E+01  0.50528854139E+02  0.29999982642E+02 0.  0.
         12    1    1    2    0    0 -0.37047945067E+02  0.13462428639E+02 -0.99688978114E+01  0.40659145861E+02  0.00000000000E+00 0. -1.
         11    1    3    3    0    0  0.45563564603E+01  0.44862470276E+01 -0.21166233416E+01  0.67354948754E+01  0.51100000000E-03 0. -1.
        -11    1    3    3    0    0  0.21066002635E+02 -0.19084690557E+02  0.14723584347E+02  0.32012276035E+02  0.51100000000E-03 0.  1.
        -12    1    3    3    0    0  0.11425585972E+02  0.11360148909E+01 -0.26380631937E+01  0.11781083229E+02  0.00000000000E+00 0.  1.
</event>
<event>
 7    1  0.3041451E-011  0.5052886E+02  0.7816164E-02  0.1300439E+00
        -11   -1    0    0    0    0  0.00000000000E+00  0.00000000000E+00  0.45593999997E+02  0.45594000000E+02  0.51100000000E-03 0.  1.
         11   -1    0    0    0    0 -0.00000000000E+00 -0.00000000000E+00 -0.45593999997E+02  0.45594000000E+02  0.51100000000E-03 0. -1.
    9900012    2    1    2    0    0  0.24109523530E+02 -0.22376053351E+02  0.23899972765E+02  0.50528860971E+02  0.30000003407E+02 0.  0.
         12    1    1    2    0    0 -0.24109523530E+02  0.22376053351E+02 -0.23899972765E+02  0.40659139029E+02  0.00000000000E+00 0. -1.
         11    1    3    3    0    0  0.14370459919E+02  0.10450423217E+01  0.37574851266E+01  0.14890296387E+02  0.51100000000E-03 0. -1.
        -11    1    3    3    0    0 -0.25273804999E+01 -0.49358282336E+01  0.95761869462E+01  0.11065866854E+02  0.51100000000E-03 0.  1.
         12    1    3    3    0    0  0.12266444111E+02 -0.18485267439E+02  0.10566300692E+02  0.24572697730E+02  0.00000000000E+00 0. -1.
</event>
<event>
 7    1  0.3041451E-011  0.5052884E+02  0.7816164E-02  0.1300439E+00
        -11   -1    0    0    0    0  0.00000000000E+00  0.00000000000E+00  0.45593999997E+02  0.45594000000E+02  0.51100000000E-03 0. -1.
         11   -1    0    0    0    0 -0.00000000000E+00 -0.00000000000E+00 -0.45593999997E+02  0.45594000000E+02  0.51100000000E-03 0.  1.
    9900012    2    1    2    0    0  0.18226274443E+02  0.18626732331E+02 -0.31209213124E+02  0.50528840869E+02  0.29999942306E+02 0.  0.
         12    1    1    2    0    0 -0.18226274443E+02 -0.18626732331E+02  0.31209213124E+02  0.40659159131E+02  0.00000000000E+00 0. -1.
         11    1    3    3    0    0  0.33151424873E+01 -0.14660772408E+01 -0.31369397055E+00  0.36384002467E+01  0.51100000000E-03 0. -1.
        -11    1    3    3    0    0 -0.63790787734E+01  0.73379140721E+01 -0.13266333143E+02  0.16447894219E+02  0.51100000000E-03 0.  1.
        -12    1    3    3    0    0  0.21290210729E+02  0.12754895500E+02 -0.17629186011E+02  0.30442546403E+02  0.00000000000E+00 0.  1.
</event>
<event>
 7    1  0.3041451E-011  0.5052886E+02  0.7816164E-02  0.1300439E+00
        -11   -1    0    0    0    0  0.00000000000E+00  0.00000000000E+00  0.45593999997E+02  0.45594000000E+02  0.51100000000E-03 0. -1.
         11   -1    0    0    0    0 -0.00000000000E+00 -0.00000000000E+00 -0.45593999997E+02  0.45594000000E+02  0.51100000000E-03 0.  1.
    9900012    2    1    2    0    0  0.31590965958E+02 -0.85298652475E+01 -0.24133335260E+02  0.50528860781E+02  0.30000002829E+02 0.  0.
         12    1    1    2    0    0 -0.31590965958E+02  0.85298652475E+01  0.24133335260E+02  0.40659139219E+02  0.00000000000E+00 0. -1.
         11    1    3    3    0    0 -0.18792062751E+01  0.41853624118E+00  0.41884321653E+01  0.46097237524E+01  0.51100000000E-03 0. -1.
        -11    1    3    3    0    0  0.10716008183E+02 -0.74678136384E+01 -0.76223629063E+01  0.15122879635E+02  0.51100000000E-03 0.  1.
         12    1    3    3    0    0  0.22754164050E+02 -0.14805878503E+01 -0.20699404519E+02  0.30796257393E+02  0.00000000000E+00 0. -1.
</event>
<event>
 7    1  0.3041451E-011  0.5052886E+02  0.7816164E-02  0.1300439E+00
        -11   -1    0    0    0    0  0.00000000000E+00  0.00000000000E+00  0.45593999997E+02  0.45594000000E+02  0.51100000000E-03 0.  1.
         11   -1    0    0    0    0 -0.00000000000E+00 -0.00000000000E+00 -0.45593999997E+02  0.45594000000E+02  0.51100000000E-03 0. -1.
    9900012    2    1    2    0    0 -0.32434541406E+02 -0.21715471332E+01  0.24422336881E+02  0.50528860413E+02  0.30000001712E+02 0.  0.
         12    1    1    2    0    0  0.32434541406E+02  0.21715471332E+01 -0.24422336881E+02  0.40659139587E+02  0.00000000000E+00 0. -1.
         11    1    3    3    0    0 -0.23907209917E+02  0.96501164821E+01  0.14937565955E+02  0.29796145909E+02  0.51100000000E-03 0.  1.
        -11    1    3    3    0    0 -0.10663736200E+02 -0.89234254137E+01  0.99557920691E+01  0.17101479084E+02  0.51100000000E-03 0. -1.
         12    1    3    3    0    0  0.21364047106E+01 -0.28982382016E+01 -0.47102114334E+00  0.36312354204E+01  0.00000000000E+00 0. -1.
</event>
<event>
 7    1  0.3041451E-011  0.5052887E+02  0.7816164E-02  0.1300439E+00
        -11   -1    0    0    0    0  0.00000000000E+00  0.00000000000E+00  0.45593999997E+02  0.45594000000E+02  0.51100000000E-03 0.  1.
         11   -1    0    0    0    0 -0.00000000000E+00 -0.00000000000E+00 -0.45593999997E+02  0.45594000000E+02  0.51100000000E-03 0. -1.
    9900012    2    1    2    0    0 -0.13990381268E+02 -0.14930035081E+00  0.38176058179E+02  0.50528874620E+02  0.30000044895E+02 0.  0.
         12    1    1    2    0    0  0.13990381268E+02  0.14930035081E+00 -0.38176058179E+02  0.40659125380E+02  0.00000000000E+00 0. -1.
         11    1    3    3    0    0 -0.13240775332E+02 -0.10131360792E+01  0.60387374184E+01  0.14588040512E+02  0.51100000000E-03 0. -1.
        -11    1    3    3    0    0 -0.26508220924E+01 -0.31465823474E+01  0.31115678351E+02  0.31386514265E+02  0.51100000000E-03 0.  1.
         12    1    3    3    0    0  0.19012161569E+01  0.40104180757E+01  0.10216424095E+01  0.45543198428E+01  0.00000000000E+00 0. -1.
</event>
<event>
 7    1  0.3041451E-011  0.5052886E+02  0.7816164E-02  0.1300439E+00
        -11   -1    0    0    0    0  0.00000000000E+00  0.00000000000E+00  0.45593999997E+02  0.45594000000E+02  0.51100000000E-03 0.  1.
         11   -1    0    0    0    0 -0.00000000000E+00 -0.00000000000E+00 -0.45593999997E+02  0.45594000000E+02  0.51100000000E-03 0. -1.
    9900012    2    1    2    0    0 -0.11625520783E+02 -0.17610927880E+02  0.34754399912E+02  0.50528858008E+02  0.29999994402E+02 0.  0.
         12    1    1    2    0    0  0.11625520783E+02  0.17610927880E+02 -0.34754399912E+02  0.40659141992E+02  0.00000000000E+00 0. -1.
         11    1    3    3    0    0 -0.68944719327E+01 -0.57248691607E+01  0.17077502266E+01  0.91227343070E+01  0.51100000000E-03 0. -1.
        -11    1    3    3    0    0 -0.90964655799E+01 -0.12506452839E+02  0.33574944765E+02  0.36965307585E+02  0.51100000000E-03 0.  1.
        -12    1    3    3    0    0  0.43654167293E+01  0.62039411927E+00 -0.52829507958E+00  0.44408161159E+01  0.00000000000E+00 0.  1.
</event>
<event>
 7    1  0.3041451E-011  0.5052886E+02  0.7816164E-02  0.1300439E+00
        -11   -1    0    0    0    0  0.00000000000E+00  0.00000000000E+00  0.45593999997E+02  0.45594000000E+02  0.51100000000E-03 0. -1.
         11   -1    0    0    0    0 -0.00000000000E+00 -0.00000000000E+00 -0.45593999997E+02  0.45594000000E+02  0.51100000000E-03 0.  1.
    9900012    2    1    2    0    0 -0.39609455117E+02 -0.61071815938E+01 -0.68526398659E+01  0.50528864805E+02  0.30000015062E+02 0.  0.
         12    1    1    2    0    0  0.39609455117E+02  0.61071815938E+01  0.68526398659E+01  0.40659135195E+02  0.00000000000E+00 0. -1.
         11    1    3    3    0    0 -0.62419940671E+01  0.10462629761E+01  0.60312645758E+01  0.87426145285E+01  0.51100000000E-03 0. -1.
        -11    1    3    3    0    0 -0.19044557452E+02 -0.10133422815E+02 -0.15962489347E+02  0.26836216069E+02  0.51100000000E-03 0.  1.
        -12    1    3    3    0    0 -0.14322903597E+02  0.29799782448E+01  0.30785849051E+01  0.14950034208E+02  0.00000000000E+00 0.  1.
</event>
<event>
 7    1  0.3041451E-011  0.5052886E+02  0.7816164E-02  0.1300439E+00
        -11   -1    0    0    0    0  0.00000000000E+00  0.00000000000E+00  0.45593999997E+02  0.45594000000E+02  0.51100000000E-03 0.  1.
         11   -1    0    0    0    0 -0.00000000000E+00 -0.00000000000E+00 -0.45593999997E+02  0.45594000000E+02  0.51100000000E-03 0. -1.
    9900012    2    1    2    0    0  0.25219933855E+02  0.20044548155E+02  0.24805976831E+02  0.50528862516E+02  0.30000008105E+02 0.  0.
         12    1    1    2    0    0 -0.25219933855E+02 -0.20044548155E+02 -0.24805976831E+02  0.40659137484E+02  0.00000000000E+00 0. -1.
         11    1    3    3    0    0  0.54021445980E+01 -0.65170126927E+01  0.24459040179E+01  0.88111898981E+01  0.51100000000E-03 0. -1.
        -11    1    3    3    0    0  0.12921552224E+02  0.22571780716E+02  0.11987151319E+02  0.28638149269E+02  0.51100000000E-03 0.  1.
         12    1    3    3    0    0  0.68962370326E+01  0.39897801312E+01  0.10372921495E+02  0.13079523349E+02  0.00000000000E+00 0. -1.
</event>
<event>
 7    1  0.3041451E-011  0.5052886E+02  0.7816164E-02  0.1300439E+00
        -11   -1    0    0    0    0  0.00000000000E+00  0.00000000000E+00  0.45593999997E+02  0.45594000000E+02  0.51100000000E-03 0. -1.
         11   -1    0    0    0    0 -0.00000000000E+00 -0.00000000000E+00 -0.45593999997E+02  0.45594000000E+02  0.51100000000E-03 0.  1.
    9900012    2    1    2    0    0 -0.39244816588E+02 -0.59559306800E+01 -0.88054877433E+01  0.50528863835E+02  0.30000012112E+02 0.  0.
         12    1    1    2    0    0  0.39244816588E+02  0.59559306800E+01  0.88054877433E+01  0.40659136165E+02  0.00000000000E+00 0. -1.
         11    1    3    3    0    0 -0.12150481943E+02  0.92573952964E+00 -0.17168773431E+02  0.21053692942E+02  0.51100000000E-03 0. -1.
        -11    1    3    3    0    0 -0.10487188365E+02 -0.84204717446E+00  0.41403378425E+01  0.11306306247E+02  0.51100000000E-03 0.  1.
         12    1    3    3    0    0 -0.16607146281E+02 -0.60396230351E+01  0.42229478452E+01  0.18168864645E+02  0.00000000000E+00 0. -1.
</event>
<event>
 7    1  0.3041451E-011  0.5052886E+02  0.7816164E-02  0.1300439E+00
        -11   -1    0    0    0    0  0.00000000000E+00  0.00000000000E+00  0.45593999997E+02  0.45594000000E+02  0.51100000000E-03 0. -1.
         11   -1    0    0    0    0 -0.00000000000E+00 -0.00000000000E+00 -0.45593999997E+02  0.45594000000E+02  0.51100000000E-03 0.  1.
    9900012    2    1    2    0    0  0.39482917043E+01 -0.33806320411E+02  0.22242066863E+02  0.50528857788E+02  0.29999993731E+02 0.  0.
         12    1    1    2    0    0 -0.39482917043E+01  0.33806320411E+02 -0.22242066863E+02  0.40659142212E+02  0.00000000000E+00 0. -1.
         11    1    3    3    0    0 -0.43833280983E+01 -0.20982644725E+01  0.57457820969E+01  0.75253100388E+01  0.51100000000E-03 0. -1.
        -11    1    3    3    0    0  0.64297332866E+01 -0.29617602603E+02  0.44527239836E+01  0.30632835410E+02  0.51100000000E-03 0.  1.
        -12    1    3    3    0    0  0.19018865159E+01 -0.20904533355E+01  0.12043560782E+02  0.12370712339E+02  0.00000000000E+00 0.  1.
</event>
<event>
 7    1  0.3041451E-011  0.5052889E+02  0.7816164E-02  0.1300439E+00
        -11   -1    0    0    0    0  0.00000000000E+00  0.00000000000E+00  0.45593999997E+02  0.45594000000E+02  0.51100000000E-03 0.  1.
         11   -1    0    0    0    0 -0.00000000000E+00 -0.00000000000E+00 -0.45593999997E+02  0.45594000000E+02  0.51100000000E-03 0. -1.
    9900012    2    1    2    0    0  0.33276078170E+02  0.16778707501E+02  0.16258555433E+02  0.50528892428E+02  0.30000099024E+02 0.  0.
         12    1    1    2    0    0 -0.33276078170E+02 -0.16778707501E+02 -0.16258555433E+02  0.40659107572E+02  0.00000000000E+00 0. -1.
         11    1    3    3    0    0  0.21696863615E+02  0.12004579693E+02  0.13842054224E+02  0.28398350124E+02  0.51100000000E-03 0.  1.
        -11    1    3    3    0    0 -0.27843871692E+01  0.54345373509E+01  0.45220559448E+01  0.75984207804E+01  0.51100000000E-03 0. -1.
        -12    1    3    3    0    0  0.14363601724E+02 -0.66040954271E+00 -0.21055547355E+01  0.14532121524E+02  0.00000000000E+00 0.  1.
</event>
<event>
 7    1  0.3041451E-011  0.5052886E+02  0.7816164E-02  0.1300439E+00
        -11   -1    0    0    0    0  0.00000000000E+00  0.00000000000E+00  0.45593999997E+02  0.45594000000E+02  0.51100000000E-03 0.  1.
         11   -1    0    0    0    0 -0.00000000000E+00 -0.00000000000E+00 -0.45593999997E+02  0.45594000000E+02  0.51100000000E-03 0. -1.
    9900012    2    1    2    0    0 -0.23325495640E+02  0.15094490694E+02  0.29685743383E+02  0.50528858883E+02  0.29999997061E+02 0.  0.
         12    1    1    2    0    0  0.23325495640E+02 -0.15094490694E+02 -0.29685743383E+02  0.40659141117E+02  0.00000000000E+00 0. -1.
         11    1    3    3    0    0 -0.72689472949E+01 -0.68926882434E+01  0.15967085672E+02  0.18849259166E+02  0.51100000000E-03 0. -1.
        -11    1    3    3    0    0 -0.93646198061E+01  0.69868006039E+01  0.84878161522E+01  0.14441416485E+02  0.51100000000E-03 0.  1.
         12    1    3    3    0    0 -0.66919285394E+01  0.15000378333E+02  0.52308415587E+01  0.17238183232E+02  0.00000000000E+00 0. -1.
</event>
<event>
 7    1  0.3041451E-011  0.5052886E+02  0.7816164E-02  0.1300439E+00
        -11   -1    0    0    0    0  0.00000000000E+00  0.00000000000E+00  0.45593999997E+02  0.45594000000E+02  0.51100000000E-03 0.  1.
         11   -1    0    0    0    0 -0.00000000000E+00 -0.00000000000E+00 -0.45593999997E+02  0.45594000000E+02  0.51100000000E-03 0. -1.
    9900012    2    1    2    0    0  0.28344336617E+02 -0.28844921783E+02  0.42112946724E+01  0.50528856702E+02  0.29999990431E+02 0.  0.
         12    1    1    2    0    0 -0.28344336617E+02  0.28844921783E+02 -0.42112946724E+01  0.40659143298E+02  0.00000000000E+00 0. -1.
         11    1    3    3    0    0  0.10660763017E+02  0.95130387066E+00 -0.26016513603E+01  0.11014782668E+02  0.51100000000E-03 0. -1.
        -11    1    3    3    0    0  0.16322893121E+02 -0.31850112584E+02  0.43880571281E+01  0.36057198409E+02  0.51100000000E-03 0.  1.
        -12    1    3    3    0    0  0.13606804791E+01  0.20538869309E+01  0.24248889046E+01  0.34568756256E+01  0.00000000000E+00 0.  1.
</event>
<event>
 7    1  0.3041451E-011  0.5052886E+02  0.7816164E-02  0.1300439E+00
        -11   -1    0    0    0    0  0.00000000000E+00  0.00000000000E+00  0.45593999997E+02  0.45594000000E+02  0.51100000000E-03 0.  1.
         11   -1    0    0    0    0 -0.00000000000E+00 -0.00000000000E+00 -0.45593999997E+02  0.45594000000E+02  0.51100000000E-03 0. -1.
    9900012    2    1    2    0    0 -0.32605631128E+02 -0.19780226555E+02  0.14098978578E+02  0.50528859075E+02  0.29999997645E+02 0.  0.
         12    1    1    2    0    0  0.32605631128E+02  0.19780226555E+02 -0.14098978578E+02  0.40659140925E+02  0.00000000000E+00 0. -1.
         11    1    3    3    0    0  0.14225782729E+01  0.19986811997E+01  0.46425557725E+01  0.52508837202E+01  0.51100000000E-03 0. -1.
        -11    1    3    3    0    0 -0.28666691519E+02 -0.24971223538E+02  0.86154704214E+01  0.38981630783E+02  0.51100000000E-03 0.  1.
        -12    1    3    3    0    0 -0.53615178821E+01  0.31923157838E+01  0.84095238387E+00  0.62963445725E+01  0.00000000000E+00 0.  1.
</event>
<event>
 7    1  0.3041451E-011  0.5052887E+02  0.7816164E-02  0.1300439E+00
        -11   -1    0    0    0    0  0.00000000000E+00  0.00000000000E+00  0.45593999997E+02  0.45594000000E+02  0.51100000000E-03 0. -1.
         11   -1    0    0    0    0 -0.00000000000E+00 -0.00000000000E+00 -0.45593999997E+02  0.45594000000E+02  0.51100000000E-03 0.  1.
    9900012    2    1    2    0    0  0.26516950320E+02  0.17438596034E+02 -0.25414797677E+02  0.50528865395E+02  0.30000016853E+02 0.  0.
         12    1    1    2    0    0 -0.26516950320E+02 -0.17438596034E+02  0.25414797677E+02  0.40659134605E+02  0.00000000000E+00 0. -1.
         11    1    3    3    0    0 -0.42794550384E+01 -0.16237236778E+01 -0.44462668878E+01  0.63811835506E+01  0.51100000000E-03 0. -1.
        -11    1    3    3    0    0  0.31228639779E+02  0.20231479399E+02 -0.18904161542E+02  0.41736171662E+02  0.51100000000E-03 0.  1.
        -12    1    3    3    0    0 -0.43223442122E+00 -0.11691596872E+01 -0.20643692471E+01  0.24115101819E+01  0.00000000000E+00 0.  1.
</event>
<event>
 7    1  0.3041451E-011  0.5052883E+02  0.7816164E-02  0.1300439E+00
        -11   -1    0    0    0    0  0.00000000000E+00  0.00000000000E+00  0.45593999997E+02  0.45594000000E+02  0.51100000000E-03 0. -1.
         11   -1    0    0    0    0 -0.00000000000E+00 -0.00000000000E+00 -0.45593999997E+02  0.45594000000E+02  0.51100000000E-03 0.  1.
    9900012    2    1    2    0    0 -0.35159147974E+02  0.14554564687E+02 -0.14323647329E+02  0.50528832371E+02  0.29999916475E+02 0.  0.
         12    1    1    2    0    0  0.35159147974E+02 -0.14554564687E+02  0.14323647329E+02  0.40659167629E+02  0.00000000000E+00 0. -1.
         11    1    3    3    0    0  0.62489504517E+00 -0.70378423113E+00  0.12786365164E+01  0.15876768134E+01  0.51100000000E-03 0. -1.
        -11    1    3    3    0    0 -0.33812379353E+02  0.37694268216E+01 -0.77713221966E+01  0.34898123517E+02  0.51100000000E-03 0.  1.
        -12    1    3    3    0    0 -0.19716636663E+01  0.11488922096E+02 -0.78309616486E+01  0.14043032040E+02  0.00000000000E+00 0.  1.
</event>
<event>
 7    1  0.3041451E-011  0.5052885E+02  0.7816164E-02  0.1300439E+00
        -11   -1    0    0    0    0  0.00000000000E+00  0.00000000000E+00  0.45593999997E+02  0.45594000000E+02  0.51100000000E-03 0. -1.
         11   -1    0    0    0    0 -0.00000000000E+00 -0.00000000000E+00 -0.45593999997E+02  0.45594000000E+02  0.51100000000E-03 0.  1.
    9900012    2    1    2    0    0  0.31882154870E+02  0.18337088094E+02 -0.17333368220E+02  0.50528852779E+02  0.29999978506E+02 0.  0.
         12    1    1    2    0    0 -0.31882154870E+02 -0.18337088094E+02  0.17333368220E+02  0.40659147221E+02  0.00000000000E+00 0. -1.
         11    1    3    3    0    0  0.49713158480E+01  0.59591202081E+01  0.32986747577E+01  0.84324581430E+01  0.51100000000E-03 0. -1.
        -11    1    3    3    0    0  0.30657161904E+01 -0.38354160295E+01 -0.10398001840E+02  0.11499020584E+02  0.51100000000E-03 0.  1.
        -12    1    3    3    0    0  0.23845122831E+02  0.16213383916E+02 -0.10234041138E+02  0.30597374052E+02  0.00000000000E+00 0.  1.
</event>
<event>
 7    1  0.3041451E-011  0.5052888E+02  0.7816164E-02  0.1300439E+00
        -11   -1    0    0    0    0  0.00000000000E+00  0.00000000000E+00  0.45593999997E+02  0.45594000000E+02  0.51100000000E-03 0.  1.
         11   -1    0    0    0    0 -0.00000000000E+00 -0.00000000000E+00 -0.45593999997E+02  0.45594000000E+02  0.51100000000E-03 0. -1.
    9900012    2    1    2    0    0  0.24402627820E+02  0.14321491870E+02  0.29198814004E+02  0.50528879091E+02  0.30000058484E+02 0.  0.
         12    1    1    2    0    0 -0.24402627820E+02 -0.14321491870E+02 -0.29198814004E+02  0.40659120909E+02  0.00000000000E+00 0. -1.
         11    1    3    3    0    0  0.10258888877E+02 -0.22893549999E+01 -0.24638055902E+01  0.10796123636E+02  0.51100000000E-03 0. -1.
        -11    1    3    3    0    0  0.12092139800E+02  0.17859262765E+02  0.29091524435E+02  0.36214498556E+02  0.51100000000E-03 0.  1.
         12    1    3    3    0    0  0.20515991425E+01 -0.12484158953E+01  0.25710951594E+01  0.35182568991E+01  0.00000000000E+00 0. -1.
</event>
<event>
 7    1  0.3041451E-011  0.5052883E+02  0.7816164E-02  0.1300439E+00
        -11   -1    0    0    0    0  0.00000000000E+00  0.00000000000E+00  0.45593999997E+02  0.45594000000E+02  0.51100000000E-03 0.  1.
         11   -1    0    0    0    0 -0.00000000000E+00 -0.00000000000E+00 -0.45593999997E+02  0.45594000000E+02  0.51100000000E-03 0. -1.
    9900012    2    1    2    0    0 -0.12516165297E+02  0.31455287316E+02  0.22518404063E+02  0.50528831103E+02  0.29999912620E+02 0.  0.
         12    1    1    2    0    0  0.12516165297E+02 -0.31455287316E+02 -0.22518404063E+02  0.40659168897E+02  0.00000000000E+00 0. -1.
         11    1    3    3    0    0  0.52884398000E+01  0.36644559575E+01 -0.36842522982E+01  0.74141451456E+01  0.51100000000E-03 0. -1.
        -11    1    3    3    0    0 -0.15139297397E+02  0.26890788067E+02  0.25894916882E+02  0.40284730720E+02  0.51100000000E-03 0.  1.
         12    1    3    3    0    0 -0.26653076997E+01  0.90004329090E+00  0.30773947892E+00  0.28299552375E+01  0.00000000000E+00 0. -1.
</event>
<event>
 7    1  0.3041451E-011  0.5052885E+02  0.7816164E-02  0.1300439E+00
        -11   -1    0    0    0    0  0.00000000000E+00  0.00000000000E+00  0.45593999997E+02  0.45594000000E+02  0.51100000000E-03 0. -1.
         11   -1    0    0    0    0 -0.00000000000E+00 -0.00000000000E+00 -0.45593999997E+02  0.45594000000E+02  0.51100000000E-03 0.  1.
    9900012    2    1    2    0    0 -0.40766391518E+01 -0.24537601919E+02 -0.32162922630E+02  0.50528849900E+02  0.29999969757E+02 0.  0.
         12    1    1    2    0    0  0.40766391518E+01  0.24537601919E+02  0.32162922630E+02  0.40659150100E+02  0.00000000000E+00 0. -1.
         11    1    3    3    0    0 -0.94310667070E+01 -0.54877163586E+01 -0.18104595149E+02  0.21138505525E+02  0.51100000000E-03 0. -1.
        -11    1    3    3    0    0  0.10037065508E+02 -0.96096589254E+01 -0.32000252984E+01  0.14259326451E+02  0.51100000000E-03 0.  1.
         12    1    3    3    0    0 -0.46826379525E+01 -0.94402266351E+01 -0.10858302183E+02  0.15131017924E+02  0.00000000000E+00 0. -1.
</event>
<event>
 7    1  0.3041451E-011  0.5052886E+02  0.7816164E-02  0.1300439E+00
        -11   -1    0    0    0    0  0.00000000000E+00  0.00000000000E+00  0.45593999997E+02  0.45594000000E+02  0.51100000000E-03 0.  1.
         11   -1    0    0    0    0 -0.00000000000E+00 -0.00000000000E+00 -0.45593999997E+02  0.45594000000E+02  0.51100000000E-03 0. -1.
    9900012    2    1    2    0    0 -0.25635838292E+02 -0.22686128304E+01  0.31477340593E+02  0.50528858594E+02  0.29999996182E+02 0.  0.
         12    1    1    2    0    0  0.25635838292E+02  0.22686128304E+01 -0.31477340593E+02  0.40659141406E+02  0.00000000000E+00 0. -1.
         11    1    3    3    0    0  0.38380506426E+01 -0.74375691314E+01  0.61587796241E+01  0.10391276824E+02  0.51100000000E-03 0. -1.
        -11    1    3    3    0    0 -0.14306395817E+02  0.49146458773E+01  0.17293939015E+02  0.22976227547E+02  0.51100000000E-03 0.  1.
         12    1    3    3    0    0 -0.15167493118E+02  0.25431042369E+00  0.80246219540E+01  0.17161354223E+02  0.00000000000E+00 0. -1.
</event>
<event>
 7    1  0.3041451E-011  0.5052887E+02  0.7816164E-02  0.1300439E+00
        -11   -1    0    0    0    0  0.00000000000E+00  0.00000000000E+00  0.45593999997E+02  0.45594000000E+02  0.51100000000E-03 0.  1.
         11   -1    0    0    0    0 -0.00000000000E+00 -0.00000000000E+00 -0.45593999997E+02  0.45594000000E+02  0.51100000000E-03 0. -1.
    9900012    2    1    2    0    0  0.29980632554E+02  0.60366493097E+01  0.26793381606E+02  0.50528871122E+02  0.30000034263E+02 0.  0.
         12    1    1    2    0    0 -0.29980632554E+02 -0.60366493097E+01 -0.26793381606E+02  0.40659128878E+02  0.00000000000E+00 0. -1.
         11    1    3    3    0    0  0.76303201611E+01  0.65452345019E+01 -0.51102017975E+01  0.11277235615E+02  0.51100000000E-03 0. -1.
        -11    1    3    3    0    0  0.16788306382E+02 -0.46083076176E+00  0.20026051986E+02  0.26136226862E+02  0.51100000000E-03 0.  1.
         12    1    3    3    0    0  0.55620060104E+01 -0.47754430453E-01  0.11877531418E+02  0.13115408645E+02  0.00000000000E+00 0. -1.
</event>
<event>
 7    1  0.3041451E-011  0.5052886E+02  0.7816164E-02  0.1300439E+00
        -11   -1    0    0    0    0  0.00000000000E+00  0.00000000000E+00  0.45593999997E+02  0.45594000000E+02  0.51100000000E-03 0.  1.
         11   -1    0    0    0    0 -0.00000000000E+00 -0.00000000000E+00 -0.45593999997E+02  0.45594000000E+02  0.51100000000E-03 0. -1.
    9900012    2    1    2    0    0  0.11803946624E+02 -0.38907985182E+02  0.28902387253E-01  0.50528864468E+02  0.30000014037E+02 0.  0.
         12    1    1    2    0    0 -0.11803946624E+02  0.38907985182E+02 -0.28902387253E-01  0.40659135532E+02  0.00000000000E+00 0. -1.
         11    1    3    3    0    0 -0.17446848771E+00 -0.47107778549E+01 -0.12426196190E+00  0.47156450829E+01  0.51100000000E-03 0. -1.
        -11    1    3    3    0    0  0.18657930038E+02 -0.32333846922E+02 -0.42911444402E+01  0.37576720598E+02  0.51100000000E-03 0.  1.
        -12    1    3    3    0    0 -0.66795149262E+01 -0.18633604055E+01  0.44443087893E+01  0.82364987868E+01  0.00000000000E+00 0.  1.
</event>
<event>
 7    1  0.3041451E-011  0.5052886E+02  0.7816164E-02  0.1300439E+00
        -11   -1    0    0    0    0  0.00000000000E+00  0.00000000000E+00  0.45593999997E+02  0.45594000000E+02  0.51100000000E-03 0.  1.
         11   -1    0    0    0    0 -0.00000000000E+00 -0.00000000000E+00 -0.45593999997E+02  0.45594000000E+02  0.51100000000E-03 0. -1.
    9900012    2    1    2    0    0  0.24346630240E+02 -0.10675722028E+02  0.30764208328E+02  0.50528856392E+02  0.29999989490E+02 0.  0.
         12    1    1    2    0    0 -0.24346630240E+02  0.10675722028E+02 -0.30764208328E+02  0.40659143608E+02  0.00000000000E+00 0. -1.
         11    1    3    3    0    0 -0.22806718914E+01 -0.10370088599E+02  0.99696458104E+01  0.14564821992E+02  0.51100000000E-03 0. -1.
        -11    1    3    3    0    0  0.26271354956E+02  0.18538126659E+01  0.21110019265E+02  0.33752831382E+02  0.51100000000E-03 0.  1.
        -12    1    3    3    0    0  0.35594717557E+00 -0.21594460948E+01 -0.31545674771E+00  0.22112030182E+01  0.00000000000E+00 0.  1.
</event>
<event>
 7    1  0.3041451E-011  0.5052887E+02  0.7816164E-02  0.1300439E+00
        -11   -1    0    0    0    0  0.00000000000E+00  0.00000000000E+00  0.45593999997E+02  0.45594000000E+02  0.51100000000E-03 0.  1.
         11   -1    0    0    0    0 -0.00000000000E+00 -0.00000000000E+00 -0.45593999997E+02  0.45594000000E+02  0.51100000000E-03 0. -1.
    9900012    2    1    2    0    0  0.23923935333E+02 -0.41532478671E+01  0.32612274203E+02  0.50528873370E+02  0.30000041095E+02 0.  0.
         12    1    1    2    0    0 -0.23923935333E+02  0.41532478671E+01 -0.32612274203E+02  0.40659126630E+02  0.00000000000E+00 0. -1.
         11    1    3    3    0    0  0.91616652248E+01 -0.22314972668E+01  0.43400211898E+01  0.10380340743E+02  0.51100000000E-03 0. -1.
        -11    1    3    3    0    0 -0.70446201139E+00 -0.10696524260E+02  0.10947172787E+02  0.15321634713E+02  0.51100000000E-03 0.  1.
        -12    1    3    3    0    0  0.15466732119E+02  0.87747736599E+01  0.17325080226E+02  0.24826897914E+02  0.00000000000E+00 0.  1.
</event>
<event>
 7    1  0.3041451E-011  0.5052885E+02  0.7816164E-02  0.1300439E+00
        -11   -1    0    0    0    0  0.00000000000E+00  0.00000000000E+00  0.45593999997E+02  0.45594000000E+02  0.51100000000E-03 0.  1.
         11   -1    0    0    0    0 -0.00000000000E+00 -0.00000000000E+00 -0.45593999997E+02  0.45594000000E+02  0.51100000000E-03 0. -1.
    9900012    2    1    2    0    0  0.36563427131E+02 -0.40064243134E+01 -0.17327159182E+02  0.50528854846E+02  0.29999984790E+02 0.  0.
         12    1    1    2    0    0 -0.36563427131E+02  0.40064243134E+01  0.17327159182E+02  0.40659145154E+02  0.00000000000E+00 0. -1.
         11    1    3    3    0    0  0.37803825270E+01  0.81836974163E+01 -0.70448310062E+01  0.11440884565E+02  0.51100000000E-03 0. -1.
        -11    1    3    3    0    0  0.33143444397E+02 -0.91293956931E+01 -0.10636837398E+02  0.35985776111E+02  0.51100000000E-03 0.  1.
        -12    1    3    3    0    0 -0.36039979308E+00 -0.30607260366E+01  0.35450922270E+00  0.31021941704E+01  0.00000000000E+00 0.  1.
</event>
<event>
 7    1  0.3041451E-011  0.5052886E+02  0.7816164E-02  0.1300439E+00
        -11   -1    0    0    0    0  0.00000000000E+00  0.00000000000E+00  0.45593999997E+02  0.45594000000E+02  0.51100000000E-03 0. -1.
         11   -1    0    0    0    0 -0.00000000000E+00 -0.00000000000E+00 -0.45593999997E+02  0.45594000000E+02  0.51100000000E-03 0.  1.
    9900012    2    1    2    0    0 -0.94867413246E+01  0.22743135760E+02 -0.32340648698E+02  0.50528855353E+02  0.29999986332E+02 0.  0.
         12    1    1    2    0    0  0.94867413246E+01 -0.22743135760E+02  0.32340648698E+02  0.40659144647E+02  0.00000000000E+00 0. -1.
         11    1    3    3    0    0 -0.58632150622E+01 -0.46539291460E+01 -0.17393120053E+02  0.18935600672E+02  0.51100000000E-03 0. -1.
        -11    1    3    3    0    0 -0.23136146854E+01  0.10459896209E+02 -0.42938004993E+01  0.11541185581E+02  0.51100000000E-03 0.  1.
         12    1    3    3    0    0 -0.13099115770E+01  0.16937168697E+02 -0.10653728146E+02  0.20052069101E+02  0.00000000000E+00 0. -1.
</event>
<event>
 7    1  0.3041451E-011  0.5052887E+02  0.7816164E-02  0.1300439E+00
        -11   -1    0    0    0    0  0.00000000000E+00  0.00000000000E+00  0.45593999997E+02  0.45594000000E+02  0.51100000000E-03 0.  1.
         11   -1    0    0    0    0 -0.00000000000E+00 -0.00000000000E+00 -0.45593999997E+02  0.45594000000E+02  0.51100000000E-03 0. -1.
    9900012    2    1    2    0    0  0.15968379563E+02 -0.54312749026E+01  0.36995632886E+02  0.50528871313E+02  0.30000034842E+02 0.  0.
         12    1    1    2    0    0 -0.15968379563E+02  0.54312749026E+01 -0.36995632886E+02  0.40659128687E+02  0.00000000000E+00 0. -1.
         11    1    3    3    0    0  0.17426973416E+00 -0.10527567771E+02  0.10433436124E+02  0.14822841925E+02  0.51100000000E-03 0. -1.
        -11    1    3    3    0    0  0.17489450491E+02  0.36355451827E+01  0.27877910419E+02  0.33110058243E+02  0.51100000000E-03 0.  1.
        -12    1    3    3    0    0 -0.16953406613E+01  0.14607476855E+01 -0.13157136570E+01  0.25959711450E+01  0.00000000000E+00 0.  1.
</event>
<event>
 7    1  0.3041451E-011  0.5052886E+02  0.7816164E-02  0.1300439E+00
        -11   -1    0    0    0    0  0.00000000000E+00  0.00000000000E+00  0.45593999997E+02  0.45594000000E+02  0.51100000000E-03 0.  1.
         11   -1    0    0    0    0 -0.00000000000E+00 -0.00000000000E+00 -0.45593999997E+02  0.45594000000E+02  0.51100000000E-03 0. -1.
    9900012    2    1    2    0    0 -0.91105751348E+00 -0.27449053786E+02  0.29981414534E+02  0.50528858384E+02  0.29999995543E+02 0.  0.
         12    1    1    2    0    0  0.91105751348E+00  0.27449053786E+02 -0.29981414534E+02  0.40659141616E+02  0.00000000000E+00 0. -1.
         11    1    3    3    0    0  0.55375593664E+01 -0.14960355473E+00  0.40157065386E+00  0.55541159702E+01  0.51100000000E-03 0. -1.
        -11    1    3    3    0    0 -0.11759988425E+01 -0.27915957512E+02  0.21276192886E+02  0.35119226089E+02  0.51100000000E-03 0.  1.
        -12    1    3    3    0    0 -0.52726180374E+01  0.61650728083E+00  0.83036509940E+01  0.98555163246E+01  0.00000000000E+00 0.  1.
</event>
<event>
 7    1  0.3041451E-011  0.5052886E+02  0.7816164E-02  0.1300439E+00
        -11   -1    0    0    0    0  0.00000000000E+00  0.00000000000E+00  0.45593999997E+02  0.45594000000E+02  0.51100000000E-03 0.  1.
         11   -1    0    0    0    0 -0.00000000000E+00 -0.00000000000E+00 -0.45593999997E+02  0.45594000000E+02  0.51100000000E-03 0. -1.
    9900012    2    1    2    0    0 -0.70195507412E+01 -0.23310371604E+02  0.32565599187E+02  0.50528858748E+02  0.29999996651E+02 0.  0.
         12    1    1    2    0    0  0.70195507412E+01  0.23310371604E+02 -0.32565599187E+02  0.40659141252E+02  0.00000000000E+00 0. -1.
         11    1    3    3    0    0  0.44549888267E+01  0.39643015247E+00  0.86939048198E+01  0.97769148298E+01  0.51100000000E-03 0. -1.
        -11    1    3    3    0    0 -0.95521852121E+01 -0.26579737158E+02  0.16754276162E+02  0.32839495119E+02  0.51100000000E-03 0.  1.
        -12    1    3    3    0    0 -0.19223543558E+01  0.28729354019E+01  0.71174182051E+01  0.79124487991E+01  0.00000000000E+00 0.  1.
</event>
<event>
 7    1  0.3041451E-011  0.5052885E+02  0.7816164E-02  0.1300439E+00
        -11   -1    0    0    0    0  0.00000000000E+00  0.00000000000E+00  0.45593999997E+02  0.45594000000E+02  0.51100000000E-03 0.  1.
         11   -1    0    0    0    0 -0.00000000000E+00 -0.00000000000E+00 -0.45593999997E+02  0.45594000000E+02  0.51100000000E-03 0. -1.
    9900012    2    1    2    0    0 -0.25471779082E+02  0.30013455008E+02  0.10175842689E+02  0.50528846227E+02  0.29999958592E+02 0.  0.
         12    1    1    2    0    0  0.25471779082E+02 -0.30013455008E+02 -0.10175842689E+02  0.40659153773E+02  0.00000000000E+00 0. -1.
         11    1    3    3    0    0 -0.31953818617E+01  0.60292818571E+01  0.48186412370E+01  0.83535626284E+01  0.51100000000E-03 0. -1.
        -11    1    3    3    0    0 -0.20103516885E+01  0.11580724741E+02 -0.86497003887E+01  0.14593560790E+02  0.51100000000E-03 0.  1.
        -12    1    3    3    0    0 -0.20266045532E+02  0.12403448409E+02  0.14006901841E+02  0.27581722809E+02  0.00000000000E+00 0.  1.
</event>
<event>
 7    1  0.3041451E-011  0.5052885E+02  0.7816164E-02  0.1300439E+00
        -11   -1    0    0    0    0  0.00000000000E+00  0.00000000000E+00  0.45593999997E+02  0.45594000000E+02  0.51100000000E-03 0.  1.
         11   -1    0    0    0    0 -0.00000000000E+00 -0.00000000000E+00 -0.45593999997E+02  0.45594000000E+02  0.51100000000E-03 0. -1.
    9900012    2    1    2    0    0  0.10947283039E+02  0.33249411655E+02  0.20683319733E+02  0.50528854700E+02  0.29999984345E+02 0.  0.
         12    1    1    2    0    0 -0.10947283039E+02 -0.33249411655E+02 -0.20683319733E+02  0.40659145300E+02  0.00000000000E+00 0. -1.
         11    1    3    3    0    0  0.12209186151E+02  0.31137603971E+02  0.12194357539E+02  0.35599395550E+02  0.51100000000E-03 0. -1.
        -11    1    3    3    0    0 -0.18476494420E+01  0.42072714554E+01  0.10811184954E+02  0.11747198046E+02  0.51100000000E-03 0.  1.
         12    1    3    3    0    0  0.58574633040E+00 -0.20954637707E+01 -0.23222227605E+01  0.31822611029E+01  0.00000000000E+00 0. -1.
</event>
<event>
 7    1  0.3041451E-011  0.5052886E+02  0.7816164E-02  0.1300439E+00
        -11   -1    0    0    0    0  0.00000000000E+00  0.00000000000E+00  0.45593999997E+02  0.45594000000E+02  0.51100000000E-03 0.  1.
         11   -1    0    0    0    0 -0.00000000000E+00 -0.00000000000E+00 -0.45593999997E+02  0.45594000000E+02  0.51100000000E-03 0. -1.
    9900012    2    1    2    0    0 -0.26255697998E+02  0.31044505086E+02 -0.20640206268E+00  0.50528861111E+02  0.30000003833E+02 0.  0.
         12    1    1    2    0    0  0.26255697998E+02 -0.31044505086E+02  0.20640206268E+00  0.40659138889E+02  0.00000000000E+00 0. -1.
         11    1    3    3    0    0 -0.56856789580E+00  0.41153557149E+01  0.64827227222E+01  0.76996828679E+01  0.51100000000E-03 0. -1.
        -11    1    3    3    0    0 -0.26114245019E+02  0.14520891090E+02 -0.43443238511E+01  0.30194092484E+02  0.51100000000E-03 0.  1.
        -12    1    3    3    0    0  0.42711491654E+00  0.12408258280E+02 -0.23448009338E+01  0.12635085758E+02  0.00000000000E+00 0.  1.
</event>
<event>
 7    1  0.3041451E-011  0.5052888E+02  0.7816164E-02  0.1300439E+00
        -11   -1    0    0    0    0  0.00000000000E+00  0.00000000000E+00  0.45593999997E+02  0.45594000000E+02  0.51100000000E-03 0.  1.
         11   -1    0    0    0    0 -0.00000000000E+00 -0.00000000000E+00 -0.45593999997E+02  0.45594000000E+02  0.51100000000E-03 0. -1.
    9900012    2    1    2    0    0  0.32591690662E+01  0.16366986392E+02  0.37076455570E+02  0.50528880676E+02  0.30000063302E+02 0.  0.
         12    1    1    2    0    0 -0.32591690662E+01 -0.16366986392E+02 -0.37076455570E+02  0.40659119324E+02  0.00000000000E+00 0. -1.
         11    1    3    3    0    0 -0.20541208680E+01 -0.19396393765E+01 -0.11227047564E+01  0.30400788941E+01  0.51100000000E-03 0. -1.
        -11    1    3    3    0    0  0.13077344926E+02  0.97115359988E+01  0.18612263827E+02  0.24733524755E+02  0.51100000000E-03 0.  1.
        -12    1    3    3    0    0 -0.77640549922E+01  0.85950897697E+01  0.19586896500E+02  0.22755277027E+02  0.00000000000E+00 0.  1.
</event>
<event>
 7    1  0.3041451E-011  0.5052886E+02  0.7816164E-02  0.1300439E+00
        -11   -1    0    0    0    0  0.00000000000E+00  0.00000000000E+00  0.45593999997E+02  0.45594000000E+02  0.51100000000E-03 0.  1.
         11   -1    0    0    0    0 -0.00000000000E+00 -0.00000000000E+00 -0.45593999997E+02  0.45594000000E+02  0.51100000000E-03 0. -1.
    9900012    2    1    2    0    0 -0.64962666853E+01  0.37825158007E+02  0.13424659029E+02  0.50528861677E+02  0.30000005554E+02 0.  0.
         12    1    1    2    0    0  0.64962666853E+01 -0.37825158007E+02 -0.13424659029E+02  0.40659138323E+02  0.00000000000E+00 0. -1.
         11    1    3    3    0    0 -0.13750715164E+01  0.14825033090E+01 -0.34156616268E+01  0.39693050206E+01  0.51100000000E-03 0. -1.
        -11    1    3    3    0    0 -0.79877340563E+01  0.38080472539E+02  0.18183359058E+02  0.42948350737E+02  0.51100000000E-03 0.  1.
        -12    1    3    3    0    0  0.28665388874E+01 -0.17378178409E+01 -0.13430384025E+01  0.36112059194E+01  0.00000000000E+00 0.  1.
</event>
<event>
 7    1  0.3041451E-011  0.5052886E+02  0.7816164E-02  0.1300439E+00
        -11   -1    0    0    0    0  0.00000000000E+00  0.00000000000E+00  0.45593999997E+02  0.45594000000E+02  0.51100000000E-03 0. -1.
         11   -1    0    0    0    0 -0.00000000000E+00 -0.00000000000E+00 -0.45593999997E+02  0.45594000000E+02  0.51100000000E-03 0.  1.
    9900012    2    1    2    0    0  0.27953173322E+02 -0.23173915897E+02 -0.18296327881E+02  0.50528857231E+02  0.29999992040E+02 0.  0.
         12    1    1    2    0    0 -0.27953173322E+02  0.23173915897E+02  0.18296327881E+02  0.40659142769E+02  0.00000000000E+00 0. -1.
         11    1    3    3    0    0  0.78965303430E+01 -0.80291927532E+01 -0.13595435858E+02  0.17653866550E+02  0.51100000000E-03 0. -1.
        -11    1    3    3    0    0 -0.27162741198E+01  0.64523911278E+00  0.30152221904E+01  0.41092631609E+01  0.51100000000E-03 0.  1.
        -12    1    3    3    0    0  0.22772917099E+02 -0.15789962257E+02 -0.77161142132E+01  0.28765727521E+02  0.00000000000E+00 0.  1.
</event>
<event>
 7    1  0.3041451E-011  0.5052886E+02  0.7816164E-02  0.1300439E+00
        -11   -1    0    0    0    0  0.00000000000E+00  0.00000000000E+00  0.45593999997E+02  0.45594000000E+02  0.51100000000E-03 0.  1.
         11   -1    0    0    0    0 -0.00000000000E+00 -0.00000000000E+00 -0.45593999997E+02  0.45594000000E+02  0.51100000000E-03 0. -1.
    9900012    2    1    2    0    0 -0.98464177569E+01 -0.93270108623E+00  0.39437849117E+02  0.50528858138E+02  0.29999994797E+02 0.  0.
         12    1    1    2    0    0  0.98464177569E+01  0.93270108623E+00 -0.39437849117E+02  0.40659141862E+02  0.00000000000E+00 0. -1.
         11    1    3    3    0    0  0.23929865448E+01 -0.23564311806E+01 -0.29713428358E+01  0.44841979240E+01  0.51100000000E-03 0. -1.
        -11    1    3    3    0    0 -0.68917398764E+01  0.72482372071E+01  0.24851832161E+02  0.26788926503E+02  0.51100000000E-03 0.  1.
        -12    1    3    3    0    0 -0.53476644253E+01 -0.58245071127E+01  0.17557359791E+02  0.19255733711E+02  0.00000000000E+00 0.  1.
</event>
<event>
 7    1  0.3041451E-011  0.5052886E+02  0.7816164E-02  0.1300439E+00
        -11   -1    0    0    0    0  0.00000000000E+00  0.00000000000E+00  0.45593999997E+02  0.45594000000E+02  0.51100000000E-03 0. -1.
         11   -1    0    0    0    0 -0.00000000000E+00 -0.00000000000E+00 -0.45593999997E+02  0.45594000000E+02  0.51100000000E-03 0.  1.
    9900012    2    1    2    0    0 -0.14495344145E+02  0.37643978371E+02  0.50971851998E+01  0.50528863186E+02  0.30000010140E+02 0.  0.
         12    1    1    2    0    0  0.14495344145E+02 -0.37643978371E+02 -0.50971851998E+01  0.40659136814E+02  0.00000000000E+00 0. -1.
         11    1    3    3    0    0 -0.59235620058E+01  0.33891911102E+01  0.10122714546E+02  0.12208380452E+02  0.51100000000E-03 0. -1.
        -11    1    3    3    0    0  0.13541075890E+01  0.13112683199E+02 -0.69186216257E+01  0.14887692686E+02  0.51100000000E-03 0.  1.
         12    1    3    3    0    0 -0.99258897282E+01  0.21142104062E+02  0.18930922790E+01  0.23432790048E+02  0.00000000000E+00 0. -1.
</event>
<event>
 7    1  0.3041451E-011  0.5052887E+02  0.7816164E-02  0.1300439E+00
        -11   -1    0    0    0    0  0.00000000000E+00  0.00000000000E+00  0.45593999997E+02  0.45594000000E+02  0.51100000000E-03 0.  1.
         11   -1    0    0    0    0 -0.00000000000E+00 -0.00000000000E+00 -0.45593999997E+02  0.45594000000E+02  0.51100000000E-03 0. -1.
    9900012    2    1    2    0    0 -0.31937805323E+02  0.50062594949E+01  0.24659260052E+02  0.50528866348E+02  0.30000019752E+02 0.  0.
         12    1    1    2    0    0  0.31937805323E+02 -0.50062594949E+01 -0.24659260052E+02  0.40659133652E+02  0.00000000000E+00 0. -1.
         11    1    3    3    0    0 -0.41047565561E+01 -0.64550808843E+01  0.13512765228E+01  0.77680785340E+01  0.51100000000E-03 0. -1.
        -11    1    3    3    0    0 -0.24214097046E+02  0.11293899059E+02  0.26718200388E+02  0.37785405700E+02  0.51100000000E-03 0.  1.
        -12    1    3    3    0    0 -0.36189517214E+01  0.16744132033E+00 -0.34102168585E+01  0.49753821139E+01  0.00000000000E+00 0.  1.
</event>
<event>
 7    1  0.3041451E-011  0.5052887E+02  0.7816164E-02  0.1300439E+00
        -11   -1    0    0    0    0  0.00000000000E+00  0.00000000000E+00  0.45593999997E+02  0.45594000000E+02  0.51100000000E-03 0.  1.
         11   -1    0    0    0    0 -0.00000000000E+00 -0.00000000000E+00 -0.45593999997E+02  0.45594000000E+02  0.51100000000E-03 0. -1.
    9900012    2    1    2    0    0  0.38248332392E+02 -0.13673851502E+02  0.18043933471E+01  0.50528868418E+02  0.30000026042E+02 0.  0.
         12    1    1    2    0    0 -0.38248332392E+02  0.13673851502E+02 -0.18043933471E+01  0.40659131582E+02  0.00000000000E+00 0. -1.
         11    1    3    3    0    0 -0.15742463310E+01  0.52337095593E+01  0.12519990479E+01  0.56069126210E+01  0.51100000000E-03 0. -1.
        -11    1    3    3    0    0  0.30054103860E+02 -0.18148337392E+02  0.18274509168E-02  0.35108564661E+02  0.51100000000E-03 0.  1.
        -12    1    3    3    0    0  0.97684748631E+01 -0.75922366940E+00  0.55056684828E+00  0.98133911359E+01  0.00000000000E+00 0.  1.
</event>
<event>
 7    1  0.3041451E-011  0.5052886E+02  0.7816164E-02  0.1300439E+00
        -11   -1    0    0    0    0  0.00000000000E+00  0.00000000000E+00  0.45593999997E+02  0.45594000000E+02  0.51100000000E-03 0. -1.
         11   -1    0    0    0    0 -0.00000000000E+00 -0.00000000000E+00 -0.45593999997E+02  0.45594000000E+02  0.51100000000E-03 0.  1.
    9900012    2    1    2    0    0  0.29631495731E+02  0.21825513899E+02 -0.17285456545E+02  0.50528860754E+02  0.30000002749E+02 0.  0.
         12    1    1    2    0    0 -0.29631495731E+02 -0.21825513899E+02  0.17285456545E+02  0.40659139246E+02  0.00000000000E+00 0. -1.
         11    1    3    3    0    0  0.56855036105E+01  0.15653176962E+02 -0.13066178123E+02  0.21167709165E+02  0.51100000000E-03 0. -1.
        -11    1    3    3    0    0  0.25901411031E+02  0.64090335491E+01 -0.25956057287E+01  0.26808505624E+02  0.51100000000E-03 0.  1.
         12    1    3    3    0    0 -0.19554189109E+01 -0.23669661208E+00 -0.16236726937E+01  0.25526459644E+01  0.00000000000E+00 0. -1.
</event>
<event>
 7    1  0.3041451E-011  0.5052886E+02  0.7816164E-02  0.1300439E+00
        -11   -1    0    0    0    0  0.00000000000E+00  0.00000000000E+00  0.45593999997E+02  0.45594000000E+02  0.51100000000E-03 0. -1.
         11   -1    0    0    0    0 -0.00000000000E+00 -0.00000000000E+00 -0.45593999997E+02  0.45594000000E+02  0.51100000000E-03 0.  1.
    9900012    2    1    2    0    0  0.91093677806E+01 -0.35590329461E+01 -0.39465407635E+02  0.50528859617E+02  0.29999999293E+02 0.  0.
         12    1    1    2    0    0 -0.91093677806E+01  0.35590329461E+01  0.39465407635E+02  0.40659140383E+02  0.00000000000E+00 0. -1.
         11    1    3    3    0    0  0.89843673020E+01 -0.16917483987E+01 -0.22690293237E+02  0.24462834584E+02  0.51100000000E-03 0. -1.
        -11    1    3    3    0    0 -0.15846497123E+01  0.32300751181E+01  0.35424722882E+01  0.50491197404E+01  0.51100000000E-03 0.  1.
        -12    1    3    3    0    0  0.17096501909E+01 -0.50973596655E+01 -0.20317586686E+02  0.21016905293E+02  0.00000000000E+00 0.  1.
</event>
<event>
 7    1  0.3041451E-011  0.5052886E+02  0.7816164E-02  0.1300439E+00
        -11   -1    0    0    0    0  0.00000000000E+00  0.00000000000E+00  0.45593999997E+02  0.45594000000E+02  0.51100000000E-03 0.  1.
         11   -1    0    0    0    0 -0.00000000000E+00 -0.00000000000E+00 -0.45593999997E+02  0.45594000000E+02  0.51100000000E-03 0. -1.
    9900012    2    1    2    0    0 -0.18078236622E+00 -0.37533627381E+02  0.15632013057E+02  0.50528859590E+02  0.29999999210E+02 0.  0.
         12    1    1    2    0    0  0.18078236622E+00  0.37533627381E+02 -0.15632013057E+02  0.40659140410E+02  0.00000000000E+00 0. -1.
         11    1    3    3    0    0 -0.11252388996E+02 -0.10357540262E+02  0.70546548922E+01  0.16842299555E+02  0.51100000000E-03 0. -1.
        -11    1    3    3    0    0  0.93551809875E+01 -0.14897561275E+02 -0.15756858412E+01  0.17661809912E+02  0.51100000000E-03 0.  1.
        -12    1    3    3    0    0  0.17164256422E+01 -0.12278525844E+02  0.10153044006E+02  0.16024750123E+02  0.00000000000E+00 0.  1.
</event>
<event>
 7    1  0.3041451E-011  0.5052886E+02  0.7816164E-02  0.1300439E+00
        -11   -1    0    0    0    0  0.00000000000E+00  0.00000000000E+00  0.45593999997E+02  0.45594000000E+02  0.51100000000E-03 0.  1.
         11   -1    0    0    0    0 -0.00000000000E+00 -0.00000000000E+00 -0.45593999997E+02  0.45594000000E+02  0.51100000000E-03 0. -1.
    9900012    2    1    2    0    0 -0.11679329320E+02 -0.34720707585E+02  0.17641755943E+02  0.50528858084E+02  0.29999994632E+02 0.  0.
         12    1    1    2    0    0  0.11679329320E+02  0.34720707585E+02 -0.17641755943E+02  0.40659141916E+02  0.00000000000E+00 0. -1.
         11    1    3    3    0    0 -0.18461633478E+02 -0.10724082201E+02  0.10399808257E+02  0.23748554940E+02  0.51100000000E-03 0.  1.
        -11    1    3    3    0    0  0.50759787907E+01 -0.99246754231E+01  0.70243242375E+00  0.11169518992E+02  0.51100000000E-03 0. -1.
        -12    1    3    3    0    0  0.17063253668E+01 -0.14071949962E+02  0.65395152618E+01  0.15610784152E+02  0.00000000000E+00 0.  1.
</event>
<event>
 7    1  0.3041451E-011  0.5052886E+02  0.7816164E-02  0.1300439E+00
        -11   -1    0    0    0    0  0.00000000000E+00  0.00000000000E+00  0.45593999997E+02  0.45594000000E+02  0.51100000000E-03 0.  1.
         11   -1    0    0    0    0 -0.00000000000E+00 -0.00000000000E+00 -0.45593999997E+02  0.45594000000E+02  0.51100000000E-03 0. -1.
    9900012    2    1    2    0    0  0.59167104467E+01  0.23212597266E+02  0.32853210965E+02  0.50528860744E+02  0.30000002718E+02 0.  0.
         12    1    1    2    0    0 -0.59167104467E+01 -0.23212597266E+02 -0.32853210965E+02  0.40659139256E+02  0.00000000000E+00 0. -1.
         11    1    3    3    0    0  0.13256202044E+02  0.28755042855E+01  0.79728509468E+01  0.15734095780E+02  0.51100000000E-03 0. -1.
        -11    1    3    3    0    0 -0.46775709224E+00  0.10601653901E+02  0.52718232967E+01  0.11849303071E+02  0.51100000000E-03 0.  1.
         12    1    3    3    0    0 -0.68717345048E+01  0.97354390797E+01  0.19608536721E+02  0.22945461894E+02  0.00000000000E+00 0. -1.
</event>
<event>
 7    1  0.3041451E-011  0.5052884E+02  0.7816164E-02  0.1300439E+00
        -11   -1    0    0    0    0  0.00000000000E+00  0.00000000000E+00  0.45593999997E+02  0.45594000000E+02  0.51100000000E-03 0.  1.
         11   -1    0    0    0    0 -0.00000000000E+00 -0.00000000000E+00 -0.45593999997E+02  0.45594000000E+02  0.51100000000E-03 0. -1.
    9900012    2    1    2    0    0 -0.77396578337E+01  0.34680204658E+02  0.19762305125E+02  0.50528836182E+02  0.29999928059E+02 0.  0.
         12    1    1    2    0    0  0.77396578337E+01 -0.34680204658E+02 -0.19762305125E+02  0.40659163818E+02  0.00000000000E+00 0. -1.
         11    1    3    3    0    0  0.55512694284E+01  0.11036780932E+02  0.22849222186E+01  0.12563757217E+02  0.51100000000E-03 0. -1.
        -11    1    3    3    0    0 -0.15739102283E+02  0.13835639131E+02  0.43600056729E+01  0.21404529907E+02  0.51100000000E-03 0.  1.
        -12    1    3    3    0    0  0.24481750207E+01  0.98077845956E+01  0.13117377234E+02  0.16560549058E+02  0.00000000000E+00 0.  1.
</event>
<event>
 7    1  0.3041451E-011  0.5052880E+02  0.7816164E-02  0.1300439E+00
        -11   -1    0    0    0    0  0.00000000000E+00  0.00000000000E+00  0.45593999997E+02  0.45594000000E+02  0.51100000000E-03 0.  1.
         11   -1    0    0    0    0 -0.00000000000E+00 -0.00000000000E+00 -0.45593999997E+02  0.45594000000E+02  0.51100000000E-03 0. -1.
    9900012    2    1    2    0    0  0.27805114890E+02  0.70663854292E+01  0.28811667862E+02  0.50528801508E+02  0.29999822662E+02 0.  0.
         12    1    1    2    0    0 -0.27805114890E+02 -0.70663854292E+01 -0.28811667862E+02  0.40659198492E+02  0.00000000000E+00 0. -1.
         11    1    3    3    0    0  0.22716153841E+02  0.81593861809E+01  0.13443360863E+02  0.27628303961E+02  0.51100000000E-03 0. -1.
        -11    1    3    3    0    0  0.71112806250E+00  0.67847631130E+01  0.10856028595E+02  0.12821547128E+02  0.51100000000E-03 0.  1.
         12    1    3    3    0    0  0.43778329861E+01 -0.78777638647E+01  0.45122784028E+01  0.10078950419E+02  0.00000000000E+00 0. -1.
</event>
<event>
 7    1  0.3041451E-011  0.5052885E+02  0.7816164E-02  0.1300439E+00
        -11   -1    0    0    0    0  0.00000000000E+00  0.00000000000E+00  0.45593999997E+02  0.45594000000E+02  0.51100000000E-03 0.  1.
         11   -1    0    0    0    0 -0.00000000000E+00 -0.00000000000E+00 -0.45593999997E+02  0.45594000000E+02  0.51100000000E-03 0. -1.
    9900012    2    1    2    0    0 -0.29621116082E+02 -0.21194327423E+02  0.18070870810E+02  0.50528850910E+02  0.29999972827E+02 0.  0.
         12    1    1    2    0    0  0.29621116082E+02  0.21194327423E+02 -0.18070870810E+02  0.40659149090E+02  0.00000000000E+00 0. -1.
         11    1    3    3    0    0  0.23942881075E+01  0.25627519334E+00 -0.42085526785E+01  0.48487326617E+01  0.51100000000E-03 0. -1.
        -11    1    3    3    0    0 -0.10198546423E+02 -0.63111490455E+01  0.17621026354E+01  0.12122126768E+02  0.51100000000E-03 0.  1.
         12    1    3    3    0    0 -0.21816857767E+02 -0.15139453571E+02  0.20517320853E+02  0.33557991481E+02  0.00000000000E+00 0. -1.
</event>
<event>
 7    1  0.3041451E-011  0.5052885E+02  0.7816164E-02  0.1300439E+00
        -11   -1    0    0    0    0  0.00000000000E+00  0.00000000000E+00  0.45593999997E+02  0.45594000000E+02  0.51100000000E-03 0. -1.
         11   -1    0    0    0    0 -0.00000000000E+00 -0.00000000000E+00 -0.45593999997E+02  0.45594000000E+02  0.51100000000E-03 0.  1.
    9900012    2    1    2    0    0  0.17016409322E+02  0.16788603964E+01 -0.36888883352E+02  0.50528850066E+02  0.29999970259E+02 0.  0.
         12    1    1    2    0    0 -0.17016409322E+02 -0.16788603964E+01  0.36888883352E+02  0.40659149934E+02  0.00000000000E+00 0. -1.
         11    1    3    3    0    0 -0.16129054490E+01 -0.12552317724E+01 -0.52694087185E+00  0.21106249628E+01  0.51100000000E-03 0. -1.
        -11    1    3    3    0    0  0.25029255563E+02  0.30921283908E+01 -0.25879547417E+02  0.36135520846E+02  0.51100000000E-03 0.  1.
        -12    1    3    3    0    0 -0.63999407927E+01 -0.15803622204E+00 -0.10482395063E+02  0.12282704257E+02  0.00000000000E+00 0.  1.
</event>
<event>
 7    1  0.3041451E-011  0.5052878E+02  0.7816164E-02  0.1300439E+00
        -11   -1    0    0    0    0  0.00000000000E+00  0.00000000000E+00  0.45593999997E+02  0.45594000000E+02  0.51100000000E-03 0.  1.
         11   -1    0    0    0    0 -0.00000000000E+00 -0.00000000000E+00 -0.45593999997E+02  0.45594000000E+02  0.51100000000E-03 0. -1.
    9900012    2    1    2    0    0  0.34609948080E+02 -0.11860986302E+02  0.17738108699E+02  0.50528782074E+02  0.29999763591E+02 0.  0.
         12    1    1    2    0    0 -0.34609948080E+02  0.11860986302E+02 -0.17738108699E+02  0.40659217926E+02  0.00000000000E+00 0. -1.
         11    1    3    3    0    0  0.66084080747E+01 -0.89122748819E+01 -0.52230592186E+01  0.12262954322E+02  0.51100000000E-03 0. -1.
        -11    1    3    3    0    0  0.54942249527E+01 -0.24670316173E+01  0.11551169752E+02  0.13026982603E+02  0.51100000000E-03 0.  1.
         12    1    3    3    0    0  0.22507315052E+02 -0.48167980271E+00  0.11409998166E+02  0.25238845149E+02  0.00000000000E+00 0. -1.
</event>
<event>
 7    1  0.3041451E-011  0.5052887E+02  0.7816164E-02  0.1300439E+00
        -11   -1    0    0    0    0  0.00000000000E+00  0.00000000000E+00  0.45593999997E+02  0.45594000000E+02  0.51100000000E-03 0. -1.
         11   -1    0    0    0    0 -0.00000000000E+00 -0.00000000000E+00 -0.45593999997E+02  0.45594000000E+02  0.51100000000E-03 0.  1.
    9900012    2    1    2    0    0  0.14603352983E+02  0.36491964236E+02  0.10404022881E+02  0.50528867394E+02  0.30000022932E+02 0.  0.
         12    1    1    2    0    0 -0.14603352983E+02 -0.36491964236E+02 -0.10404022881E+02  0.40659132606E+02  0.00000000000E+00 0. -1.
         11    1    3    3    0    0  0.57830293664E+01  0.96742489284E+00 -0.12019566223E+01  0.59853186681E+01  0.51100000000E-03 0. -1.
        -11    1    3    3    0    0  0.84351699003E+01  0.38126917950E+02  0.76475849412E+01  0.39790696392E+02  0.51100000000E-03 0.  1.
        -12    1    3    3    0    0  0.38515371657E+00 -0.26023786076E+01  0.39583945623E+01  0.47528523345E+01  0.00000000000E+00 0.  1.
</event>
<event>
 7    1  0.3041451E-011  0.5052885E+02  0.7816164E-02  0.1300439E+00
        -11   -1    0    0    0    0  0.00000000000E+00  0.00000000000E+00  0.45593999997E+02  0.45594000000E+02  0.51100000000E-03 0.  1.
         11   -1    0    0    0    0 -0.00000000000E+00 -0.00000000000E+00 -0.45593999997E+02  0.45594000000E+02  0.51100000000E-03 0. -1.
    9900012    2    1    2    0    0 -0.19470084691E+02  0.23371149917E+02 -0.26979098230E+02  0.50528848660E+02  0.29999965988E+02 0.  0.
         12    1    1    2    0    0  0.19470084691E+02 -0.23371149917E+02  0.26979098230E+02  0.40659151340E+02  0.00000000000E+00 0. -1.
         11    1    3    3    0    0 -0.79522182916E+01  0.65185452688E+01 -0.11331644124E+02  0.15301482510E+02  0.51100000000E-03 0. -1.
        -11    1    3    3    0    0 -0.10234364464E+02 -0.20854941738E+01  0.28037408621E+00  0.10448450211E+02  0.51100000000E-03 0.  1.
        -12    1    3    3    0    0 -0.12835019359E+01  0.18938098822E+02 -0.15927828192E+02  0.24778915940E+02  0.00000000000E+00 0.  1.
</event>
<event>
 7    1  0.3041451E-011  0.5052886E+02  0.7816164E-02  0.1300439E+00
        -11   -1    0    0    0    0  0.00000000000E+00  0.00000000000E+00  0.45593999997E+02  0.45594000000E+02  0.51100000000E-03 0.  1.
         11   -1    0    0    0    0 -0.00000000000E+00 -0.00000000000E+00 -0.45593999997E+02  0.45594000000E+02  0.51100000000E-03 0. -1.
    9900012    2    1    2    0    0 -0.24235154211E+01  0.22764380594E+02  0.33601714309E+02  0.50528860126E+02  0.30000000838E+02 0.  0.
         12    1    1    2    0    0  0.24235154211E+01 -0.22764380594E+02 -0.33601714309E+02  0.40659139874E+02  0.00000000000E+00 0. -1.
         11    1    3    3    0    0 -0.59829924048E+01  0.10448887173E+02 -0.14591542137E+01  0.12128667386E+02  0.51100000000E-03 0. -1.
        -11    1    3    3    0    0  0.58939823113E+01  0.48337281205E+01  0.14217543654E+02  0.16132033438E+02  0.51100000000E-03 0.  1.
         12    1    3    3    0    0 -0.23345053276E+01  0.74817653006E+01  0.20843324868E+02  0.22268159302E+02  0.00000000000E+00 0. -1.
</event>
<event>
 7    1  0.3041451E-011  0.5052886E+02  0.7816164E-02  0.1300439E+00
        -11   -1    0    0    0    0  0.00000000000E+00  0.00000000000E+00  0.45593999997E+02  0.45594000000E+02  0.51100000000E-03 0.  1.
         11   -1    0    0    0    0 -0.00000000000E+00 -0.00000000000E+00 -0.45593999997E+02  0.45594000000E+02  0.51100000000E-03 0. -1.
    9900012    2    1    2    0    0  0.33062383692E+02  0.23213781662E+02  0.46004923981E+01  0.50528863207E+02  0.30000010203E+02 0.  0.
         12    1    1    2    0    0 -0.33062383692E+02 -0.23213781662E+02 -0.46004923981E+01  0.40659136793E+02  0.00000000000E+00 0. -1.
         11    1    3    3    0    0  0.13647971981E+02  0.15438345754E+02 -0.10775355573E+02  0.23253342701E+02  0.51100000000E-03 0. -1.
        -11    1    3    3    0    0  0.45526976755E+01  0.38185640015E+01  0.86390097127E+01  0.10485274257E+02  0.51100000000E-03 0.  1.
         12    1    3    3    0    0  0.14861714036E+02  0.39568719069E+01  0.67368382585E+01  0.16790246249E+02  0.00000000000E+00 0. -1.
</event>
<event>
 7    1  0.3041451E-011  0.5052886E+02  0.7816164E-02  0.1300439E+00
        -11   -1    0    0    0    0  0.00000000000E+00  0.00000000000E+00  0.45593999997E+02  0.45594000000E+02  0.51100000000E-03 0.  1.
         11   -1    0    0    0    0 -0.00000000000E+00 -0.00000000000E+00 -0.45593999997E+02  0.45594000000E+02  0.51100000000E-03 0. -1.
    9900012    2    1    2    0    0  0.20062280725E+01 -0.21403755426E+02  0.34511155079E+02  0.50528861761E+02  0.30000005809E+02 0.  0.
         12    1    1    2    0    0 -0.20062280725E+01  0.21403755426E+02 -0.34511155079E+02  0.40659138239E+02  0.00000000000E+00 0. -1.
         11    1    3    3    0    0 -0.55694976031E+01 -0.19623575580E+02  0.14169700979E+02  0.24837158618E+02  0.51100000000E-03 0. -1.
        -11    1    3    3    0    0  0.19729272725E+01 -0.53461358688E+01  0.17612677666E+02  0.18511618664E+02  0.51100000000E-03 0.  1.
         12    1    3    3    0    0  0.56027984031E+01  0.35659560228E+01  0.27287764343E+01  0.71800844793E+01  0.00000000000E+00 0. -1.
</event>
<event>
 7    1  0.3041451E-011  0.5052886E+02  0.7816164E-02  0.1300439E+00
        -11   -1    0    0    0    0  0.00000000000E+00  0.00000000000E+00  0.45593999997E+02  0.45594000000E+02  0.51100000000E-03 0.  1.
         11   -1    0    0    0    0 -0.00000000000E+00 -0.00000000000E+00 -0.45593999997E+02  0.45594000000E+02  0.51100000000E-03 0. -1.
    9900012    2    1    2    0    0  0.16932332290E+02 -0.93088303274E+01  0.35774398738E+02  0.50528858299E+02  0.29999995284E+02 0.  0.
         12    1    1    2    0    0 -0.16932332290E+02  0.93088303274E+01 -0.35774398738E+02  0.40659141701E+02  0.00000000000E+00 0. -1.
         11    1    3    3    0    0  0.97019174836E+01 -0.88885841240E+01  0.67631682657E+01  0.14794410290E+02  0.51100000000E-03 0. -1.
        -11    1    3    3    0    0 -0.56077484376E+01 -0.20942701887E+00  0.22378650270E+01  0.60414189025E+01  0.51100000000E-03 0.  1.
        -12    1    3    3    0    0  0.12838163244E+02 -0.21081918452E+00  0.26773365445E+02  0.29693029106E+02  0.00000000000E+00 0.  1.
</event>
<event>
 7    1  0.3041451E-011  0.5052887E+02  0.7816164E-02  0.1300439E+00
        -11   -1    0    0    0    0  0.00000000000E+00  0.00000000000E+00  0.45593999997E+02  0.45594000000E+02  0.51100000000E-03 0.  1.
         11   -1    0    0    0    0 -0.00000000000E+00 -0.00000000000E+00 -0.45593999997E+02  0.45594000000E+02  0.51100000000E-03 0. -1.
    9900012    2    1    2    0    0  0.15928996361E+02 -0.12853593014E+02  0.35131430213E+02  0.50528866127E+02  0.30000019081E+02 0.  0.
         12    1    1    2    0    0 -0.15928996361E+02  0.12853593014E+02 -0.35131430213E+02  0.40659133873E+02  0.00000000000E+00 0. -1.
         11    1    3    3    0    0  0.22217868429E+01 -0.12931848090E+02  0.18191018087E+01  0.13246817106E+02  0.51100000000E-03 0. -1.
        -11    1    3    3    0    0  0.90507060984E+01 -0.43706128039E+01  0.23325829759E+02  0.25399052568E+02  0.51100000000E-03 0.  1.
         12    1    3    3    0    0  0.46565034197E+01  0.44488678792E+01  0.99864986460E+01  0.11882996453E+02  0.00000000000E+00 0. -1.
</event>
<event>
 7    1  0.3041451E-011  0.5052886E+02  0.7816164E-02  0.1300439E+00
        -11   -1    0    0    0    0  0.00000000000E+00  0.00000000000E+00  0.45593999997E+02  0.45594000000E+02  0.51100000000E-03 0.  1.
         11   -1    0    0    0    0 -0.00000000000E+00 -0.00000000000E+00 -0.45593999997E+02  0.45594000000E+02  0.51100000000E-03 0. -1.
    9900012    2    1    2    0    0  0.25321405771E+02 -0.48506001331E+01  0.31439840620E+02  0.50528862158E+02  0.30000007015E+02 0.  0.
         12    1    1    2    0    0 -0.25321405771E+02  0.48506001331E+01 -0.31439840620E+02  0.40659137842E+02  0.00000000000E+00 0. -1.
         11    1    3    3    0    0 -0.24642368148E+01 -0.10243914474E+02  0.76475198405E+01  0.13019017121E+02  0.51100000000E-03 0. -1.
        -11    1    3    3    0    0  0.22376806149E+02  0.30544082049E+01  0.15725418452E+02  0.27519804662E+02  0.51100000000E-03 0.  1.
         12    1    3    3    0    0  0.54088364372E+01  0.23389061362E+01  0.80669023274E+01  0.99900403742E+01  0.00000000000E+00 0. -1.
</event>
<event>
 7    1  0.3041451E-011  0.5052884E+02  0.7816164E-02  0.1300439E+00
        -11   -1    0    0    0    0  0.00000000000E+00  0.00000000000E+00  0.45593999997E+02  0.45594000000E+02  0.51100000000E-03 0.  1.
         11   -1    0    0    0    0 -0.00000000000E+00 -0.00000000000E+00 -0.45593999997E+02  0.45594000000E+02  0.51100000000E-03 0. -1.
    9900012    2    1    2    0    0  0.25207516998E+02 -0.21302349188E+02  0.23747799775E+02  0.50528843734E+02  0.29999951013E+02 0.  0.
         12    1    1    2    0    0 -0.25207516998E+02  0.21302349188E+02 -0.23747799775E+02  0.40659156266E+02  0.00000000000E+00 0. -1.
         11    1    3    3    0    0  0.73115303671E+01 -0.22290915377E+02  0.17662659358E+02  0.29365165086E+02  0.51100000000E-03 0. -1.
        -11    1    3    3    0    0  0.58874585252E+01 -0.37252723558E+01  0.41756260843E+01  0.81225411952E+01  0.51100000000E-03 0.  1.
         12    1    3    3    0    0  0.12008528105E+02  0.47138385441E+01  0.19095143322E+01  0.13041137453E+02  0.00000000000E+00 0. -1.
</event>
<event>
 7    1  0.3041451E-011  0.5052886E+02  0.7816164E-02  0.1300439E+00
        -11   -1    0    0    0    0  0.00000000000E+00  0.00000000000E+00  0.45593999997E+02  0.45594000000E+02  0.51100000000E-03 0.  1.
         11   -1    0    0    0    0 -0.00000000000E+00 -0.00000000000E+00 -0.45593999997E+02  0.45594000000E+02  0.51100000000E-03 0. -1.
    9900012    2    1    2    0    0 -0.45595677637E+01  0.12282992536E+02  0.38490311275E+02  0.50528860488E+02  0.30000001940E+02 0.  0.
         12    1    1    2    0    0  0.45595677637E+01 -0.12282992536E+02 -0.38490311275E+02  0.40659139512E+02  0.00000000000E+00 0. -1.
         11    1    3    3    0    0 -0.48777223988E+01  0.13292413203E+02  0.16963136452E+02  0.22095891543E+02  0.51100000000E-03 0. -1.
        -11    1    3    3    0    0  0.89674872572E+01 -0.73711978265E+00  0.65276044084E+01  0.11116150091E+02  0.51100000000E-03 0.  1.
        -12    1    3    3    0    0 -0.86493326221E+01 -0.27230088411E+00  0.14999570414E+02  0.17316818853E+02  0.00000000000E+00 0.  1.
</event>
<event>
 7    1  0.3041451E-011  0.5052885E+02  0.7816164E-02  0.1300439E+00
        -11   -1    0    0    0    0  0.00000000000E+00  0.00000000000E+00  0.45593999997E+02  0.45594000000E+02  0.51100000000E-03 0.  1.
         11   -1    0    0    0    0 -0.00000000000E+00 -0.00000000000E+00 -0.45593999997E+02  0.45594000000E+02  0.51100000000E-03 0. -1.
    9900012    2    1    2    0    0 -0.17516634762E+02 -0.89800542921E+01  0.35576569669E+02  0.50528853699E+02  0.29999981304E+02 0.  0.
         12    1    1    2    0    0  0.17516634762E+02  0.89800542921E+01 -0.35576569669E+02  0.40659146301E+02  0.00000000000E+00 0. -1.
         11    1    3    3    0    0 -0.80624187135E+01 -0.11242390560E+02  0.10909952539E+01  0.13877471380E+02  0.51100000000E-03 0. -1.
        -11    1    3    3    0    0 -0.10389741154E+02  0.25903384679E+01  0.26154571158E+02  0.28261602350E+02  0.51100000000E-03 0.  1.
         12    1    3    3    0    0  0.93552510535E+00 -0.32800220025E+00  0.83310032568E+01  0.83897799692E+01  0.00000000000E+00 0. -1.
</event>
<event>
 7    1  0.3041451E-011  0.5052888E+02  0.7816164E-02  0.1300439E+00
        -11   -1    0    0    0    0  0.00000000000E+00  0.00000000000E+00  0.45593999997E+02  0.45594000000E+02  0.51100000000E-03 0.  1.
         11   -1    0    0    0    0 -0.00000000000E+00 -0.00000000000E+00 -0.45593999997E+02  0.45594000000E+02  0.51100000000E-03 0. -1.
    9900012    2    1    2    0    0  0.18251209412E+02  0.70345459062E+01  0.35645091103E+02  0.50528880471E+02  0.30000062680E+02 0.  0.
         12    1    1    2    0    0 -0.18251209412E+02 -0.70345459062E+01 -0.35645091103E+02  0.40659119529E+02  0.00000000000E+00 0. -1.
         11    1    3    3    0    0  0.83681052498E+01  0.38839635633E+01  0.70259999357E+00  0.92522432656E+01  0.51100000000E-03 0. -1.
        -11    1    3    3    0    0  0.11377974632E+01 -0.63957442426E+01  0.22123160931E+02  0.23057197951E+02  0.51100000000E-03 0.  1.
        -12    1    3    3    0    0  0.87453066989E+01  0.95463265856E+01  0.12819330178E+02  0.18219439255E+02  0.00000000000E+00 0.  1.
</event>
<event>
 7    1  0.3041451E-011  0.5052884E+02  0.7816164E-02  0.1300439E+00
        -11   -1    0    0    0    0  0.00000000000E+00  0.00000000000E+00  0.45593999997E+02  0.45594000000E+02  0.51100000000E-03 0.  1.
         11   -1    0    0    0    0 -0.00000000000E+00 -0.00000000000E+00 -0.45593999997E+02  0.45594000000E+02  0.51100000000E-03 0. -1.
    9900012    2    1    2    0    0  0.39497064719E+02  0.74418760490E+00  0.96226458733E+01  0.50528840513E+02  0.29999941222E+02 0.  0.
         12    1    1    2    0    0 -0.39497064719E+02 -0.74418760490E+00 -0.96226458733E+01  0.40659159487E+02  0.00000000000E+00 0. -1.
         11    1    3    3    0    0 -0.19510446234E+01  0.13846150020E+01  0.67942290242E+01  0.72031439053E+01  0.51100000000E-03 0.  1.
        -11    1    3    3    0    0  0.31101441296E+02 -0.26885038499E+01 -0.28493026451E+01  0.31347188542E+02  0.51100000000E-03 0. -1.
         12    1    3    3    0    0  0.10346668047E+02  0.20480764527E+01  0.56777194942E+01  0.11978508066E+02  0.00000000000E+00 0. -1.
</event>
<event>
 7    1  0.3041451E-011  0.5052886E+02  0.7816164E-02  0.1300439E+00
        -11   -1    0    0    0    0  0.00000000000E+00  0.00000000000E+00  0.45593999997E+02  0.45594000000E+02  0.51100000000E-03 0. -1.
         11   -1    0    0    0    0 -0.00000000000E+00 -0.00000000000E+00 -0.45593999997E+02  0.45594000000E+02  0.51100000000E-03 0.  1.
    9900012    2    1    2    0    0 -0.45491748332E+01  0.37611438914E+02 -0.14759759723E+02  0.50528857905E+02  0.29999994087E+02 0.  0.
         12    1    1    2    0    0  0.45491748332E+01 -0.37611438914E+02  0.14759759723E+02  0.40659142095E+02  0.00000000000E+00 0. -1.
         11    1    3    3    0    0 -0.98545213592E+01  0.17812431123E+02 -0.42566159962E+01  0.20796948664E+02  0.51100000000E-03 0. -1.
        -11    1    3    3    0    0  0.17828336532E+01  0.77972160786E+01 -0.14534754146E+02  0.16590182420E+02  0.51100000000E-03 0.  1.
         12    1    3    3    0    0  0.35225128728E+01  0.12001791713E+02  0.40316104186E+01  0.13141726821E+02  0.00000000000E+00 0. -1.
</event>
<event>
 7    1  0.3041451E-011  0.5052898E+02  0.7816164E-02  0.1300438E+00
        -11   -1    0    0    0    0  0.00000000000E+00  0.00000000000E+00  0.45593999997E+02  0.45594000000E+02  0.51100000000E-03 0.  1.
         11   -1    0    0    0    0 -0.00000000000E+00 -0.00000000000E+00 -0.45593999997E+02  0.45594000000E+02  0.51100000000E-03 0. -1.
    9900012    2    1    2    0    0  0.35049298864E+02 -0.55099669097E+00  0.20600951157E+02  0.50528977179E+02  0.30000356630E+02 0.  0.
         12    1    1    2    0    0 -0.35049298864E+02  0.55099669097E+00 -0.20600951157E+02  0.40659022821E+02  0.00000000000E+00 0. -1.
         11    1    3    3    0    0  0.16391090273E+02 -0.91269560177E+01  0.41337109163E+00  0.18765394811E+02  0.51100000000E-03 0. -1.
        -11    1    3    3    0    0  0.95533540053E+01  0.11353804604E+02  0.10469137397E+02  0.18159798728E+02  0.51100000000E-03 0.  1.
         12    1    3    3    0    0  0.91048545859E+01 -0.27778452775E+01  0.97184426690E+01  0.13603783640E+02  0.00000000000E+00 0. -1.
</event>
<event>
 7    1  0.3041451E-011  0.5052889E+02  0.7816164E-02  0.1300439E+00
        -11   -1    0    0    0    0  0.00000000000E+00  0.00000000000E+00  0.45593999997E+02  0.45594000000E+02  0.51100000000E-03 0. -1.
         11   -1    0    0    0    0 -0.00000000000E+00 -0.00000000000E+00 -0.45593999997E+02  0.45594000000E+02  0.51100000000E-03 0.  1.
    9900012    2    1    2    0    0  0.15850240628E+01 -0.13742380796E+02 -0.38233470700E+02  0.50528885241E+02  0.30000077179E+02 0.  0.
         12    1    1    2    0    0 -0.15850240628E+01  0.13742380796E+02  0.38233470700E+02  0.40659114759E+02  0.00000000000E+00 0. -1.
         11    1    3    3    0    0  0.44513352374E+01 -0.63060556433E+01 -0.33913051338E+01  0.84309948372E+01  0.51100000000E-03 0. -1.
        -11    1    3    3    0    0 -0.11200547815E+02 -0.96935241032E+01 -0.24446289775E+02  0.28583872462E+02  0.51100000000E-03 0.  1.
        -12    1    3    3    0    0  0.83342366404E+01  0.22571989507E+01 -0.10395875791E+02  0.13514017942E+02  0.00000000000E+00 0.  1.
</event>
<event>
 7    1  0.3041451E-011  0.5052886E+02  0.7816164E-02  0.1300439E+00
        -11   -1    0    0    0    0  0.00000000000E+00  0.00000000000E+00  0.45593999997E+02  0.45594000000E+02  0.51100000000E-03 0.  1.
         11   -1    0    0    0    0 -0.00000000000E+00 -0.00000000000E+00 -0.45593999997E+02  0.45594000000E+02  0.51100000000E-03 0. -1.
    9900012    2    1    2    0    0 -0.23497063162E+02  0.16561913682E+02  0.28753375635E+02  0.50528861145E+02  0.30000003935E+02 0.  0.
         12    1    1    2    0    0  0.23497063162E+02 -0.16561913682E+02 -0.28753375635E+02  0.40659138855E+02  0.00000000000E+00 0. -1.
         11    1    3    3    0    0 -0.10685086236E+02  0.17384303157E+01  0.25029123890E+01  0.11111155589E+02  0.51100000000E-03 0. -1.
        -11    1    3    3    0    0  0.89313845350E+00  0.14795852894E+02  0.88343013603E+01  0.17255719050E+02  0.51100000000E-03 0.  1.
        -12    1    3    3    0    0 -0.13705115380E+02  0.27630471747E-01  0.17416161886E+02  0.22161986505E+02  0.00000000000E+00 0.  1.
</event>
<event>
 7    1  0.3041451E-011  0.5052884E+02  0.7816164E-02  0.1300439E+00
        -11   -1    0    0    0    0  0.00000000000E+00  0.00000000000E+00  0.45593999997E+02  0.45594000000E+02  0.51100000000E-03 0.  1.
         11   -1    0    0    0    0 -0.00000000000E+00 -0.00000000000E+00 -0.45593999997E+02  0.45594000000E+02  0.51100000000E-03 0. -1.
    9900012    2    1    2    0    0  0.20572326417E+02 -0.31063231268E+02  0.16279506739E+02  0.50528840015E+02  0.29999939710E+02 0.  0.
         12    1    1    2    0    0 -0.20572326417E+02  0.31063231268E+02 -0.16279506739E+02  0.40659159985E+02  0.00000000000E+00 0. -1.
         11    1    3    3    0    0  0.13835273477E+02 -0.65119807604E+01 -0.39114826286E+01  0.15783547834E+02  0.51100000000E-03 0. -1.
        -11    1    3    3    0    0 -0.30791539718E+01 -0.10505067319E+02  0.59230115834E+01  0.12446674056E+02  0.51100000000E-03 0.  1.
         12    1    3    3    0    0  0.98162069122E+01 -0.14046183188E+02  0.14267977784E+02  0.22298618126E+02  0.00000000000E+00 0. -1.
</event>
<event>
 7    1  0.3041451E-011  0.5052886E+02  0.7816164E-02  0.1300439E+00
        -11   -1    0    0    0    0  0.00000000000E+00  0.00000000000E+00  0.45593999997E+02  0.45594000000E+02  0.51100000000E-03 0.  1.
         11   -1    0    0    0    0 -0.00000000000E+00 -0.00000000000E+00 -0.45593999997E+02  0.45594000000E+02  0.51100000000E-03 0. -1.
    9900012    2    1    2    0    0  0.11266973564E+02  0.35157727241E+02 -0.17033942273E+02  0.50528859977E+02  0.30000000387E+02 0.  0.
         12    1    1    2    0    0 -0.11266973564E+02 -0.35157727241E+02  0.17033942273E+02  0.40659140023E+02  0.00000000000E+00 0. -1.
         11    1    3    3    0    0 -0.21768259090E+01  0.58057557683E+00 -0.20467157529E+01  0.30437944531E+01  0.51100000000E-03 0. -1.
        -11    1    3    3    0    0  0.13567120867E+02  0.31423751203E+02 -0.21822628544E+01  0.34296955837E+02  0.51100000000E-03 0.  1.
        -12    1    3    3    0    0 -0.12332139426E+00  0.31534004611E+01 -0.12804963665E+02  0.13188109687E+02  0.00000000000E+00 0.  1.
</event>
<event>
 7    1  0.3041451E-011  0.5052886E+02  0.7816164E-02  0.1300439E+00
        -11   -1    0    0    0    0  0.00000000000E+00  0.00000000000E+00  0.45593999997E+02  0.45594000000E+02  0.51100000000E-03 0.  1.
         11   -1    0    0    0    0 -0.00000000000E+00 -0.00000000000E+00 -0.45593999997E+02  0.45594000000E+02  0.51100000000E-03 0. -1.
    9900012    2    1    2    0    0  0.48956729314E+01  0.11881540596E+01  0.40345836409E+02  0.50528857866E+02  0.29999993970E+02 0.  0.
         12    1    1    2    0    0 -0.48956729314E+01 -0.11881540596E+01 -0.40345836409E+02  0.40659142134E+02  0.00000000000E+00 0. -1.
         11    1    3    3    0    0 -0.18532556111E+01 -0.45377462122E+01  0.75843322534E+01  0.90303816662E+01  0.51100000000E-03 0. -1.
        -11    1    3    3    0    0 -0.25128917148E+01  0.12510931158E+02  0.23525036905E+02  0.26763134810E+02  0.51100000000E-03 0.  1.
        -12    1    3    3    0    0  0.92618202573E+01 -0.67850308865E+01  0.92364672504E+01  0.14735341390E+02  0.00000000000E+00 0.  1.
</event>
<event>
 7    1  0.3041451E-011  0.5052885E+02  0.7816164E-02  0.1300439E+00
        -11   -1    0    0    0    0  0.00000000000E+00  0.00000000000E+00  0.45593999997E+02  0.45594000000E+02  0.51100000000E-03 0. -1.
         11   -1    0    0    0    0 -0.00000000000E+00 -0.00000000000E+00 -0.45593999997E+02  0.45594000000E+02  0.51100000000E-03 0.  1.
    9900012    2    1    2    0    0 -0.13612699678E+02 -0.38201409569E+02  0.29177247038E+01  0.50528850931E+02  0.29999972891E+02 0.  0.
         12    1    1    2    0    0  0.13612699678E+02  0.38201409569E+02 -0.29177247038E+01  0.40659149069E+02  0.00000000000E+00 0. -1.
         11    1    3    3    0    0 -0.13260860595E+02 -0.31521474706E+02  0.81869314717E+01  0.35163612421E+02  0.51100000000E-03 0. -1.
        -11    1    3    3    0    0  0.57769694556E+01 -0.74151087143E+00 -0.29121764396E+01  0.65118343299E+01  0.51100000000E-03 0.  1.
         12    1    3    3    0    0 -0.61288085386E+01 -0.59384239914E+01 -0.23570303283E+01  0.88534041799E+01  0.00000000000E+00 0. -1.
</event>
<event>
 7    1  0.3041451E-011  0.5052886E+02  0.7816164E-02  0.1300439E+00
        -11   -1    0    0    0    0  0.00000000000E+00  0.00000000000E+00  0.45593999997E+02  0.45594000000E+02  0.51100000000E-03 0.  1.
         11   -1    0    0    0    0 -0.00000000000E+00 -0.00000000000E+00 -0.45593999997E+02  0.45594000000E+02  0.51100000000E-03 0. -1.
    9900012    2    1    2    0    0 -0.37925431093E+02  0.17239544401E+01  0.14555249625E+02  0.50528860385E+02  0.30000001628E+02 0.  0.
         12    1    1    2    0    0  0.37925431093E+02 -0.17239544401E+01 -0.14555249625E+02  0.40659139615E+02  0.00000000000E+00 0. -1.
         11    1    3    3    0    0 -0.10580630438E+02 -0.37671907445E+01  0.83674824246E+01  0.14005578494E+02  0.51100000000E-03 0. -1.
        -11    1    3    3    0    0 -0.21542254680E+02 -0.27720864905E+01 -0.41054910803E+01  0.22104485009E+02  0.51100000000E-03 0.  1.
        -12    1    3    3    0    0 -0.58025459757E+01  0.82632316751E+01  0.10293258281E+02  0.14418796883E+02  0.00000000000E+00 0.  1.
</event>
<event>
 7    1  0.3041451E-011  0.5052886E+02  0.7816164E-02  0.1300439E+00
        -11   -1    0    0    0    0  0.00000000000E+00  0.00000000000E+00  0.45593999997E+02  0.45594000000E+02  0.51100000000E-03 0.  1.
         11   -1    0    0    0    0 -0.00000000000E+00 -0.00000000000E+00 -0.45593999997E+02  0.45594000000E+02  0.51100000000E-03 0. -1.
    9900012    2    1    2    0    0  0.37023483307E+02  0.13635315676E+02 -0.98237401969E+01  0.50528855626E+02  0.29999987162E+02 0.  0.
         12    1    1    2    0    0 -0.37023483307E+02 -0.13635315676E+02  0.98237401969E+01  0.40659144374E+02  0.00000000000E+00 0. -1.
         11    1    3    3    0    0  0.45503427192E+01  0.99366092641E+00 -0.22588692213E+01  0.51764342282E+01  0.51100000000E-03 0. -1.
        -11    1    3    3    0    0  0.17192126324E+02 -0.80160013953E+01 -0.43021518176E+01  0.19450809660E+02  0.51100000000E-03 0.  1.
        -12    1    3    3    0    0  0.15281014263E+02  0.20657656145E+02 -0.32627191581E+01  0.25901611738E+02  0.00000000000E+00 0.  1.
</event>
<event>
 7    1  0.3041451E-011  0.5052884E+02  0.7816164E-02  0.1300439E+00
        -11   -1    0    0    0    0  0.00000000000E+00  0.00000000000E+00  0.45593999997E+02  0.45594000000E+02  0.51100000000E-03 0. -1.
         11   -1    0    0    0    0 -0.00000000000E+00 -0.00000000000E+00 -0.45593999997E+02  0.45594000000E+02  0.51100000000E-03 0.  1.
    9900012    2    1    2    0    0 -0.57850291565E+00  0.26632252476E+02 -0.30717351028E+02  0.50528841231E+02  0.29999943406E+02 0.  0.
         12    1    1    2    0    0  0.57850291565E+00 -0.26632252476E+02  0.30717351028E+02  0.40659158769E+02  0.00000000000E+00 0. -1.
         11    1    3    3    0    0 -0.21216040671E+01  0.37216597810E+01 -0.20028649638E+02  0.20481668924E+02  0.51100000000E-03 0. -1.
        -11    1    3    3    0    0  0.70481832646E+01  0.20972860029E+02 -0.73006555084E+01  0.23298869420E+02  0.51100000000E-03 0.  1.
        -12    1    3    3    0    0 -0.55050821131E+01  0.19377326664E+01 -0.33880458822E+01  0.67483028873E+01  0.00000000000E+00 0.  1.
</event>
<event>
 7    1  0.3041451E-011  0.5052886E+02  0.7816164E-02  0.1300439E+00
        -11   -1    0    0    0    0  0.00000000000E+00  0.00000000000E+00  0.45593999997E+02  0.45594000000E+02  0.51100000000E-03 0.  1.
         11   -1    0    0    0    0 -0.00000000000E+00 -0.00000000000E+00 -0.45593999997E+02  0.45594000000E+02  0.51100000000E-03 0. -1.
    9900012    2    1    2    0    0  0.26588577654E+02  0.11921495056E+01  0.30737465002E+02  0.50528862812E+02  0.30000009003E+02 0.  0.
         12    1    1    2    0    0 -0.26588577654E+02 -0.11921495056E+01 -0.30737465002E+02  0.40659137188E+02  0.00000000000E+00 0. -1.
         11    1    3    3    0    0  0.22935397974E+00 -0.85156625432E+01  0.16154196218E+02  0.18262726179E+02  0.51100000000E-03 0. -1.
        -11    1    3    3    0    0  0.29980332194E+01  0.10370881176E+01  0.42181919121E+01  0.52779634535E+01  0.51100000000E-03 0.  1.
         12    1    3    3    0    0  0.23361190455E+02  0.86707239313E+01  0.10365076872E+02  0.26988173179E+02  0.00000000000E+00 0. -1.
</event>
<event>
 7    1  0.3041451E-011  0.5052887E+02  0.7816164E-02  0.1300439E+00
        -11   -1    0    0    0    0  0.00000000000E+00  0.00000000000E+00  0.45593999997E+02  0.45594000000E+02  0.51100000000E-03 0.  1.
         11   -1    0    0    0    0 -0.00000000000E+00 -0.00000000000E+00 -0.45593999997E+02  0.45594000000E+02  0.51100000000E-03 0. -1.
    9900012    2    1    2    0    0 -0.40193755901E+02  0.55092645024E+01 -0.26972362339E+01  0.50528867052E+02  0.30000021891E+02 0.  0.
         12    1    1    2    0    0  0.40193755901E+02 -0.55092645024E+01  0.26972362339E+01  0.40659132948E+02  0.00000000000E+00 0. -1.
         11    1    3    3    0    0 -0.98263905483E+01 -0.39362100453E+01 -0.64676594441E+01  0.12404931264E+02  0.51100000000E-03 0. -1.
        -11    1    3    3    0    0 -0.86296932333E+01  0.74640048247E+01  0.10267826602E+02  0.15349633114E+02  0.51100000000E-03 0.  1.
        -12    1    3    3    0    0 -0.21737672120E+02  0.19814697230E+01 -0.64974033922E+01  0.22774302674E+02  0.00000000000E+00 0.  1.
</event>
<event>
 7    1  0.3041451E-011  0.5052887E+02  0.7816164E-02  0.1300439E+00
        -11   -1    0    0    0    0  0.00000000000E+00  0.00000000000E+00  0.45593999997E+02  0.45594000000E+02  0.51100000000E-03 0.  1.
         11   -1    0    0    0    0 -0.00000000000E+00 -0.00000000000E+00 -0.45593999997E+02  0.45594000000E+02  0.51100000000E-03 0. -1.
    9900012    2    1    2    0    0  0.25489558408E+02 -0.27700696380E+02  0.15366161875E+02  0.50528866973E+02  0.30000021651E+02 0.  0.
         12    1    1    2    0    0 -0.25489558408E+02  0.27700696380E+02 -0.15366161875E+02  0.40659133027E+02  0.00000000000E+00 0. -1.
         11    1    3    3    0    0  0.94517883812E+01 -0.24861612967E+02  0.57444784723E+01  0.27210937803E+02  0.51100000000E-03 0. -1.
        -11    1    3    3    0    0  0.46514933100E+01  0.54424164344E+01  0.31133339019E+01  0.78069926927E+01  0.51100000000E-03 0.  1.
        -12    1    3    3    0    0  0.11386276716E+02 -0.82814998468E+01  0.65083495011E+01  0.15510936477E+02  0.00000000000E+00 0.  1.
</event>
<event>
 7    1  0.3041451E-011  0.5052886E+02  0.7816164E-02  0.1300439E+00
        -11   -1    0    0    0    0  0.00000000000E+00  0.00000000000E+00  0.45593999997E+02  0.45594000000E+02  0.51100000000E-03 0. -1.
         11   -1    0    0    0    0 -0.00000000000E+00 -0.00000000000E+00 -0.45593999997E+02  0.45594000000E+02  0.51100000000E-03 0.  1.
    9900012    2    1    2    0    0  0.25606623035E+02 -0.20648607775E+02 -0.23897736085E+02  0.50528856670E+02  0.29999990335E+02 0.  0.
         12    1    1    2    0    0 -0.25606623035E+02  0.20648607775E+02  0.23897736085E+02  0.40659143330E+02  0.00000000000E+00 0. -1.
         11    1    3    3    0    0  0.80596853839E+01 -0.60153951912E+01 -0.13107120935E+01  0.10142064595E+02  0.51100000000E-03 0. -1.
        -11    1    3    3    0    0  0.74116260790E+00 -0.16530427141E+02 -0.10462520680E+02  0.19577249110E+02  0.51100000000E-03 0.  1.
        -12    1    3    3    0    0  0.16805775043E+02  0.18972145566E+01 -0.12124503312E+02  0.20809542965E+02  0.00000000000E+00 0.  1.
</event>
<event>
 7    1  0.3041451E-011  0.5052886E+02  0.7816164E-02  0.1300439E+00
        -11   -1    0    0    0    0  0.00000000000E+00  0.00000000000E+00  0.45593999997E+02  0.45594000000E+02  0.51100000000E-03 0.  1.
         11   -1    0    0    0    0 -0.00000000000E+00 -0.00000000000E+00 -0.45593999997E+02  0.45594000000E+02  0.51100000000E-03 0. -1.
    9900012    2    1    2    0    0  0.20184402636E+02  0.19686242215E+02  0.29295179295E+02  0.50528858688E+02  0.29999996468E+02 0.  0.
         12    1    1    2    0    0 -0.20184402636E+02 -0.19686242215E+02 -0.29295179295E+02  0.40659141312E+02  0.00000000000E+00 0. -1.
         11    1    3    3    0    0 -0.56657614796E+00 -0.36061871270E+01  0.33729465933E+01  0.49701471919E+01  0.51100000000E-03 0. -1.
        -11    1    3    3    0    0  0.17738702719E+02  0.26359440212E+02  0.26297245736E+02  0.41243506107E+02  0.51100000000E-03 0.  1.
        -12    1    3    3    0    0  0.30122760650E+01 -0.30670108702E+01 -0.37501303485E+00  0.43152053886E+01  0.00000000000E+00 0.  1.
</event>
<event>
 7    1  0.3041451E-011  0.5052886E+02  0.7816164E-02  0.1300439E+00
        -11   -1    0    0    0    0  0.00000000000E+00  0.00000000000E+00  0.45593999997E+02  0.45594000000E+02  0.51100000000E-03 0.  1.
         11   -1    0    0    0    0 -0.00000000000E+00 -0.00000000000E+00 -0.45593999997E+02  0.45594000000E+02  0.51100000000E-03 0. -1.
    9900012    2    1    2    0    0  0.88648611791E+01  0.30172541488E+02  0.25772025960E+02  0.50528863934E+02  0.30000012414E+02 0.  0.
         12    1    1    2    0    0 -0.88648611791E+01 -0.30172541488E+02 -0.25772025960E+02  0.40659136066E+02  0.00000000000E+00 0. -1.
         11    1    3    3    0    0  0.41704129441E+01  0.81825815658E+00 -0.14768160826E+01  0.44992084346E+01  0.51100000000E-03 0. -1.
        -11    1    3    3    0    0  0.34399712445E+00  0.23016675635E+02  0.30045219912E+02  0.37849715074E+02  0.51100000000E-03 0.  1.
        -12    1    3    3    0    0  0.43504511105E+01  0.63376076965E+01 -0.27963778703E+01  0.81799404260E+01  0.00000000000E+00 0.  1.
</event>
<event>
 7    1  0.3041451E-011  0.5052886E+02  0.7816164E-02  0.1300439E+00
        -11   -1    0    0    0    0  0.00000000000E+00  0.00000000000E+00  0.45593999997E+02  0.45594000000E+02  0.51100000000E-03 0. -1.
         11   -1    0    0    0    0 -0.00000000000E+00 -0.00000000000E+00 -0.45593999997E+02  0.45594000000E+02  0.51100000000E-03 0.  1.
    9900012    2    1    2    0    0  0.32893179018E+02  0.36651039472E+01 -0.23617193378E+02  0.50528855445E+02  0.29999986612E+02 0.  0.
         12    1    1    2    0    0 -0.32893179018E+02 -0.36651039472E+01  0.23617193378E+02  0.40659144555E+02  0.00000000000E+00 0. -1.
         11    1    3    3    0    0  0.26065229069E+02 -0.29640096950E+01 -0.24850127239E+01  0.26350651005E+02  0.51100000000E-03 0. -1.
        -11    1    3    3    0    0 -0.59097345155E+00  0.12974035299E+01 -0.83258956675E+01  0.84470731302E+01  0.51100000000E-03 0.  1.
         12    1    3    3    0    0  0.74189234006E+01  0.53317101122E+01 -0.12806284986E+02  0.15731131310E+02  0.00000000000E+00 0. -1.
</event>
<event>
 7    1  0.3041451E-011  0.5052890E+02  0.7816164E-02  0.1300439E+00
        -11   -1    0    0    0    0  0.00000000000E+00  0.00000000000E+00  0.45593999997E+02  0.45594000000E+02  0.51100000000E-03 0.  1.
         11   -1    0    0    0    0 -0.00000000000E+00 -0.00000000000E+00 -0.45593999997E+02  0.45594000000E+02  0.51100000000E-03 0. -1.
    9900012    2    1    2    0    0  0.20375537799E+02 -0.95445998466E-01  0.35185089663E+02  0.50528902800E+02  0.30000130549E+02 0.  0.
         12    1    1    2    0    0 -0.20375537799E+02  0.95445998466E-01 -0.35185089663E+02  0.40659097200E+02  0.00000000000E+00 0. -1.
         11    1    3    3    0    0  0.99040382901E+01 -0.90136070032E+00  0.10208859050E+00  0.99454938493E+01  0.51100000000E-03 0. -1.
        -11    1    3    3    0    0  0.89524884368E+01  0.86275510357E+01  0.21350007236E+02  0.24706365482E+02  0.51100000000E-03 0.  1.
        -12    1    3    3    0    0  0.15190110718E+01 -0.78216363339E+01  0.13732993836E+02  0.15877043468E+02  0.00000000000E+00 0.  1.
</event>
<event>
 7    1  0.3041451E-011  0.5052886E+02  0.7816164E-02  0.1300439E+00
        -11   -1    0    0    0    0  0.00000000000E+00  0.00000000000E+00  0.45593999997E+02  0.45594000000E+02  0.51100000000E-03 0.  1.
         11   -1    0    0    0    0 -0.00000000000E+00 -0.00000000000E+00 -0.45593999997E+02  0.45594000000E+02  0.51100000000E-03 0. -1.
    9900012    2    1    2    0    0 -0.16215066953E+02  0.30212369473E+02  0.21850636477E+02  0.50528856134E+02  0.29999988705E+02 0.  0.
         12    1    1    2    0    0  0.16215066953E+02 -0.30212369473E+02 -0.21850636477E+02  0.40659143866E+02  0.00000000000E+00 0. -1.
         11    1    3    3    0    0 -0.17910437594E+01  0.26216398721E+02  0.14447842177E+02  0.29987456435E+02  0.51100000000E-03 0. -1.
        -11    1    3    3    0    0 -0.10931874438E+02 -0.18273581329E+01  0.80821055502E+01  0.13717344745E+02  0.51100000000E-03 0.  1.
         12    1    3    3    0    0 -0.34921487558E+01  0.58233288849E+01 -0.67931124956E+00  0.68240549535E+01  0.00000000000E+00 0. -1.
</event>
<event>
 7    1  0.3041451E-011  0.5052886E+02  0.7816164E-02  0.1300439E+00
        -11   -1    0    0    0    0  0.00000000000E+00  0.00000000000E+00  0.45593999997E+02  0.45594000000E+02  0.51100000000E-03 0.  1.
         11   -1    0    0    0    0 -0.00000000000E+00 -0.00000000000E+00 -0.45593999997E+02  0.45594000000E+02  0.51100000000E-03 0. -1.
    9900012    2    1    2    0    0 -0.12572101835E+02 -0.53320041730E+01  0.38297228711E+02  0.50528859084E+02  0.29999997673E+02 0.  0.
         12    1    1    2    0    0  0.12572101835E+02  0.53320041730E+01 -0.38297228711E+02  0.40659140916E+02  0.00000000000E+00 0. -1.
         11    1    3    3    0    0  0.33773996617E+01  0.48540090742E+00  0.13472798680E+01  0.36684609606E+01  0.51100000000E-03 0. -1.
        -11    1    3    3    0    0 -0.96886826722E+01  0.68586433115E+01  0.27225979214E+02  0.29701271091E+02  0.51100000000E-03 0.  1.
        -12    1    3    3    0    0 -0.62608188246E+01 -0.12676048392E+02  0.97239696289E+01  0.17159127033E+02  0.00000000000E+00 0.  1.
</event>
<event>
 7    1  0.3041451E-011  0.5052886E+02  0.7816164E-02  0.1300439E+00
        -11   -1    0    0    0    0  0.00000000000E+00  0.00000000000E+00  0.45593999997E+02  0.45594000000E+02  0.51100000000E-03 0.  1.
         11   -1    0    0    0    0 -0.00000000000E+00 -0.00000000000E+00 -0.45593999997E+02  0.45594000000E+02  0.51100000000E-03 0. -1.
    9900012    2    1    2    0    0  0.34521529797E+02  0.19169280992E+02  0.96937218803E+01  0.50528860841E+02  0.30000003012E+02 0.  0.
         12    1    1    2    0    0 -0.34521529797E+02 -0.19169280992E+02 -0.96937218803E+01  0.40659139159E+02  0.00000000000E+00 0. -1.
         11    1    3    3    0    0  0.15327722706E+02  0.69168631905E+01 -0.61230741432E+01  0.17896203983E+02  0.51100000000E-03 0. -1.
        -11    1    3    3    0    0  0.45806790326E+01  0.11946895208E+01  0.13322272270E+02  0.14138346514E+02  0.51100000000E-03 0.  1.
        -12    1    3    3    0    0  0.14613128058E+02  0.11057728281E+02  0.24945237539E+01  0.18494310345E+02  0.00000000000E+00 0.  1.
</event>
<event>
 7    1  0.3041451E-011  0.5052890E+02  0.7816164E-02  0.1300439E+00
        -11   -1    0    0    0    0  0.00000000000E+00  0.00000000000E+00  0.45593999997E+02  0.45594000000E+02  0.51100000000E-03 0.  1.
         11   -1    0    0    0    0 -0.00000000000E+00 -0.00000000000E+00 -0.45593999997E+02  0.45594000000E+02  0.51100000000E-03 0. -1.
    9900012    2    1    2    0    0 -0.37909600077E+02  0.31054641687E+01 -0.14365962594E+02  0.50528898105E+02  0.30000116279E+02 0.  0.
         12    1    1    2    0    0  0.37909600077E+02 -0.31054641687E+01  0.14365962594E+02  0.40659101895E+02  0.00000000000E+00 0. -1.
         11    1    3    3    0    0 -0.38566366557E+01  0.51483963123E+00 -0.82126591753E+01  0.90877102249E+01  0.51100000000E-03 0. -1.
        -11    1    3    3    0    0 -0.36553745526E+02 -0.56579532225E+00 -0.72443550169E+01  0.37268983300E+02  0.51100000000E-03 0.  1.
        -12    1    3    3    0    0  0.25007821050E+01  0.31564198598E+01  0.10910515980E+01  0.41722045800E+01  0.00000000000E+00 0.  1.
</event>
<event>
 7    1  0.3041451E-011  0.5052887E+02  0.7816164E-02  0.1300439E+00
        -11   -1    0    0    0    0  0.00000000000E+00  0.00000000000E+00  0.45593999997E+02  0.45594000000E+02  0.51100000000E-03 0. -1.
         11   -1    0    0    0    0 -0.00000000000E+00 -0.00000000000E+00 -0.45593999997E+02  0.45594000000E+02  0.51100000000E-03 0.  1.
    9900012    2    1    2    0    0 -0.13627567497E+02 -0.33190580424E+02 -0.19126928631E+02  0.50528872812E+02  0.30000039401E+02 0.  0.
         12    1    1    2    0    0  0.13627567497E+02  0.33190580424E+02  0.19126928631E+02  0.40659127188E+02  0.00000000000E+00 0. -1.
         11    1    3    3    0    0 -0.78014135551E+00  0.39958818000E+01  0.93691536682E+00  0.41777389291E+01  0.51100000000E-03 0. -1.
        -11    1    3    3    0    0 -0.14607069321E+02 -0.28466723438E+02 -0.19429661922E+02  0.37433041289E+02  0.51100000000E-03 0.  1.
         12    1    3    3    0    0  0.17596431796E+01 -0.87197387859E+01 -0.63418207557E+00  0.89180925942E+01  0.00000000000E+00 0. -1.
</event>
<event>
 7    1  0.3041451E-011  0.5052886E+02  0.7816164E-02  0.1300439E+00
        -11   -1    0    0    0    0  0.00000000000E+00  0.00000000000E+00  0.45593999997E+02  0.45594000000E+02  0.51100000000E-03 0.  1.
         11   -1    0    0    0    0 -0.00000000000E+00 -0.00000000000E+00 -0.45593999997E+02  0.45594000000E+02  0.51100000000E-03 0. -1.
    9900012    2    1    2    0    0  0.76456201892E+01  0.38299938796E+02  0.11305969382E+02  0.50528858795E+02  0.29999996794E+02 0.  0.
         12    1    1    2    0    0 -0.76456201892E+01 -0.38299938796E+02 -0.11305969382E+02  0.40659141205E+02  0.00000000000E+00 0. -1.
         11    1    3    3    0    0  0.47694666077E+01  0.71157793942E+01  0.10103785105E+02  0.13246456198E+02  0.51100000000E-03 0. -1.
        -11    1    3    3    0    0  0.28042480130E+01  0.40268962884E+01 -0.73258951043E+01  0.88175075830E+01  0.51100000000E-03 0.  1.
        -12    1    3    3    0    0  0.71905568545E-01  0.27157263113E+02  0.85280793813E+01  0.28464895014E+02  0.00000000000E+00 0.  1.
</event>
<event>
 7    1  0.3041451E-011  0.5052882E+02  0.7816164E-02  0.1300439E+00
        -11   -1    0    0    0    0  0.00000000000E+00  0.00000000000E+00  0.45593999997E+02  0.45594000000E+02  0.51100000000E-03 0.  1.
         11   -1    0    0    0    0 -0.00000000000E+00 -0.00000000000E+00 -0.45593999997E+02  0.45594000000E+02  0.51100000000E-03 0. -1.
    9900012    2    1    2    0    0 -0.13944779198E+02  0.31999072040E+02  0.20851166404E+02  0.50528823684E+02  0.29999890069E+02 0.  0.
         12    1    1    2    0    0  0.13944779198E+02 -0.31999072040E+02 -0.20851166404E+02  0.40659176316E+02  0.00000000000E+00 0. -1.
         11    1    3    3    0    0 -0.71105593807E+01  0.12517987080E+02 -0.46208281965E+01  0.15119924230E+02  0.51100000000E-03 0. -1.
        -11    1    3    3    0    0  0.23698309740E+01 -0.47064872937E-01  0.55414578123E+01  0.60271111566E+01  0.51100000000E-03 0.  1.
         12    1    3    3    0    0 -0.92040507917E+01  0.19528149833E+02  0.19930536788E+02  0.29381788297E+02  0.00000000000E+00 0. -1.
</event>
<event>
 7    1  0.3041451E-011  0.5052885E+02  0.7816164E-02  0.1300439E+00
        -11   -1    0    0    0    0  0.00000000000E+00  0.00000000000E+00  0.45593999997E+02  0.45594000000E+02  0.51100000000E-03 0.  1.
         11   -1    0    0    0    0 -0.00000000000E+00 -0.00000000000E+00 -0.45593999997E+02  0.45594000000E+02  0.51100000000E-03 0. -1.
    9900012    2    1    2    0    0 -0.21501629562E+02 -0.86330968221E+00  0.34497841908E+02  0.50528850061E+02  0.29999970247E+02 0.  0.
         12    1    1    2    0    0  0.21501629562E+02  0.86330968221E+00 -0.34497841908E+02  0.40659149939E+02  0.00000000000E+00 0. -1.
         11    1    3    3    0    0 -0.16177511469E+02 -0.12049709425E+01  0.78637224142E+01  0.18027810815E+02  0.51100000000E-03 0. -1.
        -11    1    3    3    0    0 -0.34965057932E+00  0.67366255840E+01  0.22330313771E+02  0.23326964937E+02  0.51100000000E-03 0.  1.
         12    1    3    3    0    0 -0.49744675134E+01 -0.63949643237E+01  0.43038057226E+01  0.91740743098E+01  0.00000000000E+00 0. -1.
</event>
<event>
 7    1  0.3041451E-011  0.5052886E+02  0.7816164E-02  0.1300439E+00
        -11   -1    0    0    0    0  0.00000000000E+00  0.00000000000E+00  0.45593999997E+02  0.45594000000E+02  0.51100000000E-03 0.  1.
         11   -1    0    0    0    0 -0.00000000000E+00 -0.00000000000E+00 -0.45593999997E+02  0.45594000000E+02  0.51100000000E-03 0. -1.
    9900012    2    1    2    0    0 -0.18753810253E+01 -0.14525543418E+02  0.37929637997E+02  0.50528857065E+02  0.29999991535E+02 0.  0.
         12    1    1    2    0    0  0.18753810253E+01  0.14525543418E+02 -0.37929637997E+02  0.40659142935E+02  0.00000000000E+00 0. -1.
         11    1    3    3    0    0 -0.48280081730E+01 -0.11197396701E+02  0.49332170039E+01  0.13154010266E+02  0.51100000000E-03 0. -1.
        -11    1    3    3    0    0  0.40272078545E+01 -0.26858542925E+01  0.34824426432E+02  0.35159250461E+02  0.51100000000E-03 0.  1.
        -12    1    3    3    0    0 -0.10745807068E+01 -0.64229242479E+00 -0.18280054384E+01  0.22155963390E+01  0.00000000000E+00 0.  1.
</event>
<event>
 7    1  0.3041451E-011  0.5052901E+02  0.7816164E-02  0.1300438E+00
        -11   -1    0    0    0    0  0.00000000000E+00  0.00000000000E+00  0.45593999997E+02  0.45594000000E+02  0.51100000000E-03 0.  1.
         11   -1    0    0    0    0 -0.00000000000E+00 -0.00000000000E+00 -0.45593999997E+02  0.45594000000E+02  0.51100000000E-03 0. -1.
    9900012    2    1    2    0    0  0.28068807858E+02 -0.47899541202E+01  0.29023301451E+02  0.50529007609E+02  0.30000449126E+02 0.  0.
         12    1    1    2    0    0 -0.28068807858E+02  0.47899541202E+01 -0.29023301451E+02  0.40658992391E+02  0.00000000000E+00 0. -1.
         11    1    3    3    0    0  0.71961710681E+00 -0.12204015901E+02  0.70997265183E+01  0.14137254676E+02  0.51100000000E-03 0. -1.
        -11    1    3    3    0    0  0.10016365439E+02  0.58756229209E+01  0.79260403449E+01  0.14059610134E+02  0.51100000000E-03 0.  1.
         12    1    3    3    0    0  0.17332825313E+02  0.15384388596E+01  0.13997534588E+02  0.22332142799E+02  0.00000000000E+00 0. -1.
</event>
<event>
 7    1  0.3041451E-011  0.5052886E+02  0.7816164E-02  0.1300439E+00
        -11   -1    0    0    0    0  0.00000000000E+00  0.00000000000E+00  0.45593999997E+02  0.45594000000E+02  0.51100000000E-03 0. -1.
         11   -1    0    0    0    0 -0.00000000000E+00 -0.00000000000E+00 -0.45593999997E+02  0.45594000000E+02  0.51100000000E-03 0.  1.
    9900012    2    1    2    0    0  0.20235966663E+02 -0.26452264448E+02 -0.23322715896E+02  0.50528859356E+02  0.29999998498E+02 0.  0.
         12    1    1    2    0    0 -0.20235966663E+02  0.26452264448E+02  0.23322715896E+02  0.40659140644E+02  0.00000000000E+00 0. -1.
         11    1    3    3    0    0  0.77133980579E+01 -0.24306647499E+02 -0.13423088796E+02  0.28818204929E+02  0.51100000000E-03 0. -1.
        -11    1    3    3    0    0  0.13305929959E+02 -0.60944689691E+00 -0.12711605577E+02  0.18412064365E+02  0.51100000000E-03 0.  1.
        -12    1    3    3    0    0 -0.78336135385E+00 -0.15361700515E+01  0.28119784770E+01  0.32985900613E+01  0.00000000000E+00 0.  1.
</event>
<event>
 7    1  0.3041451E-011  0.5052886E+02  0.7816164E-02  0.1300439E+00
        -11   -1    0    0    0    0  0.00000000000E+00  0.00000000000E+00  0.45593999997E+02  0.45594000000E+02  0.51100000000E-03 0.  1.
         11   -1    0    0    0    0 -0.00000000000E+00 -0.00000000000E+00 -0.45593999997E+02  0.45594000000E+02  0.51100000000E-03 0. -1.
    9900012    2    1    2    0    0 -0.27894585716E+01 -0.88871571069E+00  0.40553603769E+02  0.50528859904E+02  0.30000000164E+02 0.  0.
         12    1    1    2    0    0  0.27894585716E+01  0.88871571069E+00 -0.40553603769E+02  0.40659140096E+02  0.00000000000E+00 0. -1.
         11    1    3    3    0    0 -0.91166045711E+01 -0.46037633389E+01  0.22242663697E+02  0.24475359127E+02  0.51100000000E-03 0. -1.
        -11    1    3    3    0    0  0.27207344287E+00  0.50381175340E+01 -0.15257347985E+01  0.52711022738E+01  0.51100000000E-03 0.  1.
        -12    1    3    3    0    0  0.60550725566E+01 -0.13230699058E+01  0.19836674870E+02  0.20782398503E+02  0.00000000000E+00 0.  1.
</event>
<event>
 7    1  0.3041451E-011  0.5052886E+02  0.7816164E-02  0.1300439E+00
        -11   -1    0    0    0    0  0.00000000000E+00  0.00000000000E+00  0.45593999997E+02  0.45594000000E+02  0.51100000000E-03 0. -1.
         11   -1    0    0    0    0 -0.00000000000E+00 -0.00000000000E+00 -0.45593999997E+02  0.45594000000E+02  0.51100000000E-03 0.  1.
    9900012    2    1    2    0    0  0.40351211261E+02  0.35542786302E+01 -0.35088756355E+01  0.50528863818E+02  0.30000012062E+02 0.  0.
         12    1    1    2    0    0 -0.40351211261E+02 -0.35542786302E+01  0.35088756355E+01  0.40659136182E+02  0.00000000000E+00 0. -1.
         11    1    3    3    0    0  0.19738014022E+02  0.16520006722E-01 -0.72993665432E+01  0.21044482000E+02  0.51100000000E-03 0. -1.
        -11    1    3    3    0    0  0.99874632066E+01  0.11502405747E+02  0.52783758369E+01  0.16121910898E+02  0.51100000000E-03 0.  1.
         12    1    3    3    0    0  0.10625734032E+02 -0.79646471236E+01 -0.14878849292E+01  0.13362470920E+02  0.00000000000E+00 0. -1.
</event>
<event>
 7    1  0.3041451E-011  0.5052877E+02  0.7816164E-02  0.1300439E+00
        -11   -1    0    0    0    0  0.00000000000E+00  0.00000000000E+00  0.45593999997E+02  0.45594000000E+02  0.51100000000E-03 0.  1.
         11   -1    0    0    0    0 -0.00000000000E+00 -0.00000000000E+00 -0.45593999997E+02  0.45594000000E+02  0.51100000000E-03 0. -1.
    9900012    2    1    2    0    0  0.34004318587E+02 -0.31740455690E+01  0.22063654960E+02  0.50528768354E+02  0.29999721889E+02 0.  0.
         12    1    1    2    0    0 -0.34004318587E+02  0.31740455690E+01 -0.22063654960E+02  0.40659231646E+02  0.00000000000E+00 0. -1.
         11    1    3    3    0    0 -0.26052737710E+01 -0.14329368244E+01  0.85902024575E+01  0.90902331041E+01  0.51100000000E-03 0. -1.
        -11    1    3    3    0    0  0.15286047471E+02 -0.74742952921E+01  0.72642698771E+01  0.18501296022E+02  0.51100000000E-03 0.  1.
         12    1    3    3    0    0  0.21323544887E+02  0.57331865475E+01  0.62091826250E+01  0.22937239228E+02  0.00000000000E+00 0. -1.
</event>
<event>
 7    1  0.3091982E-011  0.5052887E+02  0.7816164E-02  0.1300439E+00
        -11   -1    0    0    0    0  0.00000000000E+00  0.00000000000E+00  0.45593999997E+02  0.45594000000E+02  0.51100000000E-03 0. -1.
         11   -1    0    0    0    0 -0.00000000000E+00 -0.00000000000E+00 -0.45593999997E+02  0.45594000000E+02  0.51100000000E-03 0.  1.
    9900012    2    1    2    0    0  0.56095093325E+01 -0.22013623994E+02 -0.33720892386E+02  0.50528870403E+02  0.30000032076E+02 0.  0.
         12    1    1    2    0    0 -0.56095093325E+01  0.22013623994E+02  0.33720892386E+02  0.40659129597E+02  0.00000000000E+00 0. -1.
         11    1    3    3    0    0  0.32798920690E+01  0.14377263674E+01  0.34679710343E+01  0.49851351484E+01  0.51100000000E-03 0. -1.
        -11    1    3    3    0    0 -0.41576744282E+01 -0.82580933871E+01 -0.17903899211E+02  0.20150234993E+02  0.51100000000E-03 0.  1.
         12    1    3    3    0    0  0.64872916916E+01 -0.15193256974E+02 -0.19284964209E+02  0.25393500261E+02  0.00000000000E+00 0. -1.
</event>
<event>
 7    1  0.3041451E-011  0.5052874E+02  0.7816164E-02  0.1300439E+00
        -11   -1    0    0    0    0  0.00000000000E+00  0.00000000000E+00  0.45593999997E+02  0.45594000000E+02  0.51100000000E-03 0.  1.
         11   -1    0    0    0    0 -0.00000000000E+00 -0.00000000000E+00 -0.45593999997E+02  0.45594000000E+02  0.51100000000E-03 0. -1.
    9900012    2    1    2    0    0  0.10956450251E+02  0.41448963108E+01  0.38935221416E+02  0.50528739871E+02  0.29999635310E+02 0.  0.
         12    1    1    2    0    0 -0.10956450251E+02 -0.41448963108E+01 -0.38935221416E+02  0.40659260129E+02  0.00000000000E+00 0. -1.
         11    1    3    3    0    0  0.97694003800E+01  0.24165644337E+01  0.17010383395E+02  0.19764465865E+02  0.51100000000E-03 0. -1.
        -11    1    3    3    0    0 -0.74924427475E+01  0.78871100497E+01  0.99364975984E+01  0.14733539563E+02  0.51100000000E-03 0.  1.
        -12    1    3    3    0    0  0.86794926187E+01 -0.61587781726E+01  0.11988340423E+02  0.16030734443E+02  0.00000000000E+00 0.  1.
</event>
<event>
 7    1  0.3041451E-011  0.5052893E+02  0.7816164E-02  0.1300439E+00
        -11   -1    0    0    0    0  0.00000000000E+00  0.00000000000E+00  0.45593999997E+02  0.45594000000E+02  0.51100000000E-03 0.  1.
         11   -1    0    0    0    0 -0.00000000000E+00 -0.00000000000E+00 -0.45593999997E+02  0.45594000000E+02  0.51100000000E-03 0. -1.
    9900012    2    1    2    0    0  0.18968354880E+02  0.31915525825E+02 -0.16575909950E+02  0.50528928857E+02  0.30000209753E+02 0.  0.
         12    1    1    2    0    0 -0.18968354880E+02 -0.31915525825E+02  0.16575909950E+02  0.40659071143E+02  0.00000000000E+00 0. -1.
         11    1    3    3    0    0  0.46063072892E+01  0.81991567991E+01  0.37485887963E+01  0.10124038586E+02  0.51100000000E-03 0. -1.
        -11    1    3    3    0    0  0.21742404861E+01  0.22498641599E+02 -0.14381630884E+02  0.26790810040E+02  0.51100000000E-03 0.  1.
        -12    1    3    3    0    0  0.12187807105E+02  0.12177274274E+01 -0.59428678621E+01  0.13614080231E+02  0.00000000000E+00 0.  1.
</event>
<event>
 7    1  0.3041451E-011  0.5052887E+02  0.7816164E-02  0.1300439E+00
        -11   -1    0    0    0    0  0.00000000000E+00  0.00000000000E+00  0.45593999997E+02  0.45594000000E+02  0.51100000000E-03 0.  1.
         11   -1    0    0    0    0 -0.00000000000E+00 -0.00000000000E+00 -0.45593999997E+02  0.45594000000E+02  0.51100000000E-03 0. -1.
    9900012    2    1    2    0    0 -0.69894972191E+01  0.17149129228E+02  0.36196945274E+02  0.50528873696E+02  0.30000042087E+02 0.  0.
         12    1    1    2    0    0  0.69894972191E+01 -0.17149129228E+02 -0.36196945274E+02  0.40659126304E+02  0.00000000000E+00 0. -1.
         11    1    3    3    0    0  0.77164137151E+01  0.36809357280E+01  0.14323690574E+02  0.16681140260E+02  0.51100000000E-03 0. -1.
        -11    1    3    3    0    0 -0.15279833911E+02  0.15281288655E+02  0.23062371511E+02  0.31604811142E+02  0.51100000000E-03 0.  1.
        -12    1    3    3    0    0  0.57392297704E+00 -0.18130951554E+01 -0.11891168118E+01  0.22429222943E+01  0.00000000000E+00 0.  1.
</event>
<event>
 7    1  0.3041451E-011  0.5052886E+02  0.7816164E-02  0.1300439E+00
        -11   -1    0    0    0    0  0.00000000000E+00  0.00000000000E+00  0.45593999997E+02  0.45594000000E+02  0.51100000000E-03 0.  1.
         11   -1    0    0    0    0 -0.00000000000E+00 -0.00000000000E+00 -0.45593999997E+02  0.45594000000E+02  0.51100000000E-03 0. -1.
    9900012    2    1    2    0    0  0.64996020557E+01 -0.25387492733E+02  0.31086915491E+02  0.50528856762E+02  0.29999990613E+02 0.  0.
         12    1    1    2    0    0 -0.64996020557E+01  0.25387492733E+02 -0.31086915491E+02  0.40659143238E+02  0.00000000000E+00 0. -1.
         11    1    3    3    0    0 -0.33582037417E+01 -0.37077472562E+01  0.23279332584E+02  0.23810759078E+02  0.51100000000E-03 0. -1.
        -11    1    3    3    0    0  0.70559405351E+01 -0.21513660758E+02  0.76804597209E+01  0.23908436959E+02  0.51100000000E-03 0.  1.
        -12    1    3    3    0    0  0.28018652623E+01 -0.16608471874E+00  0.12712318625E+00  0.28096607244E+01  0.00000000000E+00 0.  1.
</event>
<event>
 7    1  0.3041451E-011  0.5052884E+02  0.7816164E-02  0.1300439E+00
        -11   -1    0    0    0    0  0.00000000000E+00  0.00000000000E+00  0.45593999997E+02  0.45594000000E+02  0.51100000000E-03 0. -1.
         11   -1    0    0    0    0 -0.00000000000E+00 -0.00000000000E+00 -0.45593999997E+02  0.45594000000E+02  0.51100000000E-03 0.  1.
    9900012    2    1    2    0    0 -0.29607287926E+01 -0.17570697269E+02 -0.36546841129E+02  0.50528844647E+02  0.29999953788E+02 0.  0.
         12    1    1    2    0    0  0.29607287926E+01  0.17570697269E+02  0.36546841129E+02  0.40659155353E+02  0.00000000000E+00 0. -1.
         11    1    3    3    0    0  0.17171035709E+00  0.31448106977E-01  0.19633536865E+01  0.19710990309E+01  0.51100000000E-03 0. -1.
        -11    1    3    3    0    0 -0.84597147741E+01 -0.13260587213E+02 -0.38603250653E+02  0.41684780298E+02  0.51100000000E-03 0.  1.
        -12    1    3    3    0    0  0.53272756245E+01 -0.43415581633E+01  0.93055837053E-01  0.68729653173E+01  0.00000000000E+00 0.  1.
</event>
<event>
 7    1  0.3041451E-011  0.5052885E+02  0.7816164E-02  0.1300439E+00
        -11   -1    0    0    0    0  0.00000000000E+00  0.00000000000E+00  0.45593999997E+02  0.45594000000E+02  0.51100000000E-03 0.  1.
         11   -1    0    0    0    0 -0.00000000000E+00 -0.00000000000E+00 -0.45593999997E+02  0.45594000000E+02  0.51100000000E-03 0. -1.
    9900012    2    1    2    0    0 -0.23150495332E+02 -0.64697778191E+01  0.32792722731E+02  0.50528854371E+02  0.29999983347E+02 0.  0.
         12    1    1    2    0    0  0.23150495332E+02  0.64697778191E+01 -0.32792722731E+02  0.40659145629E+02  0.00000000000E+00 0. -1.
         11    1    3    3    0    0 -0.61689993418E+01 -0.10983468719E+02  0.25318052518E+02  0.28278913019E+02  0.51100000000E-03 0.  1.
        -11    1    3    3    0    0 -0.14685640319E+02  0.43560400285E+01  0.10409632544E+02  0.18520355457E+02  0.51100000000E-03 0. -1.
         12    1    3    3    0    0 -0.22958556715E+01  0.15765087171E+00 -0.29349623311E+01  0.37295858948E+01  0.00000000000E+00 0. -1.
</event>
<event>
 7    1  0.3041451E-011  0.5052888E+02  0.7816164E-02  0.1300439E+00
        -11   -1    0    0    0    0  0.00000000000E+00  0.00000000000E+00  0.45593999997E+02  0.45594000000E+02  0.51100000000E-03 0.  1.
         11   -1    0    0    0    0 -0.00000000000E+00 -0.00000000000E+00 -0.45593999997E+02  0.45594000000E+02  0.51100000000E-03 0. -1.
    9900012    2    1    2    0    0 -0.34323134814E+02  0.60903070954E+01  0.20928315226E+02  0.50528882914E+02  0.30000070105E+02 0.  0.
         12    1    1    2    0    0  0.34323134814E+02 -0.60903070954E+01 -0.20928315226E+02  0.40659117086E+02  0.00000000000E+00 0. -1.
         11    1    3    3    0    0 -0.18650450959E+02  0.81873046719E+00  0.67839007256E+01  0.19862803173E+02  0.51100000000E-03 0. -1.
        -11    1    3    3    0    0 -0.24579893437E+00  0.61784667593E+01  0.13897047454E+02  0.15210581738E+02  0.51100000000E-03 0.  1.
        -12    1    3    3    0    0 -0.15426884921E+02 -0.90689013110E+00  0.24736704676E+00  0.15455498003E+02  0.00000000000E+00 0.  1.
</event>
<event>
 7    1  0.3041451E-011  0.5052886E+02  0.7816164E-02  0.1300439E+00
        -11   -1    0    0    0    0  0.00000000000E+00  0.00000000000E+00  0.45593999997E+02  0.45594000000E+02  0.51100000000E-03 0.  1.
         11   -1    0    0    0    0 -0.00000000000E+00 -0.00000000000E+00 -0.45593999997E+02  0.45594000000E+02  0.51100000000E-03 0. -1.
    9900012    2    1    2    0    0 -0.94741739667E+00 -0.55693395296E+01  0.40264750909E+02  0.50528864393E+02  0.30000013810E+02 0.  0.
         12    1    1    2    0    0  0.94741739667E+00  0.55693395296E+01 -0.40264750909E+02  0.40659135607E+02  0.00000000000E+00 0. -1.
         11    1    3    3    0    0 -0.13024593364E+02  0.96532088258E+00  0.13504446296E+02  0.18786749232E+02  0.51100000000E-03 0. -1.
        -11    1    3    3    0    0  0.95793229802E+01 -0.16810935669E+00  0.11158990069E+02  0.14707642542E+02  0.51100000000E-03 0.  1.
         12    1    3    3    0    0  0.24978529874E+01 -0.63665510555E+01  0.15601314545E+02  0.17034472619E+02  0.00000000000E+00 0. -1.
</event>
<event>
 7    1  0.3041451E-011  0.5052886E+02  0.7816164E-02  0.1300439E+00
        -11   -1    0    0    0    0  0.00000000000E+00  0.00000000000E+00  0.45593999997E+02  0.45594000000E+02  0.51100000000E-03 0. -1.
         11   -1    0    0    0    0 -0.00000000000E+00 -0.00000000000E+00 -0.45593999997E+02  0.45594000000E+02  0.51100000000E-03 0.  1.
    9900012    2    1    2    0    0 -0.53269133809E+01  0.38768230016E+02 -0.11036954719E+02  0.50528855467E+02  0.29999986676E+02 0.  0.
         12    1    1    2    0    0  0.53269133809E+01 -0.38768230016E+02  0.11036954719E+02  0.40659144533E+02  0.00000000000E+00 0. -1.
         11    1    3    3    0    0 -0.40464934831E+01  0.36465073699E+01 -0.51727070841E+01  0.75118589142E+01  0.51100000000E-03 0. -1.
        -11    1    3    3    0    0 -0.70079363921E+00  0.26471566020E+02  0.71045192902E+01  0.27417314126E+02  0.51100000000E-03 0.  1.
        -12    1    3    3    0    0 -0.57962625855E+00  0.86501566261E+01 -0.12968766925E+02  0.15599682426E+02  0.00000000000E+00 0.  1.
</event>
<event>
 7    1  0.3041451E-011  0.5052886E+02  0.7816164E-02  0.1300439E+00
        -11   -1    0    0    0    0  0.00000000000E+00  0.00000000000E+00  0.45593999997E+02  0.45594000000E+02  0.51100000000E-03 0. -1.
         11   -1    0    0    0    0 -0.00000000000E+00 -0.00000000000E+00 -0.45593999997E+02  0.45594000000E+02  0.51100000000E-03 0.  1.
    9900012    2    1    2    0    0 -0.28154466990E+02  0.17328333693E+02  0.23668986104E+02  0.50528855109E+02  0.29999985590E+02 0.  0.
         12    1    1    2    0    0  0.28154466990E+02 -0.17328333693E+02 -0.23668986104E+02  0.40659144891E+02  0.00000000000E+00 0. -1.
         11    1    3    3    0    0 -0.38695465058E+01  0.21287324778E+01 -0.65472719763E+01  0.78975732168E+01  0.51100000000E-03 0. -1.
        -11    1    3    3    0    0 -0.21234435677E+02  0.16348073319E+02  0.27350300094E+02  0.38290986867E+02  0.51100000000E-03 0.  1.
        -12    1    3    3    0    0 -0.30504848066E+01 -0.11484721035E+01  0.28659579861E+01  0.43402950252E+01  0.00000000000E+00 0.  1.
</event>
<event>
 7    1  0.3041451E-011  0.5052886E+02  0.7816164E-02  0.1300439E+00
        -11   -1    0    0    0    0  0.00000000000E+00  0.00000000000E+00  0.45593999997E+02  0.45594000000E+02  0.51100000000E-03 0. -1.
         11   -1    0    0    0    0 -0.00000000000E+00 -0.00000000000E+00 -0.45593999997E+02  0.45594000000E+02  0.51100000000E-03 0.  1.
    9900012    2    1    2    0    0 -0.17940033692E+02 -0.48146471580E+01 -0.36168222949E+02  0.50528856042E+02  0.29999988424E+02 0.  0.
         12    1    1    2    0    0  0.17940033692E+02  0.48146471580E+01  0.36168222949E+02  0.40659143958E+02  0.00000000000E+00 0. -1.
         11    1    3    3    0    0  0.56335839294E+01 -0.36407956368E+01 -0.98379402555E+01  0.11907045372E+02  0.51100000000E-03 0. -1.
        -11    1    3    3    0    0 -0.12554772581E+02  0.70271284929E+01 -0.11604043313E+02  0.18483957122E+02  0.51100000000E-03 0.  1.
         12    1    3    3    0    0 -0.11018845040E+02 -0.82009800141E+01 -0.14726239381E+02  0.20137853548E+02  0.00000000000E+00 0. -1.
</event>
<event>
 7    1  0.3041451E-011  0.5052886E+02  0.7816164E-02  0.1300439E+00
        -11   -1    0    0    0    0  0.00000000000E+00  0.00000000000E+00  0.45593999997E+02  0.45594000000E+02  0.51100000000E-03 0.  1.
         11   -1    0    0    0    0 -0.00000000000E+00 -0.00000000000E+00 -0.45593999997E+02  0.45594000000E+02  0.51100000000E-03 0. -1.
    9900012    2    1    2    0    0 -0.72983064809E+00  0.37247328286E+02  0.16287108044E+02  0.50528855818E+02  0.29999987744E+02 0.  0.
         12    1    1    2    0    0  0.72983064809E+00 -0.37247328286E+02 -0.16287108044E+02  0.40659144182E+02  0.00000000000E+00 0. -1.
         11    1    3    3    0    0 -0.62203257735E+01  0.17715931652E+02 -0.40838320207E+01  0.19215211975E+02  0.51100000000E-03 0. -1.
        -11    1    3    3    0    0  0.74759262562E+00  0.17623925086E+02  0.11444735272E+02  0.21027210844E+02  0.51100000000E-03 0.  1.
         12    1    3    3    0    0  0.47429024997E+01  0.19074715478E+01  0.89262047930E+01  0.10286432999E+02  0.00000000000E+00 0. -1.
</event>
<event>
 7    1  0.3041451E-011  0.5052886E+02  0.7816164E-02  0.1300439E+00
        -11   -1    0    0    0    0  0.00000000000E+00  0.00000000000E+00  0.45593999997E+02  0.45594000000E+02  0.51100000000E-03 0.  1.
         11   -1    0    0    0    0 -0.00000000000E+00 -0.00000000000E+00 -0.45593999997E+02  0.45594000000E+02  0.51100000000E-03 0. -1.
    9900012    2    1    2    0    0  0.27518362961E+02  0.18904991090E+02  0.23205751960E+02  0.50528856967E+02  0.29999991237E+02 0.  0.
         12    1    1    2    0    0 -0.27518362961E+02 -0.18904991090E+02 -0.23205751960E+02  0.40659143033E+02  0.00000000000E+00 0. -1.
         11    1    3    3    0    0 -0.87651439471E+00 -0.44646652400E+00 -0.16868833225E+01  0.19527379358E+01  0.51100000000E-03 0. -1.
        -11    1    3    3    0    0  0.24504073064E+02  0.15661312438E+02  0.29559918372E+02  0.41467036046E+02  0.51100000000E-03 0.  1.
        -12    1    3    3    0    0  0.38908042914E+01  0.36901451759E+01 -0.46672830896E+01  0.71090829853E+01  0.00000000000E+00 0.  1.
</event>
<event>
 7    1  0.3041451E-011  0.5052886E+02  0.7816164E-02  0.1300439E+00
        -11   -1    0    0    0    0  0.00000000000E+00  0.00000000000E+00  0.45593999997E+02  0.45594000000E+02  0.51100000000E-03 0.  1.
         11   -1    0    0    0    0 -0.00000000000E+00 -0.00000000000E+00 -0.45593999997E+02  0.45594000000E+02  0.51100000000E-03 0. -1.
    9900012    2    1    2    0    0  0.40418038710E+02  0.25346542326E+01 -0.36226704731E+01  0.50528855068E+02  0.29999985463E+02 0.  0.
         12    1    1    2    0    0 -0.40418038710E+02 -0.25346542326E+01  0.36226704731E+01  0.40659144932E+02  0.00000000000E+00 0. -1.
         11    1    3    3    0    0  0.30083562834E+02 -0.95279023102E+00  0.10042454106E+02  0.31729788004E+02  0.51100000000E-03 0. -1.
        -11    1    3    3    0    0  0.93565432135E+01  0.80029871896E-01 -0.10205423881E+02  0.13845648506E+02  0.51100000000E-03 0.  1.
         12    1    3    3    0    0  0.97793266263E+00  0.34074145917E+01 -0.34597006977E+01  0.49534185579E+01  0.00000000000E+00 0. -1.
</event>
<event>
 7    1  0.3041451E-011  0.5052888E+02  0.7816164E-02  0.1300439E+00
        -11   -1    0    0    0    0  0.00000000000E+00  0.00000000000E+00  0.45593999997E+02  0.45594000000E+02  0.51100000000E-03 0.  1.
         11   -1    0    0    0    0 -0.00000000000E+00 -0.00000000000E+00 -0.45593999997E+02  0.45594000000E+02  0.51100000000E-03 0. -1.
    9900012    2    1    2    0    0  0.16991089098E+02 -0.33619793900E+02  0.15302831810E+02  0.50528876645E+02  0.30000051049E+02 0.  0.
         12    1    1    2    0    0 -0.16991089098E+02  0.33619793900E+02 -0.15302831810E+02  0.40659123355E+02  0.00000000000E+00 0. -1.
         11    1    3    3    0    0  0.22680692157E+02 -0.19532965700E+02  0.18192004959E+01  0.29987664739E+02  0.51100000000E-03 0. -1.
        -11    1    3    3    0    0 -0.46462299513E+01 -0.10107948016E+02  0.80764214268E+01  0.13747241512E+02  0.51100000000E-03 0.  1.
         12    1    3    3    0    0 -0.10433731073E+01 -0.39788801836E+01  0.54072098871E+01  0.67939703944E+01  0.00000000000E+00 0. -1.
</event>
<event>
 7    1  0.3041451E-011  0.5052885E+02  0.7816164E-02  0.1300439E+00
        -11   -1    0    0    0    0  0.00000000000E+00  0.00000000000E+00  0.45593999997E+02  0.45594000000E+02  0.51100000000E-03 0.  1.
         11   -1    0    0    0    0 -0.00000000000E+00 -0.00000000000E+00 -0.45593999997E+02  0.45594000000E+02  0.51100000000E-03 0. -1.
    9900012    2    1    2    0    0  0.36808103530E+02  0.11662359607E+02  0.12740473115E+02  0.50528846390E+02  0.29999959088E+02 0.  0.
         12    1    1    2    0    0 -0.36808103530E+02 -0.11662359607E+02 -0.12740473115E+02  0.40659153610E+02  0.00000000000E+00 0. -1.
         11    1    3    3    0    0  0.28005752543E+02  0.60910390934E+01  0.44948018814E+00  0.28664001211E+02  0.51100000000E-03 0. -1.
        -11    1    3    3    0    0  0.73460634506E+01  0.56415231274E+01  0.15659854885E+02  0.18194023379E+02  0.51100000000E-03 0.  1.
        -12    1    3    3    0    0  0.14562875362E+01 -0.70202613674E-01 -0.33688619587E+01  0.36708218006E+01  0.00000000000E+00 0.  1.
</event>
<event>
 7    1  0.3041451E-011  0.5052886E+02  0.7816164E-02  0.1300439E+00
        -11   -1    0    0    0    0  0.00000000000E+00  0.00000000000E+00  0.45593999997E+02  0.45594000000E+02  0.51100000000E-03 0.  1.
         11   -1    0    0    0    0 -0.00000000000E+00 -0.00000000000E+00 -0.45593999997E+02  0.45594000000E+02  0.51100000000E-03 0. -1.
    9900012    2    1    2    0    0 -0.38348664335E+01  0.38819665043E+02  0.11467046912E+02  0.50528858845E+02  0.29999996945E+02 0.  0.
         12    1    1    2    0    0  0.38348664335E+01 -0.38819665043E+02 -0.11467046912E+02  0.40659141155E+02  0.00000000000E+00 0. -1.
         11    1    3    3    0    0  0.35300090825E+01 -0.16828707388E+01 -0.20153159289E+01  0.43993768423E+01  0.51100000000E-03 0. -1.
        -11    1    3    3    0    0 -0.55088236489E+01  0.16392661706E+02  0.13515144715E+02  0.21948248967E+02  0.51100000000E-03 0.  1.
         12    1    3    3    0    0 -0.18560518671E+01  0.24109874075E+02 -0.32781873478E-01  0.24181233035E+02  0.00000000000E+00 0. -1.
</event>
<event>
 7    1  0.3041451E-011  0.5052886E+02  0.7816164E-02  0.1300439E+00
        -11   -1    0    0    0    0  0.00000000000E+00  0.00000000000E+00  0.45593999997E+02  0.45594000000E+02  0.51100000000E-03 0. -1.
         11   -1    0    0    0    0 -0.00000000000E+00 -0.00000000000E+00 -0.45593999997E+02  0.45594000000E+02  0.51100000000E-03 0.  1.
    9900012    2    1    2    0    0  0.38211470893E+02 -0.65614268434E+01 -0.12247319450E+02  0.50528860022E+02  0.30000000524E+02 0.  0.
         12    1    1    2    0    0 -0.38211470893E+02  0.65614268434E+01  0.12247319450E+02  0.40659139978E+02  0.00000000000E+00 0. -1.
         11    1    3    3    0    0 -0.21982221848E+01  0.20068637340E+01 -0.13527479220E-01  0.29765527165E+01  0.51100000000E-03 0. -1.
        -11    1    3    3    0    0  0.25804256916E+02 -0.15086407803E+02 -0.91873652309E+01  0.31270865922E+02  0.51100000000E-03 0.  1.
         12    1    3    3    0    0  0.14605436162E+02  0.65181172255E+01 -0.30464267397E+01  0.16281441383E+02  0.00000000000E+00 0. -1.
</event>
<event>
 7    1  0.3041451E-011  0.5052886E+02  0.7816164E-02  0.1300439E+00
        -11   -1    0    0    0    0  0.00000000000E+00  0.00000000000E+00  0.45593999997E+02  0.45594000000E+02  0.51100000000E-03 0.  1.
         11   -1    0    0    0    0 -0.00000000000E+00 -0.00000000000E+00 -0.45593999997E+02  0.45594000000E+02  0.51100000000E-03 0. -1.
    9900012    2    1    2    0    0 -0.20195206634E+01 -0.29790366504E+02  0.27597485620E+02  0.50528860650E+02  0.30000002432E+02 0.  0.
         12    1    1    2    0    0  0.20195206634E+01  0.29790366504E+02 -0.27597485620E+02  0.40659139350E+02  0.00000000000E+00 0. -1.
         11    1    3    3    0    0  0.98049619153E+00  0.13796601531E+01 -0.11812134016E+01  0.20640010370E+01  0.51100000000E-03 0. -1.
        -11    1    3    3    0    0 -0.11446442660E+01 -0.17468274600E+02  0.29841582136E+02  0.34597266548E+02  0.51100000000E-03 0.  1.
        -12    1    3    3    0    0 -0.18553725889E+01 -0.13701752057E+02 -0.10628831145E+01  0.13867593065E+02  0.00000000000E+00 0.  1.
</event>
<event>
 7    1  0.3041451E-011  0.5052893E+02  0.7816164E-02  0.1300439E+00
        -11   -1    0    0    0    0  0.00000000000E+00  0.00000000000E+00  0.45593999997E+02  0.45594000000E+02  0.51100000000E-03 0.  1.
         11   -1    0    0    0    0 -0.00000000000E+00 -0.00000000000E+00 -0.45593999997E+02  0.45594000000E+02  0.51100000000E-03 0. -1.
    9900012    2    1    2    0    0  0.38726260133E+02 -0.53537491607E+01  0.11170234335E+02  0.50528929805E+02  0.30000212635E+02 0.  0.
         12    1    1    2    0    0 -0.38726260133E+02  0.53537491607E+01 -0.11170234335E+02  0.40659070195E+02  0.00000000000E+00 0. -1.
         11    1    3    3    0    0  0.10935928582E+02 -0.39735915263E+01 -0.91440986865E+01  0.14798598063E+02  0.51100000000E-03 0. -1.
        -11    1    3    3    0    0  0.34488414490E+01 -0.29345309635E+01  0.57601066659E+01  0.73269917688E+01  0.51100000000E-03 0.  1.
         12    1    3    3    0    0  0.24341490102E+02  0.15543733291E+01  0.14554226356E+02  0.28403339974E+02  0.00000000000E+00 0. -1.
</event>
<event>
 7    1  0.3041451E-011  0.5052886E+02  0.7816164E-02  0.1300439E+00
        -11   -1    0    0    0    0  0.00000000000E+00  0.00000000000E+00  0.45593999997E+02  0.45594000000E+02  0.51100000000E-03 0. -1.
         11   -1    0    0    0    0 -0.00000000000E+00 -0.00000000000E+00 -0.45593999997E+02  0.45594000000E+02  0.51100000000E-03 0.  1.
    9900012    2    1    2    0    0  0.32292836428E+02 -0.16434175727E+02 -0.18446040661E+02  0.50528857948E+02  0.29999994218E+02 0.  0.
         12    1    1    2    0    0 -0.32292836428E+02  0.16434175727E+02  0.18446040661E+02  0.40659142052E+02  0.00000000000E+00 0. -1.
         11    1    3    3    0    0  0.17373516535E+02 -0.18430064666E+02 -0.43364362749E+01  0.25696518057E+02  0.51100000000E-03 0. -1.
        -11    1    3    3    0    0  0.68683039638E+01 -0.19568017640E+01 -0.14164678463E+02  0.15863189739E+02  0.51100000000E-03 0.  1.
         12    1    3    3    0    0  0.80510159288E+01  0.39526907038E+01  0.55074077521E-01  0.89691501515E+01  0.00000000000E+00 0. -1.
</event>
<event>
 7    1  0.3041451E-011  0.5052886E+02  0.7816164E-02  0.1300439E+00
        -11   -1    0    0    0    0  0.00000000000E+00  0.00000000000E+00  0.45593999997E+02  0.45594000000E+02  0.51100000000E-03 0.  1.
         11   -1    0    0    0    0 -0.00000000000E+00 -0.00000000000E+00 -0.45593999997E+02  0.45594000000E+02  0.51100000000E-03 0. -1.
    9900012    2    1    2    0    0  0.36879771514E+02  0.37763523149E+01  0.16696922470E+02  0.50528860761E+02  0.30000002768E+02 0.  0.
         12    1    1    2    0    0 -0.36879771514E+02 -0.37763523149E+01 -0.16696922470E+02  0.40659139239E+02  0.00000000000E+00 0. -1.
         11    1    3    3    0    0  0.62916412946E+00  0.21998139964E+01 -0.57108799272E+01  0.61521686359E+01  0.51100000000E-03 0. -1.
        -11    1    3    3    0    0  0.24175573038E+02 -0.76461775888E+00  0.80981585013E+01  0.25507315488E+02  0.51100000000E-03 0.  1.
         12    1    3    3    0    0  0.12075034347E+02  0.23411560774E+01  0.14309643896E+02  0.18869376637E+02  0.00000000000E+00 0. -1.
</event>
<event>
 7    1  0.3041451E-011  0.5052881E+02  0.7816164E-02  0.1300439E+00
        -11   -1    0    0    0    0  0.00000000000E+00  0.00000000000E+00  0.45593999997E+02  0.45594000000E+02  0.51100000000E-03 0. -1.
         11   -1    0    0    0    0 -0.00000000000E+00 -0.00000000000E+00 -0.45593999997E+02  0.45594000000E+02  0.51100000000E-03 0.  1.
    9900012    2    1    2    0    0  0.24802508926E+02 -0.25941022249E+02 -0.19106767485E+02  0.50528811025E+02  0.29999851593E+02 0.  0.
         12    1    1    2    0    0 -0.24802508926E+02  0.25941022249E+02  0.19106767485E+02  0.40659188975E+02  0.00000000000E+00 0. -1.
         11    1    3    3    0    0  0.95197616284E+01 -0.27118412547E+01  0.21027133837E+00  0.99007150625E+01  0.51100000000E-03 0. -1.
        -11    1    3    3    0    0  0.17286590246E+01 -0.21787164985E+02 -0.95041901062E+01  0.23832718056E+02  0.51100000000E-03 0.  1.
        -12    1    3    3    0    0  0.13554088273E+02 -0.14420160090E+01 -0.98128487170E+01  0.16795377907E+02  0.00000000000E+00 0.  1.
</event>
<event>
 7    1  0.3041451E-011  0.5052886E+02  0.7816164E-02  0.1300439E+00
        -11   -1    0    0    0    0  0.00000000000E+00  0.00000000000E+00  0.45593999997E+02  0.45594000000E+02  0.51100000000E-03 0.  1.
         11   -1    0    0    0    0 -0.00000000000E+00 -0.00000000000E+00 -0.45593999997E+02  0.45594000000E+02  0.51100000000E-03 0. -1.
    9900012    2    1    2    0    0  0.25929342654E+02 -0.31297239332E+02  0.11480183510E+01  0.50528856546E+02  0.29999989957E+02 0.  0.
         12    1    1    2    0    0 -0.25929342654E+02  0.31297239332E+02 -0.11480183510E+01  0.40659143454E+02  0.00000000000E+00 0. -1.
         11    1    3    3    0    0 -0.12167128589E+01  0.10317799028E+01  0.38420932513E+01  0.41601250896E+01  0.51100000000E-03 0. -1.
        -11    1    3    3    0    0  0.15252239877E+02 -0.21740184580E+02 -0.10594658263E+02  0.28592188283E+02  0.51100000000E-03 0.  1.
        -12    1    3    3    0    0  0.11893815635E+02 -0.10588834655E+02  0.79005833626E+01  0.17776543173E+02  0.00000000000E+00 0.  1.
</event>
<event>
 7    1  0.3041451E-011  0.5052885E+02  0.7816164E-02  0.1300439E+00
        -11   -1    0    0    0    0  0.00000000000E+00  0.00000000000E+00  0.45593999997E+02  0.45594000000E+02  0.51100000000E-03 0.  1.
         11   -1    0    0    0    0 -0.00000000000E+00 -0.00000000000E+00 -0.45593999997E+02  0.45594000000E+02  0.51100000000E-03 0. -1.
    9900012    2    1    2    0    0 -0.72696289217E+00  0.31265754860E+02  0.25982499979E+02  0.50528853339E+02  0.29999980210E+02 0.  0.
         12    1    1    2    0    0  0.72696289217E+00 -0.31265754860E+02 -0.25982499979E+02  0.40659146661E+02  0.00000000000E+00 0. -1.
         11    1    3    3    0    0  0.73426262055E+01  0.41866661766E+01 -0.19679581758E+01  0.86784326298E+01  0.51100000000E-03 0. -1.
        -11    1    3    3    0    0 -0.50201021451E+01  0.16684921534E+02  0.25264502408E+02  0.30690114277E+02  0.51100000000E-03 0.  1.
         12    1    3    3    0    0 -0.30494869526E+01  0.10394167149E+02  0.26859557476E+01  0.11160306433E+02  0.00000000000E+00 0. -1.
</event>
<event>
 7    1  0.3041451E-011  0.5052885E+02  0.7816164E-02  0.1300439E+00
        -11   -1    0    0    0    0  0.00000000000E+00  0.00000000000E+00  0.45593999997E+02  0.45594000000E+02  0.51100000000E-03 0.  1.
         11   -1    0    0    0    0 -0.00000000000E+00 -0.00000000000E+00 -0.45593999997E+02  0.45594000000E+02  0.51100000000E-03 0. -1.
    9900012    2    1    2    0    0  0.30768615647E+02  0.15591595602E+00  0.26578833303E+02  0.50528850988E+02  0.29999973063E+02 0.  0.
         12    1    1    2    0    0 -0.30768615647E+02 -0.15591595602E+00 -0.26578833303E+02  0.40659149012E+02  0.00000000000E+00 0. -1.
         11    1    3    3    0    0  0.39536778733E+01  0.11668780568E+01  0.23124607312E+01  0.47265894702E+01  0.51100000000E-03 0. -1.
        -11    1    3    3    0    0  0.24117373123E+02 -0.10864668209E+02  0.10051594350E+02  0.28297053749E+02  0.51100000000E-03 0.  1.
        -12    1    3    3    0    0  0.26975646510E+01  0.98537061086E+01  0.14214778222E+02  0.17505207768E+02  0.00000000000E+00 0.  1.
</event>
<event>
 7    1  0.3041451E-011  0.5052886E+02  0.7816164E-02  0.1300439E+00
        -11   -1    0    0    0    0  0.00000000000E+00  0.00000000000E+00  0.45593999997E+02  0.45594000000E+02  0.51100000000E-03 0. -1.
         11   -1    0    0    0    0 -0.00000000000E+00 -0.00000000000E+00 -0.45593999997E+02  0.45594000000E+02  0.51100000000E-03 0.  1.
    9900012    2    1    2    0    0 -0.47451482476E+01 -0.31922378312E+02 -0.24730775417E+02  0.50528856850E+02  0.29999990882E+02 0.  0.
         12    1    1    2    0    0  0.47451482476E+01  0.31922378312E+02  0.24730775417E+02  0.40659143150E+02  0.00000000000E+00 0. -1.
         11    1    3    3    0    0  0.10794124197E+02 -0.66275601759E+01 -0.10186126416E+02  0.16254071573E+02  0.51100000000E-03 0. -1.
        -11    1    3    3    0    0 -0.84648004836E+00 -0.21476007571E+01 -0.45338202833E+01  0.50876560523E+01  0.51100000000E-03 0.  1.
         12    1    3    3    0    0 -0.14692792397E+02 -0.23147217379E+02 -0.10010828717E+02  0.29187129225E+02  0.00000000000E+00 0. -1.
</event>
<event>
 7    1  0.3041451E-011  0.5052886E+02  0.7816164E-02  0.1300439E+00
        -11   -1    0    0    0    0  0.00000000000E+00  0.00000000000E+00  0.45593999997E+02  0.45594000000E+02  0.51100000000E-03 0.  1.
         11   -1    0    0    0    0 -0.00000000000E+00 -0.00000000000E+00 -0.45593999997E+02  0.45594000000E+02  0.51100000000E-03 0. -1.
    9900012    2    1    2    0    0 -0.29504029664E+02  0.14742274674E+02 -0.23776943538E+02  0.50528862368E+02  0.30000007653E+02 0.  0.
         12    1    1    2    0    0  0.29504029664E+02 -0.14742274674E+02  0.23776943538E+02  0.40659137632E+02  0.00000000000E+00 0. -1.
         11    1    3    3    0    0  0.41448167065E+00  0.28895716479E+01  0.34933242300E+01  0.45524426191E+01  0.51100000000E-03 0. -1.
        -11    1    3    3    0    0 -0.30879660426E+02  0.13636244576E+02 -0.21903814546E+02  0.40240249578E+02  0.51100000000E-03 0.  1.
         12    1    3    3    0    0  0.96114909164E+00 -0.17835415501E+01 -0.53664532224E+01  0.57361701706E+01  0.00000000000E+00 0. -1.
</event>
<event>
 7    1  0.3041451E-011  0.5052886E+02  0.7816164E-02  0.1300439E+00
        -11   -1    0    0    0    0  0.00000000000E+00  0.00000000000E+00  0.45593999997E+02  0.45594000000E+02  0.51100000000E-03 0.  1.
         11   -1    0    0    0    0 -0.00000000000E+00 -0.00000000000E+00 -0.45593999997E+02  0.45594000000E+02  0.51100000000E-03 0. -1.
    9900012    2    1    2    0    0 -0.17481889349E+02 -0.36498364818E-01  0.36708959924E+02  0.50528861715E+02  0.30000005669E+02 0.  0.
         12    1    1    2    0    0  0.17481889349E+02  0.36498364818E-01 -0.36708959924E+02  0.40659138285E+02  0.00000000000E+00 0. -1.
         11    1    3    3    0    0 -0.75535867402E-01 -0.11485214901E+02  0.79417918629E+01  0.13963807692E+02  0.51100000000E-03 0. -1.
        -11    1    3    3    0    0 -0.33212894240E+01 -0.57450507707E+00  0.83274845769E+01  0.89837641978E+01  0.51100000000E-03 0.  1.
         12    1    3    3    0    0 -0.14085064058E+02  0.12023221614E+02  0.20439683485E+02  0.27581289825E+02  0.00000000000E+00 0. -1.
</event>
<event>
 7    1  0.3041451E-011  0.5052886E+02  0.7816164E-02  0.1300439E+00
        -11   -1    0    0    0    0  0.00000000000E+00  0.00000000000E+00  0.45593999997E+02  0.45594000000E+02  0.51100000000E-03 0. -1.
         11   -1    0    0    0    0 -0.00000000000E+00 -0.00000000000E+00 -0.45593999997E+02  0.45594000000E+02  0.51100000000E-03 0.  1.
    9900012    2    1    2    0    0  0.13823552818E+02 -0.38117206639E+02  0.30255023598E+01  0.50528859343E+02  0.29999998458E+02 0.  0.
         12    1    1    2    0    0 -0.13823552818E+02  0.38117206639E+02 -0.30255023598E+01  0.40659140657E+02  0.00000000000E+00 0. -1.
         11    1    3    3    0    0  0.10883222577E+02 -0.61097269942E+01  0.91619351542E+01  0.15482711443E+02  0.51100000000E-03 0. -1.
        -11    1    3    3    0    0  0.11376660425E+01 -0.30583484363E+02 -0.24500397775E+01  0.30702548672E+02  0.51100000000E-03 0.  1.
         12    1    3    3    0    0  0.18026641990E+01 -0.14239952819E+01 -0.36863930169E+01  0.43435992279E+01  0.00000000000E+00 0. -1.
</event>
<event>
 7    1  0.3041451E-011  0.5052886E+02  0.7816164E-02  0.1300439E+00
        -11   -1    0    0    0    0  0.00000000000E+00  0.00000000000E+00  0.45593999997E+02  0.45594000000E+02  0.51100000000E-03 0.  1.
         11   -1    0    0    0    0 -0.00000000000E+00 -0.00000000000E+00 -0.45593999997E+02  0.45594000000E+02  0.51100000000E-03 0. -1.
    9900012    2    1    2    0    0  0.19629963475E+02 -0.35341603753E+02 -0.43360830538E+01  0.50528855418E+02  0.29999986529E+02 0.  0.
         12    1    1    2    0    0 -0.19629963475E+02  0.35341603753E+02  0.43360830538E+01  0.40659144582E+02  0.00000000000E+00 0. -1.
         11    1    3    3    0    0  0.14159862133E+01 -0.21097217020E+02  0.89073129099E+01  0.22944232532E+02  0.51100000000E-03 0. -1.
        -11    1    3    3    0    0  0.14296101717E+02 -0.14372732868E+02 -0.11314579020E+02  0.23215806535E+02  0.51100000000E-03 0.  1.
        -12    1    3    3    0    0  0.39178755446E+01  0.12834613448E+00 -0.19288169437E+01  0.43688163518E+01  0.00000000000E+00 0.  1.
</event>
<event>
 7    1  0.3041451E-011  0.5052886E+02  0.7816164E-02  0.1300439E+00
        -11   -1    0    0    0    0  0.00000000000E+00  0.00000000000E+00  0.45593999997E+02  0.45594000000E+02  0.51100000000E-03 0.  1.
         11   -1    0    0    0    0 -0.00000000000E+00 -0.00000000000E+00 -0.45593999997E+02  0.45594000000E+02  0.51100000000E-03 0. -1.
    9900012    2    1    2    0    0  0.10152566872E+02 -0.16099894014E+02  0.35928880193E+02  0.50528860397E+02  0.30000001663E+02 0.  0.
         12    1    1    2    0    0 -0.10152566872E+02  0.16099894014E+02 -0.35928880193E+02  0.40659139603E+02  0.00000000000E+00 0. -1.
         11    1    3    3    0    0  0.11101195104E+01 -0.93412745961E+01 -0.22042325577E+01  0.96618019973E+01  0.51100000000E-03 0. -1.
        -11    1    3    3    0    0  0.81782650807E+01 -0.33371806800E+00  0.20007386481E+02  0.21616912396E+02  0.51100000000E-03 0.  1.
         12    1    3    3    0    0  0.86418228115E+00 -0.64249013495E+01  0.18125726269E+02  0.19250146004E+02  0.00000000000E+00 0. -1.
</event>
<event>
 7    1  0.3041451E-011  0.5052886E+02  0.7816164E-02  0.1300439E+00
        -11   -1    0    0    0    0  0.00000000000E+00  0.00000000000E+00  0.45593999997E+02  0.45594000000E+02  0.51100000000E-03 0. -1.
         11   -1    0    0    0    0 -0.00000000000E+00 -0.00000000000E+00 -0.45593999997E+02  0.45594000000E+02  0.51100000000E-03 0.  1.
    9900012    2    1    2    0    0  0.33197508014E+02 -0.19657808552E+02 -0.12832071787E+02  0.50528855373E+02  0.29999986393E+02 0.  0.
         12    1    1    2    0    0 -0.33197508014E+02  0.19657808552E+02  0.12832071787E+02  0.40659144627E+02  0.00000000000E+00 0. -1.
         11    1    3    3    0    0 -0.42934277334E+01 -0.12504017019E+01 -0.13582610535E+01  0.46735317982E+01  0.51100000000E-03 0. -1.
        -11    1    3    3    0    0  0.26578548333E+02 -0.81400136573E+01 -0.14632579730E+01  0.27835591928E+02  0.51100000000E-03 0.  1.
        -12    1    3    3    0    0  0.10912387414E+02 -0.10267393193E+02 -0.10010552760E+02  0.18019731647E+02  0.00000000000E+00 0.  1.
</event>
<event>
 7    1  0.3041451E-011  0.5052886E+02  0.7816164E-02  0.1300439E+00
        -11   -1    0    0    0    0  0.00000000000E+00  0.00000000000E+00  0.45593999997E+02  0.45594000000E+02  0.51100000000E-03 0. -1.
         11   -1    0    0    0    0 -0.00000000000E+00 -0.00000000000E+00 -0.45593999997E+02  0.45594000000E+02  0.51100000000E-03 0.  1.
    9900012    2    1    2    0    0 -0.30468949115E+02 -0.24991645329E+01 -0.26806030389E+02  0.50528856517E+02  0.29999989869E+02 0.  0.
         12    1    1    2    0    0  0.30468949115E+02  0.24991645329E+01  0.26806030389E+02  0.40659143483E+02  0.00000000000E+00 0. -1.
         11    1    3    3    0    0  0.24438602069E+01 -0.58910427578E+01 -0.19203574826E+01  0.66606764377E+01  0.51100000000E-03 0. -1.
        -11    1    3    3    0    0 -0.27162685672E+02  0.45640888270E+01 -0.12673731930E+02  0.30319397768E+02  0.51100000000E-03 0.  1.
         12    1    3    3    0    0 -0.57501236504E+01 -0.11722106020E+01 -0.12211940977E+02  0.13548782311E+02  0.00000000000E+00 0. -1.
</event>
<event>
 7    1  0.3041451E-011  0.5052886E+02  0.7816164E-02  0.1300439E+00
        -11   -1    0    0    0    0  0.00000000000E+00  0.00000000000E+00  0.45593999997E+02  0.45594000000E+02  0.51100000000E-03 0.  1.
         11   -1    0    0    0    0 -0.00000000000E+00 -0.00000000000E+00 -0.45593999997E+02  0.45594000000E+02  0.51100000000E-03 0. -1.
    9900012    2    1    2    0    0 -0.15350862018E+02  0.36196366657E+02  0.10360483118E+02  0.50528861614E+02  0.30000005361E+02 0.  0.
         12    1    1    2    0    0  0.15350862018E+02 -0.36196366657E+02 -0.10360483118E+02  0.40659138386E+02  0.00000000000E+00 0. -1.
         11    1    3    3    0    0 -0.13307688369E+02  0.27846007111E+01  0.27386273518E+01  0.13868981609E+02  0.51100000000E-03 0. -1.
        -11    1    3    3    0    0 -0.24658780665E+01  0.29439986076E+02  0.10903005124E+02  0.31490774137E+02  0.51100000000E-03 0.  1.
         12    1    3    3    0    0  0.42270441708E+00  0.39717798704E+01 -0.32811493571E+01  0.51691058673E+01  0.00000000000E+00 0. -1.
</event>
<event>
 7    1  0.3041451E-011  0.5052887E+02  0.7816164E-02  0.1300439E+00
        -11   -1    0    0    0    0  0.00000000000E+00  0.00000000000E+00  0.45593999997E+02  0.45594000000E+02  0.51100000000E-03 0. -1.
         11   -1    0    0    0    0 -0.00000000000E+00 -0.00000000000E+00 -0.45593999997E+02  0.45594000000E+02  0.51100000000E-03 0.  1.
    9900012    2    1    2    0    0 -0.69432592251E+01 -0.14868698470E+02 -0.37200509925E+02  0.50528868411E+02  0.30000026023E+02 0.  0.
         12    1    1    2    0    0  0.69432592251E+01  0.14868698470E+02  0.37200509925E+02  0.40659131589E+02  0.00000000000E+00 0. -1.
         11    1    3    3    0    0 -0.51817356538E+01  0.47339060367E+01 -0.28026642804E-01  0.70186206981E+01  0.51100000000E-03 0. -1.
        -11    1    3    3    0    0  0.10023065978E+01 -0.14801354686E+02 -0.16868242778E+02  0.22463800519E+02  0.51100000000E-03 0.  1.
        -12    1    3    3    0    0 -0.27638301691E+01 -0.48012498200E+01 -0.20304240504E+02  0.21046447194E+02  0.00000000000E+00 0.  1.
</event>
<event>
 7    1  0.3041451E-011  0.5052886E+02  0.7816164E-02  0.1300439E+00
        -11   -1    0    0    0    0  0.00000000000E+00  0.00000000000E+00  0.45593999997E+02  0.45594000000E+02  0.51100000000E-03 0. -1.
         11   -1    0    0    0    0 -0.00000000000E+00 -0.00000000000E+00 -0.45593999997E+02  0.45594000000E+02  0.51100000000E-03 0.  1.
    9900012    2    1    2    0    0 -0.73345307752E+01 -0.30646768426E+01 -0.39874531052E+02  0.50528858193E+02  0.29999994963E+02 0.  0.
         12    1    1    2    0    0  0.73345307752E+01  0.30646768426E+01  0.39874531052E+02  0.40659141807E+02  0.00000000000E+00 0. -1.
         11    1    3    3    0    0 -0.12449993151E+02  0.50604306982E+01 -0.18919267300E+02  0.23206657746E+02  0.51100000000E-03 0. -1.
        -11    1    3    3    0    0  0.57943310282E+01 -0.12589845305E+01 -0.75656449611E+00  0.59776002049E+01  0.51100000000E-03 0.  1.
        -12    1    3    3    0    0 -0.67886865264E+00 -0.68661230103E+01 -0.20198699257E+02  0.21344600242E+02  0.00000000000E+00 0.  1.
</event>
<event>
 7    1  0.3041451E-011  0.5052881E+02  0.7816164E-02  0.1300439E+00
        -11   -1    0    0    0    0  0.00000000000E+00  0.00000000000E+00  0.45593999997E+02  0.45594000000E+02  0.51100000000E-03 0. -1.
         11   -1    0    0    0    0 -0.00000000000E+00 -0.00000000000E+00 -0.45593999997E+02  0.45594000000E+02  0.51100000000E-03 0.  1.
    9900012    2    1    2    0    0  0.38290773547E+02  0.13089214286E+02 -0.39571312119E+01  0.50528809687E+02  0.29999847525E+02 0.  0.
         12    1    1    2    0    0 -0.38290773547E+02 -0.13089214286E+02  0.39571312119E+01  0.40659190313E+02  0.00000000000E+00 0. -1.
         11    1    3    3    0    0  0.40880977180E+01  0.15108511898E+02 -0.34920737156E+01  0.16036653448E+02  0.51100000000E-03 0. -1.
        -11    1    3    3    0    0  0.10108623744E+02 -0.22600103728E+01  0.57840917077E+00  0.10374318210E+02  0.51100000000E-03 0.  1.
         12    1    3    3    0    0  0.24094052085E+02  0.24071276093E+00 -0.10434666670E+01  0.24117838029E+02  0.00000000000E+00 0. -1.
</event>
<event>
 7    1  0.3041451E-011  0.5052885E+02  0.7816164E-02  0.1300439E+00
        -11   -1    0    0    0    0  0.00000000000E+00  0.00000000000E+00  0.45593999997E+02  0.45594000000E+02  0.51100000000E-03 0.  1.
         11   -1    0    0    0    0 -0.00000000000E+00 -0.00000000000E+00 -0.45593999997E+02  0.45594000000E+02  0.51100000000E-03 0. -1.
    9900012    2    1    2    0    0 -0.12173538683E+02  0.19610564741E+02  0.33472337460E+02  0.50528847666E+02  0.29999962965E+02 0.  0.
         12    1    1    2    0    0  0.12173538683E+02 -0.19610564741E+02 -0.33472337460E+02  0.40659152334E+02  0.00000000000E+00 0. -1.
         11    1    3    3    0    0 -0.79063749794E+01  0.89674142172E+00  0.29361072589E+01  0.84814878759E+01  0.51100000000E-03 0. -1.
        -11    1    3    3    0    0 -0.24418949048E+01  0.20672826079E+02  0.32591364524E+02  0.38672026461E+02  0.51100000000E-03 0.  1.
        -12    1    3    3    0    0 -0.18252687985E+01 -0.19590027590E+01 -0.20551343230E+01  0.33753333290E+01  0.00000000000E+00 0.  1.
</event>
<event>
 7    1  0.3041451E-011  0.5052885E+02  0.7816164E-02  0.1300439E+00
        -11   -1    0    0    0    0  0.00000000000E+00  0.00000000000E+00  0.45593999997E+02  0.45594000000E+02  0.51100000000E-03 0. -1.
         11   -1    0    0    0    0 -0.00000000000E+00 -0.00000000000E+00 -0.45593999997E+02  0.45594000000E+02  0.51100000000E-03 0.  1.
    9900012    2    1    2    0    0 -0.29315505870E+02  0.28139558670E+02  0.13901553897E+01  0.50528853691E+02  0.29999981279E+02 0.  0.
         12    1    1    2    0    0  0.29315505870E+02 -0.28139558670E+02 -0.13901553897E+01  0.40659146309E+02  0.00000000000E+00 0. -1.
         11    1    3    3    0    0  0.56314102307E+01  0.76503413929E+01 -0.22815629513E+01  0.97696486312E+01  0.51100000000E-03 0. -1.
        -11    1    3    3    0    0 -0.23806224540E+02  0.14805855979E+02  0.34906553339E+01  0.28251272060E+02  0.51100000000E-03 0.  1.
         12    1    3    3    0    0 -0.11140691561E+02  0.56833612980E+01  0.18106300703E+00  0.12507932999E+02  0.00000000000E+00 0. -1.
</event>
<event>
 7    1  0.3041451E-011  0.5052887E+02  0.7816164E-02  0.1300439E+00
        -11   -1    0    0    0    0  0.00000000000E+00  0.00000000000E+00  0.45593999997E+02  0.45594000000E+02  0.51100000000E-03 0.  1.
         11   -1    0    0    0    0 -0.00000000000E+00 -0.00000000000E+00 -0.45593999997E+02  0.45594000000E+02  0.51100000000E-03 0. -1.
    9900012    2    1    2    0    0  0.15032477818E+02  0.24392287079E+02  0.28847974318E+02  0.50528872113E+02  0.30000037275E+02 0.  0.
         12    1    1    2    0    0 -0.15032477818E+02 -0.24392287079E+02 -0.28847974318E+02  0.40659127887E+02  0.00000000000E+00 0. -1.
         11    1    3    3    0    0 -0.22590290196E+01  0.29142645173E+01  0.49151075098E+00  0.37199103306E+01  0.51100000000E-03 0. -1.
        -11    1    3    3    0    0  0.63418375112E+01  0.19498963918E+01  0.22793794627E+02  0.23739799340E+02  0.51100000000E-03 0.  1.
        -12    1    3    3    0    0  0.10949669326E+02  0.19528126170E+02  0.55626689402E+01  0.23069162442E+02  0.00000000000E+00 0.  1.
</event>
<event>
 7    1  0.3041451E-011  0.5052887E+02  0.7816164E-02  0.1300439E+00
        -11   -1    0    0    0    0  0.00000000000E+00  0.00000000000E+00  0.45593999997E+02  0.45594000000E+02  0.51100000000E-03 0. -1.
         11   -1    0    0    0    0 -0.00000000000E+00 -0.00000000000E+00 -0.45593999997E+02  0.45594000000E+02  0.51100000000E-03 0.  1.
    9900012    2    1    2    0    0  0.24269112887E+01 -0.29389114930E+01 -0.40480092196E+02  0.50528868635E+02  0.30000026701E+02 0.  0.
         12    1    1    2    0    0 -0.24269112887E+01  0.29389114930E+01  0.40480092196E+02  0.40659131365E+02  0.00000000000E+00 0. -1.
         11    1    3    3    0    0  0.14207137923E+01 -0.35061783666E+01  0.40335984906E+01  0.55300661355E+01  0.51100000000E-03 0. -1.
        -11    1    3    3    0    0  0.15991387928E+01  0.33546411065E+01 -0.23286560298E+02  0.23581237300E+02  0.51100000000E-03 0.  1.
         12    1    3    3    0    0 -0.59294129640E+00 -0.27873742329E+01 -0.21227130389E+02  0.21417565199E+02  0.00000000000E+00 0. -1.
</event>
<event>
 7    1  0.3041451E-011  0.5052886E+02  0.7816164E-02  0.1300439E+00
        -11   -1    0    0    0    0  0.00000000000E+00  0.00000000000E+00  0.45593999997E+02  0.45594000000E+02  0.51100000000E-03 0.  1.
         11   -1    0    0    0    0 -0.00000000000E+00 -0.00000000000E+00 -0.45593999997E+02  0.45594000000E+02  0.51100000000E-03 0. -1.
    9900012    2    1    2    0    0 -0.17086731304E+02  0.18144511570E+02  0.32124544148E+02  0.50528855598E+02  0.29999987075E+02 0.  0.
         12    1    1    2    0    0  0.17086731304E+02 -0.18144511570E+02 -0.32124544148E+02  0.40659144402E+02  0.00000000000E+00 0. -1.
         11    1    3    3    0    0  0.15717325005E+01 -0.34844064324E+01 -0.27634874349E+01  0.47168097591E+01  0.51100000000E-03 0. -1.
        -11    1    3    3    0    0 -0.46211578627E+01  0.56592380864E+01  0.40474128871E+01  0.83524623345E+01  0.51100000000E-03 0.  1.
         12    1    3    3    0    0 -0.14037305942E+02  0.15969679916E+02  0.30840618696E+02  0.37459583504E+02  0.00000000000E+00 0. -1.
</event>
<event>
 7    1  0.3041451E-011  0.5052886E+02  0.7816164E-02  0.1300439E+00
        -11   -1    0    0    0    0  0.00000000000E+00  0.00000000000E+00  0.45593999997E+02  0.45594000000E+02  0.51100000000E-03 0. -1.
         11   -1    0    0    0    0 -0.00000000000E+00 -0.00000000000E+00 -0.45593999997E+02  0.45594000000E+02  0.51100000000E-03 0.  1.
    9900012    2    1    2    0    0 -0.20502729471E+02 -0.28227359620E+02 -0.20881098386E+02  0.50528855682E+02  0.29999987331E+02 0.  0.
         12    1    1    2    0    0  0.20502729471E+02  0.28227359620E+02  0.20881098386E+02  0.40659144318E+02  0.00000000000E+00 0. -1.
         11    1    3    3    0    0 -0.15482248628E+02 -0.11919881832E+02 -0.14937802416E+01  0.19596300292E+02  0.51100000000E-03 0. -1.
        -11    1    3    3    0    0  0.59786226969E+01 -0.42088719453E+01 -0.33962942938E+01  0.80618451731E+01  0.51100000000E-03 0.  1.
        -12    1    3    3    0    0 -0.10999103540E+02 -0.12098605842E+02 -0.15991023851E+02  0.22870710216E+02  0.00000000000E+00 0.  1.
</event>
<event>
 7    1  0.3041451E-011  0.5052886E+02  0.7816164E-02  0.1300439E+00
        -11   -1    0    0    0    0  0.00000000000E+00  0.00000000000E+00  0.45593999997E+02  0.45594000000E+02  0.51100000000E-03 0. -1.
         11   -1    0    0    0    0 -0.00000000000E+00 -0.00000000000E+00 -0.45593999997E+02  0.45594000000E+02  0.51100000000E-03 0.  1.
    9900012    2    1    2    0    0  0.17383562412E+02  0.21539974956E+02  0.29782664159E+02  0.50528857761E+02  0.29999993649E+02 0.  0.
         12    1    1    2    0    0 -0.17383562412E+02 -0.21539974956E+02 -0.29782664159E+02  0.40659142239E+02  0.00000000000E+00 0. -1.
         11    1    3    3    0    0 -0.12093182578E+01  0.94727578736E+01  0.86725015411E+01  0.12899917660E+02  0.51100000000E-03 0. -1.
        -11    1    3    3    0    0  0.50528098778E+01 -0.64130696036E+01  0.44179374382E+01  0.92831309842E+01  0.51100000000E-03 0.  1.
        -12    1    3    3    0    0  0.13540070792E+02  0.18480286686E+02  0.16692225180E+02  0.28345809117E+02  0.00000000000E+00 0.  1.
</event>
<event>
 7    1  0.3041451E-011  0.5052886E+02  0.7816164E-02  0.1300439E+00
        -11   -1    0    0    0    0  0.00000000000E+00  0.00000000000E+00  0.45593999997E+02  0.45594000000E+02  0.51100000000E-03 0.  1.
         11   -1    0    0    0    0 -0.00000000000E+00 -0.00000000000E+00 -0.45593999997E+02  0.45594000000E+02  0.51100000000E-03 0. -1.
    9900012    2    1    2    0    0  0.28375953049E+01 -0.39800792232E+02 -0.78109294455E+01  0.50528860459E+02  0.30000001852E+02 0.  0.
         12    1    1    2    0    0 -0.28375953049E+01  0.39800792232E+02  0.78109294455E+01  0.40659139541E+02  0.00000000000E+00 0. -1.
         11    1    3    3    0    0  0.77775233141E+00  0.90555002203E+00 -0.16675664405E+01  0.20507797605E+01  0.51100000000E-03 0. -1.
        -11    1    3    3    0    0 -0.10776819903E+02 -0.27359258096E+02 -0.57116335384E+01  0.29954826134E+02  0.51100000000E-03 0.  1.
        -12    1    3    3    0    0  0.12836662877E+02 -0.13347084158E+02 -0.43172946658E+00  0.18523254564E+02  0.00000000000E+00 0.  1.
</event>
<event>
 7    1  0.3041451E-011  0.5052886E+02  0.7816164E-02  0.1300439E+00
        -11   -1    0    0    0    0  0.00000000000E+00  0.00000000000E+00  0.45593999997E+02  0.45594000000E+02  0.51100000000E-03 0.  1.
         11   -1    0    0    0    0 -0.00000000000E+00 -0.00000000000E+00 -0.45593999997E+02  0.45594000000E+02  0.51100000000E-03 0. -1.
    9900012    2    1    2    0    0  0.27412443200E+01  0.18918776470E+02  0.35884969632E+02  0.50528861187E+02  0.30000004063E+02 0.  0.
         12    1    1    2    0    0 -0.27412443200E+01 -0.18918776470E+02 -0.35884969632E+02  0.40659138813E+02  0.00000000000E+00 0. -1.
         11    1    3    3    0    0  0.11691487996E+02  0.15195396630E+02  0.86891578995E+01  0.21049760938E+02  0.51100000000E-03 0. -1.
        -11    1    3    3    0    0 -0.40247083863E+01  0.15404607616E+01  0.20170893609E+02  0.20626105939E+02  0.51100000000E-03 0.  1.
         12    1    3    3    0    0 -0.49255352899E+01  0.21829190788E+01  0.70249181232E+01  0.88529943090E+01  0.00000000000E+00 0. -1.
</event>
<event>
 7    1  0.3041451E-011  0.5052885E+02  0.7816164E-02  0.1300439E+00
        -11   -1    0    0    0    0  0.00000000000E+00  0.00000000000E+00  0.45593999997E+02  0.45594000000E+02  0.51100000000E-03 0.  1.
         11   -1    0    0    0    0 -0.00000000000E+00 -0.00000000000E+00 -0.45593999997E+02  0.45594000000E+02  0.51100000000E-03 0. -1.
    9900012    2    1    2    0    0  0.37900997968E+02 -0.10301651808E+02  0.10514581858E+02  0.50528854551E+02  0.29999983894E+02 0.  0.
         12    1    1    2    0    0 -0.37900997968E+02  0.10301651808E+02 -0.10514581858E+02  0.40659145449E+02  0.00000000000E+00 0. -1.
         11    1    3    3    0    0  0.44342025517E+01 -0.62479876400E+01  0.26512900370E-01  0.76616059031E+01  0.51100000000E-03 0. -1.
        -11    1    3    3    0    0  0.35481841085E+02  0.14718129141E+01  0.76065344111E+01  0.36317855747E+02  0.51100000000E-03 0.  1.
        -12    1    3    3    0    0 -0.20150456685E+01 -0.55254770821E+01  0.28815345468E+01  0.65493929013E+01  0.00000000000E+00 0.  1.
</event>
<event>
 7    1  0.3041451E-011  0.5052883E+02  0.7816164E-02  0.1300439E+00
        -11   -1    0    0    0    0  0.00000000000E+00  0.00000000000E+00  0.45593999997E+02  0.45594000000E+02  0.51100000000E-03 0.  1.
         11   -1    0    0    0    0 -0.00000000000E+00 -0.00000000000E+00 -0.45593999997E+02  0.45594000000E+02  0.51100000000E-03 0. -1.
    9900012    2    1    2    0    0 -0.80215644380E+01 -0.36438488424E+02 -0.16157321919E+02  0.50528831461E+02  0.29999913710E+02 0.  0.
         12    1    1    2    0    0  0.80215644380E+01  0.36438488424E+02  0.16157321919E+02  0.40659168539E+02  0.00000000000E+00 0. -1.
         11    1    3    3    0    0  0.86336828814E+00  0.44446605894E+01 -0.40188957367E+01  0.60540842213E+01  0.51100000000E-03 0. -1.
        -11    1    3    3    0    0 -0.72161448329E+01 -0.39372473132E+02 -0.97620138323E+01  0.41201472075E+02  0.51100000000E-03 0.  1.
         12    1    3    3    0    0 -0.16687878933E+01 -0.15106758813E+01 -0.23764123498E+01  0.32732751652E+01  0.00000000000E+00 0. -1.
</event>
<event>
 7    1  0.3041451E-011  0.5052886E+02  0.7816164E-02  0.1300439E+00
        -11   -1    0    0    0    0  0.00000000000E+00  0.00000000000E+00  0.45593999997E+02  0.45594000000E+02  0.51100000000E-03 0.  1.
         11   -1    0    0    0    0 -0.00000000000E+00 -0.00000000000E+00 -0.45593999997E+02  0.45594000000E+02  0.51100000000E-03 0. -1.
    9900012    2    1    2    0    0  0.20400594052E+02 -0.26378126226E+02  0.23263189083E+02  0.50528858996E+02  0.29999997404E+02 0.  0.
         12    1    1    2    0    0 -0.20400594052E+02  0.26378126226E+02 -0.23263189083E+02  0.40659141004E+02  0.00000000000E+00 0. -1.
         11    1    3    3    0    0 -0.43878735012E+01 -0.31867070038E+01  0.58938251175E+01  0.80091017079E+01  0.51100000000E-03 0. -1.
        -11    1    3    3    0    0  0.25058527045E+02 -0.25023921863E+02  0.12914185475E+02  0.37694862114E+02  0.51100000000E-03 0.  1.
        -12    1    3    3    0    0 -0.27005949128E+00  0.18325026411E+01  0.44551784903E+01  0.48248951739E+01  0.00000000000E+00 0.  1.
</event>
<event>
 7    1  0.3041451E-011  0.5052886E+02  0.7816164E-02  0.1300439E+00
        -11   -1    0    0    0    0  0.00000000000E+00  0.00000000000E+00  0.45593999997E+02  0.45594000000E+02  0.51100000000E-03 0.  1.
         11   -1    0    0    0    0 -0.00000000000E+00 -0.00000000000E+00 -0.45593999997E+02  0.45594000000E+02  0.51100000000E-03 0. -1.
    9900012    2    1    2    0    0  0.78170757864E+01 -0.23293682706E+01  0.39832563230E+02  0.50528859283E+02  0.29999998276E+02 0.  0.
         12    1    1    2    0    0 -0.78170757864E+01  0.23293682706E+01 -0.39832563230E+02  0.40659140717E+02  0.00000000000E+00 0. -1.
         11    1    3    3    0    0  0.43928617522E+01 -0.27300638794E+01  0.30692617075E+01  0.60142207184E+01  0.51100000000E-03 0. -1.
        -11    1    3    3    0    0 -0.20242689585E+01  0.10699863028E+02  0.27666693388E+02  0.29732653042E+02  0.51100000000E-03 0.  1.
        -12    1    3    3    0    0  0.54484829927E+01 -0.10299167419E+02  0.90966081344E+01  0.14781985523E+02  0.00000000000E+00 0.  1.
</event>
<event>
 7    1  0.3041451E-011  0.5052884E+02  0.7816164E-02  0.1300439E+00
        -11   -1    0    0    0    0  0.00000000000E+00  0.00000000000E+00  0.45593999997E+02  0.45594000000E+02  0.51100000000E-03 0.  1.
         11   -1    0    0    0    0 -0.00000000000E+00 -0.00000000000E+00 -0.45593999997E+02  0.45594000000E+02  0.51100000000E-03 0. -1.
    9900012    2    1    2    0    0 -0.28320450178E+01 -0.31372080722E+02  0.25708736648E+02  0.50528842755E+02  0.29999948038E+02 0.  0.
         12    1    1    2    0    0  0.28320450178E+01  0.31372080722E+02 -0.25708736648E+02  0.40659157245E+02  0.00000000000E+00 0. -1.
         11    1    3    3    0    0 -0.64729407929E+01 -0.17717879838E+02  0.28499854023E+02  0.34176949953E+02  0.51100000000E-03 0. -1.
        -11    1    3    3    0    0  0.48500609307E+00 -0.12844344407E+02 -0.21879331494E+01  0.13038384328E+02  0.51100000000E-03 0.  1.
        -12    1    3    3    0    0  0.31558896821E+01 -0.80985647782E+00 -0.60318422563E+00  0.33135084744E+01  0.00000000000E+00 0.  1.
</event>
<event>
 7    1  0.3041451E-011  0.5052887E+02  0.7816164E-02  0.1300439E+00
        -11   -1    0    0    0    0  0.00000000000E+00  0.00000000000E+00  0.45593999997E+02  0.45594000000E+02  0.51100000000E-03 0. -1.
         11   -1    0    0    0    0 -0.00000000000E+00 -0.00000000000E+00 -0.45593999997E+02  0.45594000000E+02  0.51100000000E-03 0.  1.
    9900012    2    1    2    0    0 -0.67193076189E+01  0.33771802361E+02  0.21621318354E+02  0.50528866501E+02  0.30000020215E+02 0.  0.
         12    1    1    2    0    0  0.67193076189E+01 -0.33771802361E+02 -0.21621318354E+02  0.40659133499E+02  0.00000000000E+00 0. -1.
         11    1    3    3    0    0 -0.33759062469E+01  0.24653470730E+02  0.24160764606E+02  0.34683323206E+02  0.51100000000E-03 0. -1.
        -11    1    3    3    0    0 -0.74183550819E+01  0.56809797190E+01 -0.42246598829E+01  0.10254427048E+02  0.51100000000E-03 0.  1.
         12    1    3    3    0    0  0.40749537098E+01  0.34373519120E+01  0.16852136309E+01  0.55911162468E+01  0.00000000000E+00 0. -1.
</event>
<event>
 7    1  0.3041451E-011  0.5052886E+02  0.7816164E-02  0.1300439E+00
        -11   -1    0    0    0    0  0.00000000000E+00  0.00000000000E+00  0.45593999997E+02  0.45594000000E+02  0.51100000000E-03 0.  1.
         11   -1    0    0    0    0 -0.00000000000E+00 -0.00000000000E+00 -0.45593999997E+02  0.45594000000E+02  0.51100000000E-03 0. -1.
    9900012    2    1    2    0    0  0.68607805511E+01 -0.93134755223E+01  0.38978897528E+02  0.50528860946E+02  0.30000003332E+02 0.  0.
         12    1    1    2    0    0 -0.68607805511E+01  0.93134755223E+01 -0.38978897528E+02  0.40659139054E+02  0.00000000000E+00 0. -1.
         11    1    3    3    0    0  0.74978514772E+01 -0.14009628440E+01 -0.24976557778E+00  0.76317007783E+01  0.51100000000E-03 0. -1.
        -11    1    3    3    0    0 -0.65957781173E+01 -0.83357855265E+01  0.30670942272E+02  0.32460688677E+02  0.51100000000E-03 0.  1.
        -12    1    3    3    0    0  0.59587071912E+01  0.42327284826E+00  0.85577208343E+01  0.10436471491E+02  0.00000000000E+00 0.  1.
</event>
<event>
 7    1  0.3041451E-011  0.5052886E+02  0.7816164E-02  0.1300439E+00
        -11   -1    0    0    0    0  0.00000000000E+00  0.00000000000E+00  0.45593999997E+02  0.45594000000E+02  0.51100000000E-03 0. -1.
         11   -1    0    0    0    0 -0.00000000000E+00 -0.00000000000E+00 -0.45593999997E+02  0.45594000000E+02  0.51100000000E-03 0.  1.
    9900012    2    1    2    0    0  0.13313021157E+02  0.32893287341E+02 -0.19848439015E+02  0.50528863072E+02  0.30000009793E+02 0.  0.
         12    1    1    2    0    0 -0.13313021157E+02 -0.32893287341E+02  0.19848439015E+02  0.40659136928E+02  0.00000000000E+00 0. -1.
         11    1    3    3    0    0 -0.39645214118E+01  0.13564074790E+01  0.30677990904E+01  0.51931361231E+01  0.51100000000E-03 0. -1.
        -11    1    3    3    0    0  0.13815711217E+02  0.17243230517E+02 -0.59497823698E+01  0.22882368444E+02  0.51100000000E-03 0.  1.
        -12    1    3    3    0    0  0.34618313519E+01  0.14293649345E+02 -0.16966455736E+02  0.22453358505E+02  0.00000000000E+00 0.  1.
</event>
<event>
 7    1  0.3041451E-011  0.5052889E+02  0.7816164E-02  0.1300439E+00
        -11   -1    0    0    0    0  0.00000000000E+00  0.00000000000E+00  0.45593999997E+02  0.45594000000E+02  0.51100000000E-03 0. -1.
         11   -1    0    0    0    0 -0.00000000000E+00 -0.00000000000E+00 -0.45593999997E+02  0.45594000000E+02  0.51100000000E-03 0.  1.
    9900012    2    1    2    0    0 -0.24938760845E+02  0.48253503041E+01 -0.31748027671E+02  0.50528892053E+02  0.30000097884E+02 0.  0.
         12    1    1    2    0    0  0.24938760845E+02 -0.48253503041E+01  0.31748027671E+02  0.40659107947E+02  0.00000000000E+00 0. -1.
         11    1    3    3    0    0 -0.22695400958E+02  0.32845661294E+01 -0.12306463512E+02  0.26025346179E+02  0.51100000000E-03 0. -1.
        -11    1    3    3    0    0  0.40530786006E+01  0.51248971637E+01 -0.13976664310E+02  0.15428517835E+02  0.51100000000E-03 0.  1.
        -12    1    3    3    0    0 -0.62964384875E+01 -0.35841129889E+01 -0.54648998497E+01  0.90750280392E+01  0.00000000000E+00 0.  1.
</event>
<event>
 7    1  0.3041451E-011  0.5052886E+02  0.7816164E-02  0.1300439E+00
        -11   -1    0    0    0    0  0.00000000000E+00  0.00000000000E+00  0.45593999997E+02  0.45594000000E+02  0.51100000000E-03 0. -1.
         11   -1    0    0    0    0 -0.00000000000E+00 -0.00000000000E+00 -0.45593999997E+02  0.45594000000E+02  0.51100000000E-03 0.  1.
    9900012    2    1    2    0    0  0.31423665696E+02  0.14695255946E+02 -0.21207735750E+02  0.50528863650E+02  0.30000011551E+02 0.  0.
         12    1    1    2    0    0 -0.31423665696E+02 -0.14695255946E+02  0.21207735750E+02  0.40659136350E+02  0.00000000000E+00 0. -1.
         11    1    3    3    0    0 -0.29223614552E+01  0.83292948247E+01 -0.75610020757E+01  0.11622654662E+02  0.51100000000E-03 0. -1.
        -11    1    3    3    0    0  0.34672716857E+02  0.65514133470E+01 -0.12082533829E+02  0.37297532560E+02  0.51100000000E-03 0.  1.
        -12    1    3    3    0    0 -0.32668970612E+00 -0.18545222593E+00 -0.15641998456E+01  0.16086764277E+01  0.00000000000E+00 0.  1.
</event>
<event>
 7    1  0.3041451E-011  0.5052885E+02  0.7816164E-02  0.1300439E+00
        -11   -1    0    0    0    0  0.00000000000E+00  0.00000000000E+00  0.45593999997E+02  0.45594000000E+02  0.51100000000E-03 0.  1.
         11   -1    0    0    0    0 -0.00000000000E+00 -0.00000000000E+00 -0.45593999997E+02  0.45594000000E+02  0.51100000000E-03 0. -1.
    9900012    2    1    2    0    0  0.25673533484E+02 -0.29284447954E+02  0.11681489412E+02  0.50528850865E+02  0.29999972689E+02 0.  0.
         12    1    1    2    0    0 -0.25673533484E+02  0.29284447954E+02 -0.11681489412E+02  0.40659149135E+02  0.00000000000E+00 0. -1.
         11    1    3    3    0    0 -0.39897020883E+01  0.17045254286E+01 -0.12801441428E+01  0.45234830582E+01  0.51100000000E-03 0. -1.
        -11    1    3    3    0    0  0.15792974357E+02 -0.19491941674E+02  0.12392061409E+02  0.27980654308E+02  0.51100000000E-03 0.  1.
         12    1    3    3    0    0  0.13870261215E+02 -0.11497031709E+02  0.56957214546E+00  0.18024713499E+02  0.00000000000E+00 0. -1.
</event>
<event>
 7    1  0.3041451E-011  0.5052886E+02  0.7816164E-02  0.1300439E+00
        -11   -1    0    0    0    0  0.00000000000E+00  0.00000000000E+00  0.45593999997E+02  0.45594000000E+02  0.51100000000E-03 0.  1.
         11   -1    0    0    0    0 -0.00000000000E+00 -0.00000000000E+00 -0.45593999997E+02  0.45594000000E+02  0.51100000000E-03 0. -1.
    9900012    2    1    2    0    0 -0.15600539521E+02  0.35889255638E+02 -0.11034060631E+02  0.50528855916E+02  0.29999988044E+02 0.  0.
         12    1    1    2    0    0  0.15600539521E+02 -0.35889255638E+02  0.11034060631E+02  0.40659144084E+02  0.00000000000E+00 0. -1.
         11    1    3    3    0    0 -0.16686508560E+02  0.27630179565E+02 -0.19941009876E+02  0.37940878559E+02  0.51100000000E-03 0. -1.
        -11    1    3    3    0    0  0.15965381980E+01  0.72572534284E+01  0.62748415714E+01  0.97257543949E+01  0.51100000000E-03 0.  1.
         12    1    3    3    0    0 -0.51056915948E+00  0.10018226447E+01  0.26321076741E+01  0.28622229624E+01  0.00000000000E+00 0. -1.
</event>
<event>
 7    1  0.3041451E-011  0.5052894E+02  0.7816164E-02  0.1300439E+00
        -11   -1    0    0    0    0  0.00000000000E+00  0.00000000000E+00  0.45593999997E+02  0.45594000000E+02  0.51100000000E-03 0.  1.
         11   -1    0    0    0    0 -0.00000000000E+00 -0.00000000000E+00 -0.45593999997E+02  0.45594000000E+02  0.51100000000E-03 0. -1.
    9900012    2    1    2    0    0 -0.19912619867E+02 -0.26977587615E+02  0.22996878274E+02  0.50528941061E+02  0.30000246847E+02 0.  0.
         12    1    1    2    0    0  0.19912619867E+02  0.26977587615E+02 -0.22996878274E+02  0.40659058939E+02  0.00000000000E+00 0. -1.
         11    1    3    3    0    0 -0.78974725392E+01  0.19198412292E+01  0.93537144401E+01  0.12391442085E+02  0.51100000000E-03 0. -1.
        -11    1    3    3    0    0 -0.16106712958E+02 -0.23941445319E+02  0.90603489147E+01  0.30244155287E+02  0.51100000000E-03 0.  1.
         12    1    3    3    0    0  0.40915656306E+01 -0.49559835253E+01  0.45828149189E+01  0.78933436891E+01  0.00000000000E+00 0. -1.
</event>
<event>
 7    1  0.3041451E-011  0.5052886E+02  0.7816164E-02  0.1300439E+00
        -11   -1    0    0    0    0  0.00000000000E+00  0.00000000000E+00  0.45593999997E+02  0.45594000000E+02  0.51100000000E-03 0. -1.
         11   -1    0    0    0    0 -0.00000000000E+00 -0.00000000000E+00 -0.45593999997E+02  0.45594000000E+02  0.51100000000E-03 0.  1.
    9900012    2    1    2    0    0 -0.28253457037E+01 -0.27410895035E+02 -0.29896925858E+02  0.50528856862E+02  0.29999990918E+02 0.  0.
         12    1    1    2    0    0  0.28253457037E+01  0.27410895035E+02  0.29896925858E+02  0.40659143138E+02  0.00000000000E+00 0. -1.
         11    1    3    3    0    0  0.42729465452E+01 -0.13214023825E+01 -0.14930648677E+02  0.15586162023E+02  0.51100000000E-03 0. -1.
        -11    1    3    3    0    0 -0.58416258929E+01 -0.25926275453E+02 -0.17699028164E+02  0.31930423583E+02  0.51100000000E-03 0.  1.
        -12    1    3    3    0    0 -0.12566663559E+01 -0.16321719930E+00  0.27327509834E+01  0.30122712563E+01  0.00000000000E+00 0.  1.
</event>
<event>
 7    1  0.3041451E-011  0.5052888E+02  0.7816164E-02  0.1300439E+00
        -11   -1    0    0    0    0  0.00000000000E+00  0.00000000000E+00  0.45593999997E+02  0.45594000000E+02  0.51100000000E-03 0.  1.
         11   -1    0    0    0    0 -0.00000000000E+00 -0.00000000000E+00 -0.45593999997E+02  0.45594000000E+02  0.51100000000E-03 0. -1.
    9900012    2    1    2    0    0  0.22745794240E+02  0.23656108228E+02  0.24003780980E+02  0.50528879086E+02  0.30000058471E+02 0.  0.
         12    1    1    2    0    0 -0.22745794240E+02 -0.23656108228E+02 -0.24003780980E+02  0.40659120914E+02  0.00000000000E+00 0. -1.
         11    1    3    3    0    0  0.11825500893E+02  0.15582178889E+02  0.22414827329E+02  0.29750147138E+02  0.51100000000E-03 0.  1.
        -11    1    3    3    0    0 -0.17891020824E+00  0.83862559347E+01 -0.27942011905E+01  0.88413154010E+01  0.51100000000E-03 0. -1.
         12    1    3    3    0    0  0.11099203555E+02 -0.31232659499E+00  0.43831548420E+01  0.11937416547E+02  0.00000000000E+00 0. -1.
</event>
<event>
 7    1  0.3041451E-011  0.5052883E+02  0.7816164E-02  0.1300439E+00
        -11   -1    0    0    0    0  0.00000000000E+00  0.00000000000E+00  0.45593999997E+02  0.45594000000E+02  0.51100000000E-03 0.  1.
         11   -1    0    0    0    0 -0.00000000000E+00 -0.00000000000E+00 -0.45593999997E+02  0.45594000000E+02  0.51100000000E-03 0. -1.
    9900012    2    1    2    0    0 -0.34683623957E+02 -0.20979858605E+02 -0.31717355245E+01  0.50528829520E+02  0.29999907809E+02 0.  0.
         12    1    1    2    0    0  0.34683623957E+02  0.20979858605E+02  0.31717355245E+01  0.40659170480E+02  0.00000000000E+00 0. -1.
         11    1    3    3    0    0 -0.28368198622E+02 -0.27884368101E+02 -0.34164465287E+01  0.39924488533E+02  0.51100000000E-03 0.  1.
        -11    1    3    3    0    0 -0.65412237468E+01  0.63932346793E+01  0.14639900550E+01  0.92630623939E+01  0.51100000000E-03 0. -1.
         12    1    3    3    0    0  0.22579841212E+00  0.51127481684E+00 -0.12192790508E+01  0.13412785933E+01  0.00000000000E+00 0. -1.
</event>
<event>
 7    1  0.3041451E-011  0.5052886E+02  0.7816164E-02  0.1300439E+00
        -11   -1    0    0    0    0  0.00000000000E+00  0.00000000000E+00  0.45593999997E+02  0.45594000000E+02  0.51100000000E-03 0. -1.
         11   -1    0    0    0    0 -0.00000000000E+00 -0.00000000000E+00 -0.45593999997E+02  0.45594000000E+02  0.51100000000E-03 0.  1.
    9900012    2    1    2    0    0 -0.35774722405E+02 -0.16257406455E+02 -0.10441803577E+02  0.50528864621E+02  0.30000014503E+02 0.  0.
         12    1    1    2    0    0  0.35774722405E+02  0.16257406455E+02  0.10441803577E+02  0.40659135379E+02  0.00000000000E+00 0. -1.
         11    1    3    3    0    0 -0.85922317882E+01 -0.86453564755E+01  0.81796554255E+01  0.14679080313E+02  0.51100000000E-03 0. -1.
        -11    1    3    3    0    0 -0.80311705504E+01 -0.27709354287E+01 -0.12603830309E+02  0.15199813232E+02  0.51100000000E-03 0.  1.
        -12    1    3    3    0    0 -0.19151320066E+02 -0.48411145504E+01 -0.60176286934E+01  0.20649971077E+02  0.00000000000E+00 0.  1.
</event>
<event>
 7    1  0.3041451E-011  0.5052886E+02  0.7816164E-02  0.1300439E+00
        -11   -1    0    0    0    0  0.00000000000E+00  0.00000000000E+00  0.45593999997E+02  0.45594000000E+02  0.51100000000E-03 0.  1.
         11   -1    0    0    0    0 -0.00000000000E+00 -0.00000000000E+00 -0.45593999997E+02  0.45594000000E+02  0.51100000000E-03 0. -1.
    9900012    2    1    2    0    0 -0.94033088455E+01  0.11963719787E+02  0.37704279266E+02  0.50528862240E+02  0.30000007266E+02 0.  0.
         12    1    1    2    0    0  0.94033088455E+01 -0.11963719787E+02 -0.37704279266E+02  0.40659137760E+02  0.00000000000E+00 0. -1.
         11    1    3    3    0    0  0.14429461691E+01 -0.10910130680E+01  0.66335696377E+00  0.19267708436E+01  0.51100000000E-03 0. -1.
        -11    1    3    3    0    0  0.28584697276E+01  0.15610585406E+02  0.27359375875E+02  0.31629047953E+02  0.51100000000E-03 0.  1.
        -12    1    3    3    0    0 -0.13704724742E+02 -0.25558525508E+01  0.96815464271E+01  0.16973043444E+02  0.00000000000E+00 0.  1.
</event>
<event>
 7    1  0.3041451E-011  0.5052886E+02  0.7816164E-02  0.1300439E+00
        -11   -1    0    0    0    0  0.00000000000E+00  0.00000000000E+00  0.45593999997E+02  0.45594000000E+02  0.51100000000E-03 0. -1.
         11   -1    0    0    0    0 -0.00000000000E+00 -0.00000000000E+00 -0.45593999997E+02  0.45594000000E+02  0.51100000000E-03 0.  1.
    9900012    2    1    2    0    0 -0.30075731602E+02 -0.36193394527E+01  0.27120398654E+02  0.50528864832E+02  0.30000015143E+02 0.  0.
         12    1    1    2    0    0  0.30075731602E+02  0.36193394527E+01 -0.27120398654E+02  0.40659135168E+02  0.00000000000E+00 0. -1.
         11    1    3    3    0    0 -0.90470174189E+01  0.82917106489E+01  0.41846000581E+01  0.12965796064E+02  0.51100000000E-03 0. -1.
        -11    1    3    3    0    0 -0.22286944546E+02 -0.94962716540E+01  0.13481187554E+02  0.27724167989E+02  0.51100000000E-03 0.  1.
         12    1    3    3    0    0  0.12582303628E+01 -0.24147784476E+01  0.94546110414E+01  0.98389007791E+01  0.00000000000E+00 0. -1.
</event>
<event>
 7    1  0.3041451E-011  0.5052886E+02  0.7816164E-02  0.1300439E+00
        -11   -1    0    0    0    0  0.00000000000E+00  0.00000000000E+00  0.45593999997E+02  0.45594000000E+02  0.51100000000E-03 0. -1.
         11   -1    0    0    0    0 -0.00000000000E+00 -0.00000000000E+00 -0.45593999997E+02  0.45594000000E+02  0.51100000000E-03 0.  1.
    9900012    2    1    2    0    0 -0.10160609312E+02 -0.34533385095E+02  0.18904307671E+02  0.50528861837E+02  0.30000006038E+02 0.  0.
         12    1    1    2    0    0  0.10160609312E+02  0.34533385095E+02 -0.18904307671E+02  0.40659138163E+02  0.00000000000E+00 0. -1.
         11    1    3    3    0    0 -0.21760766009E+01 -0.71869142368E+01 -0.10646569343E+01  0.75842297084E+01  0.51100000000E-03 0. -1.
        -11    1    3    3    0    0 -0.30322312246E+01 -0.13319090202E+02  0.23926563552E+02  0.27551280073E+02  0.51100000000E-03 0.  1.
        -12    1    3    3    0    0 -0.49523014865E+01 -0.14027380656E+02 -0.39575989465E+01  0.15393352055E+02  0.00000000000E+00 0.  1.
</event>
<event>
 7    1  0.3041451E-011  0.5052887E+02  0.7816164E-02  0.1300439E+00
        -11   -1    0    0    0    0  0.00000000000E+00  0.00000000000E+00  0.45593999997E+02  0.45594000000E+02  0.51100000000E-03 0.  1.
         11   -1    0    0    0    0 -0.00000000000E+00 -0.00000000000E+00 -0.45593999997E+02  0.45594000000E+02  0.51100000000E-03 0. -1.
    9900012    2    1    2    0    0  0.33674280196E+02  0.39199055313E+01  0.22446431599E+02  0.50528866984E+02  0.30000021686E+02 0.  0.
         12    1    1    2    0    0 -0.33674280196E+02 -0.39199055313E+01 -0.22446431599E+02  0.40659133016E+02  0.00000000000E+00 0. -1.
         11    1    3    3    0    0  0.11804641065E+02  0.86305868113E+01  0.19796052993E+02  0.24611385450E+02  0.51100000000E-03 0. -1.
        -11    1    3    3    0    0  0.10855506244E+02 -0.58675391744E+01  0.68018097051E+01  0.14090232337E+02  0.51100000000E-03 0.  1.
         12    1    3    3    0    0  0.11014132886E+02  0.11568578945E+01 -0.41514310993E+01  0.11827249198E+02  0.00000000000E+00 0. -1.
</event>
<event>
 7    1  0.3041451E-011  0.5052886E+02  0.7816164E-02  0.1300439E+00
        -11   -1    0    0    0    0  0.00000000000E+00  0.00000000000E+00  0.45593999997E+02  0.45594000000E+02  0.51100000000E-03 0.  1.
         11   -1    0    0    0    0 -0.00000000000E+00 -0.00000000000E+00 -0.45593999997E+02  0.45594000000E+02  0.51100000000E-03 0. -1.
    9900012    2    1    2    0    0  0.36988188260E+02 -0.16855757115E+02 -0.96093977564E+00  0.50528855592E+02  0.29999987058E+02 0.  0.
         12    1    1    2    0    0 -0.36988188260E+02  0.16855757115E+02  0.96093977564E+00  0.40659144408E+02  0.00000000000E+00 0. -1.
         11    1    3    3    0    0  0.80384933766E+01 -0.30246808439E+01  0.10835652768E+02  0.13826693066E+02  0.51100000000E-03 0. -1.
        -11    1    3    3    0    0  0.19512562194E+02 -0.23729610179E+01 -0.89033686550E+01  0.21578716390E+02  0.51100000000E-03 0.  1.
         12    1    3    3    0    0  0.94371326902E+01 -0.11458115253E+02 -0.28932238890E+01  0.15123446136E+02  0.00000000000E+00 0. -1.
</event>
<event>
 7    1  0.3041451E-011  0.5052886E+02  0.7816164E-02  0.1300439E+00
        -11   -1    0    0    0    0  0.00000000000E+00  0.00000000000E+00  0.45593999997E+02  0.45594000000E+02  0.51100000000E-03 0.  1.
         11   -1    0    0    0    0 -0.00000000000E+00 -0.00000000000E+00 -0.45593999997E+02  0.45594000000E+02  0.51100000000E-03 0. -1.
    9900012    2    1    2    0    0  0.21919468931E+02 -0.76621752537E+01  0.33376539513E+02  0.50528862802E+02  0.30000008973E+02 0.  0.
         12    1    1    2    0    0 -0.21919468931E+02  0.76621752537E+01 -0.33376539513E+02  0.40659137198E+02  0.00000000000E+00 0. -1.
         11    1    3    3    0    0  0.10206972647E+02 -0.80871002659E+01  0.48844281341E+01  0.13908311177E+02  0.51100000000E-03 0. -1.
        -11    1    3    3    0    0 -0.29784097371E+01 -0.24797809944E+01  0.17807425377E+02  0.18224287014E+02  0.51100000000E-03 0.  1.
        -12    1    3    3    0    0  0.14690906020E+02  0.29047060066E+01  0.10684686002E+02  0.18396264611E+02  0.00000000000E+00 0.  1.
</event>
<event>
 7    1  0.3041451E-011  0.5052886E+02  0.7816164E-02  0.1300439E+00
        -11   -1    0    0    0    0  0.00000000000E+00  0.00000000000E+00  0.45593999997E+02  0.45594000000E+02  0.51100000000E-03 0.  1.
         11   -1    0    0    0    0 -0.00000000000E+00 -0.00000000000E+00 -0.45593999997E+02  0.45594000000E+02  0.51100000000E-03 0. -1.
    9900012    2    1    2    0    0  0.10804454740E+02 -0.33085266474E+02  0.21018904926E+02  0.50528862476E+02  0.30000007982E+02 0.  0.
         12    1    1    2    0    0 -0.10804454740E+02  0.33085266474E+02 -0.21018904926E+02  0.40659137524E+02  0.00000000000E+00 0. -1.
         11    1    3    3    0    0 -0.10607331832E+00 -0.23156155380E+02  0.20359292363E+02  0.30833740761E+02  0.51100000000E-03 0. -1.
        -11    1    3    3    0    0  0.12014008596E+02 -0.31986359882E+01  0.23866315329E+01  0.12659529418E+02  0.51100000000E-03 0.  1.
         12    1    3    3    0    0 -0.11034805379E+01 -0.67304751059E+01 -0.17270189700E+01  0.70355922971E+01  0.00000000000E+00 0. -1.
</event>
<event>
 7    1  0.3041451E-011  0.5052885E+02  0.7816164E-02  0.1300439E+00
        -11   -1    0    0    0    0  0.00000000000E+00  0.00000000000E+00  0.45593999997E+02  0.45594000000E+02  0.51100000000E-03 0. -1.
         11   -1    0    0    0    0 -0.00000000000E+00 -0.00000000000E+00 -0.45593999997E+02  0.45594000000E+02  0.51100000000E-03 0.  1.
    9900012    2    1    2    0    0  0.30072121388E+02  0.18358540222E+02 -0.20292805131E+02  0.50528850673E+02  0.29999972105E+02 0.  0.
         12    1    1    2    0    0 -0.30072121388E+02 -0.18358540222E+02  0.20292805131E+02  0.40659149327E+02  0.00000000000E+00 0. -1.
         11    1    3    3    0    0 -0.11768544509E+01  0.55243169076E+01 -0.35764652475E+01  0.66853696698E+01  0.51100000000E-03 0. -1.
        -11    1    3    3    0    0  0.26473658530E+02  0.18965022250E+02 -0.15144729307E+02  0.35915031546E+02  0.51100000000E-03 0.  1.
        -12    1    3    3    0    0  0.47753173091E+01 -0.61307989352E+01 -0.15716105773E+01  0.79284494571E+01  0.00000000000E+00 0.  1.
</event>
<event>
 7    1  0.3041451E-011  0.5052886E+02  0.7816164E-02  0.1300439E+00
        -11   -1    0    0    0    0  0.00000000000E+00  0.00000000000E+00  0.45593999997E+02  0.45594000000E+02  0.51100000000E-03 0.  1.
         11   -1    0    0    0    0 -0.00000000000E+00 -0.00000000000E+00 -0.45593999997E+02  0.45594000000E+02  0.51100000000E-03 0. -1.
    9900012    2    1    2    0    0 -0.12794409516E+02  0.38007932213E+02 -0.66982045134E+01  0.50528858719E+02  0.29999996563E+02 0.  0.
         12    1    1    2    0    0  0.12794409516E+02 -0.38007932213E+02  0.66982045134E+01  0.40659141281E+02  0.00000000000E+00 0. -1.
         11    1    3    3    0    0  0.18701763719E+00  0.11524378173E+02  0.68652293708E+01  0.13415574622E+02  0.51100000000E-03 0. -1.
        -11    1    3    3    0    0 -0.11115767818E+02  0.29168072484E+02 -0.11601602958E+02  0.33300659724E+02  0.51100000000E-03 0.  1.
        -12    1    3    3    0    0 -0.18656593351E+01 -0.26845184435E+01 -0.19618309261E+01  0.38126243732E+01  0.00000000000E+00 0.  1.
</event>
<event>
 7    1  0.3041451E-011  0.5052886E+02  0.7816164E-02  0.1300439E+00
        -11   -1    0    0    0    0  0.00000000000E+00  0.00000000000E+00  0.45593999997E+02  0.45594000000E+02  0.51100000000E-03 0.  1.
         11   -1    0    0    0    0 -0.00000000000E+00 -0.00000000000E+00 -0.45593999997E+02  0.45594000000E+02  0.51100000000E-03 0. -1.
    9900012    2    1    2    0    0  0.23526671787E+02  0.31943667628E+02  0.89030058838E+01  0.50528859568E+02  0.29999999142E+02 0.  0.
         12    1    1    2    0    0 -0.23526671787E+02 -0.31943667628E+02 -0.89030058838E+01  0.40659140432E+02  0.00000000000E+00 0. -1.
         11    1    3    3    0    0 -0.25357377432E+01  0.12080846433E+02  0.68846247863E+01  0.14134174017E+02  0.51100000000E-03 0. -1.
        -11    1    3    3    0    0  0.20120734161E+02  0.16665609804E+02  0.80563158758E+01  0.27340276499E+02  0.51100000000E-03 0.  1.
         12    1    3    3    0    0  0.59416753695E+01  0.31972113916E+01 -0.60379347784E+01  0.90544090512E+01  0.00000000000E+00 0. -1.
</event>
<event>
 7    1  0.3041451E-011  0.5052885E+02  0.7816164E-02  0.1300439E+00
        -11   -1    0    0    0    0  0.00000000000E+00  0.00000000000E+00  0.45593999997E+02  0.45594000000E+02  0.51100000000E-03 0. -1.
         11   -1    0    0    0    0 -0.00000000000E+00 -0.00000000000E+00 -0.45593999997E+02  0.45594000000E+02  0.51100000000E-03 0.  1.
    9900012    2    1    2    0    0 -0.33817693325E+02  0.22011273420E+02 -0.50033527609E+01  0.50528854925E+02  0.29999985031E+02 0.  0.
         12    1    1    2    0    0  0.33817693325E+02 -0.22011273420E+02  0.50033527609E+01  0.40659145075E+02  0.00000000000E+00 0. -1.
         11    1    3    3    0    0 -0.11964357875E+02  0.58126653276E+00 -0.12137391438E+02  0.17052859037E+02  0.51100000000E-03 0. -1.
        -11    1    3    3    0    0 -0.12597396717E+02  0.19023182682E+02  0.28390162785E+01  0.22992083357E+02  0.51100000000E-03 0.  1.
        -12    1    3    3    0    0 -0.92559387321E+01  0.24068242054E+01  0.42950223987E+01  0.10483912532E+02  0.00000000000E+00 0.  1.
</event>
<event>
 7    1  0.3041451E-011  0.5052885E+02  0.7816164E-02  0.1300439E+00
        -11   -1    0    0    0    0  0.00000000000E+00  0.00000000000E+00  0.45593999997E+02  0.45594000000E+02  0.51100000000E-03 0. -1.
         11   -1    0    0    0    0 -0.00000000000E+00 -0.00000000000E+00 -0.45593999997E+02  0.45594000000E+02  0.51100000000E-03 0.  1.
    9900012    2    1    2    0    0 -0.38074547455E+02  0.21373137446E+01  0.14104155579E+02  0.50528850002E+02  0.29999970067E+02 0.  0.
         12    1    1    2    0    0  0.38074547455E+02 -0.21373137446E+01 -0.14104155579E+02  0.40659149998E+02  0.00000000000E+00 0. -1.
         11    1    3    3    0    0 -0.76827750490E+01  0.61991170702E+01  0.12264498032E+02  0.15743951128E+02  0.51100000000E-03 0. -1.
        -11    1    3    3    0    0 -0.76944378004E+01 -0.71727140402E+01 -0.38119966874E+01  0.11188544086E+02  0.51100000000E-03 0.  1.
        -12    1    3    3    0    0 -0.22697334606E+02  0.31109107145E+01  0.56516542343E+01  0.23596354787E+02  0.00000000000E+00 0.  1.
</event>
<event>
 7    1  0.3041451E-011  0.5052887E+02  0.7816164E-02  0.1300439E+00
        -11   -1    0    0    0    0  0.00000000000E+00  0.00000000000E+00  0.45593999997E+02  0.45594000000E+02  0.51100000000E-03 0.  1.
         11   -1    0    0    0    0 -0.00000000000E+00 -0.00000000000E+00 -0.45593999997E+02  0.45594000000E+02  0.51100000000E-03 0. -1.
    9900012    2    1    2    0    0  0.87445225402E+01 -0.30121818675E+01  0.39593247438E+02  0.50528866257E+02  0.30000019474E+02 0.  0.
         12    1    1    2    0    0 -0.87445225402E+01  0.30121818675E+01 -0.39593247438E+02  0.40659133743E+02  0.00000000000E+00 0. -1.
         11    1    3    3    0    0 -0.62350531771E+00  0.11234806278E+02  0.89121352996E+01  0.14353946734E+02  0.51100000000E-03 0. -1.
        -11    1    3    3    0    0  0.51014689915E+01 -0.96866885198E+00  0.75150513207E+01  0.91345115814E+01  0.51100000000E-03 0.  1.
         12    1    3    3    0    0  0.42665588665E+01 -0.13278319294E+02  0.23166060818E+02  0.27040407941E+02  0.00000000000E+00 0. -1.
</event>
<event>
 7    1  0.3041451E-011  0.5052886E+02  0.7816164E-02  0.1300439E+00
        -11   -1    0    0    0    0  0.00000000000E+00  0.00000000000E+00  0.45593999997E+02  0.45594000000E+02  0.51100000000E-03 0.  1.
         11   -1    0    0    0    0 -0.00000000000E+00 -0.00000000000E+00 -0.45593999997E+02  0.45594000000E+02  0.51100000000E-03 0. -1.
    9900012    2    1    2    0    0 -0.69774969088E+01 -0.15766990266E+02  0.36822306898E+02  0.50528859201E+02  0.29999998029E+02 0.  0.
         12    1    1    2    0    0  0.69774969088E+01  0.15766990266E+02 -0.36822306898E+02  0.40659140799E+02  0.00000000000E+00 0. -1.
         11    1    3    3    0    0  0.35732515549E+01  0.31409072748E+01  0.95259868037E+01  0.10647903551E+02  0.51100000000E-03 0. -1.
        -11    1    3    3    0    0 -0.53307487134E+01 -0.22173187317E+02  0.22876198658E+02  0.32301510537E+02  0.51100000000E-03 0.  1.
        -12    1    3    3    0    0 -0.52199997503E+01  0.32652897765E+01  0.44201214364E+01  0.75794451136E+01  0.00000000000E+00 0.  1.
</event>
<event>
 7    1  0.3041451E-011  0.5052886E+02  0.7816164E-02  0.1300439E+00
        -11   -1    0    0    0    0  0.00000000000E+00  0.00000000000E+00  0.45593999997E+02  0.45594000000E+02  0.51100000000E-03 0.  1.
         11   -1    0    0    0    0 -0.00000000000E+00 -0.00000000000E+00 -0.45593999997E+02  0.45594000000E+02  0.51100000000E-03 0. -1.
    9900012    2    1    2    0    0  0.37183716949E+01 -0.17056850123E+02  0.36720615020E+02  0.50528855990E+02  0.29999988267E+02 0.  0.
         12    1    1    2    0    0 -0.37183716949E+01  0.17056850123E+02 -0.36720615020E+02  0.40659144010E+02  0.00000000000E+00 0. -1.
         11    1    3    3    0    0  0.10986464605E+02 -0.91587930858E-01  0.12032319660E+02  0.16293787452E+02  0.51100000000E-03 0. -1.
        -11    1    3    3    0    0 -0.40554746237E+01 -0.11359649528E+02  0.25009408325E+02  0.27766148758E+02  0.51100000000E-03 0.  1.
        -12    1    3    3    0    0 -0.32126182864E+01 -0.56056126639E+01 -0.32111296397E+00  0.64689197806E+01  0.00000000000E+00 0.  1.
</event>
<event>
 7    1  0.3041451E-011  0.5052882E+02  0.7816164E-02  0.1300439E+00
        -11   -1    0    0    0    0  0.00000000000E+00  0.00000000000E+00  0.45593999997E+02  0.45594000000E+02  0.51100000000E-03 0.  1.
         11   -1    0    0    0    0 -0.00000000000E+00 -0.00000000000E+00 -0.45593999997E+02  0.45594000000E+02  0.51100000000E-03 0. -1.
    9900012    2    1    2    0    0 -0.35117321846E+02 -0.14626060823E+02  0.14353417764E+02  0.50528824525E+02  0.29999892625E+02 0.  0.
         12    1    1    2    0    0  0.35117321846E+02  0.14626060823E+02 -0.14353417764E+02  0.40659175475E+02  0.00000000000E+00 0. -1.
         11    1    3    3    0    0 -0.25302169094E+02  0.54349947409E+00  0.12284437293E+02  0.28131877868E+02  0.51100000000E-03 0. -1.
        -11    1    3    3    0    0  0.22270643379E+01 -0.47817684557E+01 -0.25180555987E+01  0.58451457970E+01  0.51100000000E-03 0.  1.
        -12    1    3    3    0    0 -0.12042217090E+02 -0.10387791842E+02  0.45870360697E+01  0.16551800859E+02  0.00000000000E+00 0.  1.
</event>
<event>
 7    1  0.3041451E-011  0.5052886E+02  0.7816164E-02  0.1300439E+00
        -11   -1    0    0    0    0  0.00000000000E+00  0.00000000000E+00  0.45593999997E+02  0.45594000000E+02  0.51100000000E-03 0.  1.
         11   -1    0    0    0    0 -0.00000000000E+00 -0.00000000000E+00 -0.45593999997E+02  0.45594000000E+02  0.51100000000E-03 0. -1.
    9900012    2    1    2    0    0  0.10691763948E+02 -0.22408798156E+01  0.39164149152E+02  0.50528856656E+02  0.29999990291E+02 0.  0.
         12    1    1    2    0    0 -0.10691763948E+02  0.22408798156E+01 -0.39164149152E+02  0.40659143344E+02  0.00000000000E+00 0. -1.
         11    1    3    3    0    0 -0.10244053384E+01  0.57390592393E+01  0.29815770115E+02  0.30380361339E+02  0.51100000000E-03 0. -1.
        -11    1    3    3    0    0  0.83084254016E+01 -0.14502534044E+01  0.96001912160E+01  0.12778765169E+02  0.51100000000E-03 0.  1.
         12    1    3    3    0    0  0.34077438851E+01 -0.65296856505E+01 -0.25181217926E+00  0.73697301480E+01  0.00000000000E+00 0. -1.
</event>
<event>
 7    1  0.3041451E-011  0.5052887E+02  0.7816164E-02  0.1300439E+00
        -11   -1    0    0    0    0  0.00000000000E+00  0.00000000000E+00  0.45593999997E+02  0.45594000000E+02  0.51100000000E-03 0.  1.
         11   -1    0    0    0    0 -0.00000000000E+00 -0.00000000000E+00 -0.45593999997E+02  0.45594000000E+02  0.51100000000E-03 0. -1.
    9900012    2    1    2    0    0 -0.20451827234E+02  0.41140000999E+01  0.34899325648E+02  0.50528866159E+02  0.30000019177E+02 0.  0.
         12    1    1    2    0    0  0.20451827234E+02 -0.41140000999E+01 -0.34899325648E+02  0.40659133841E+02  0.00000000000E+00 0. -1.
         11    1    3    3    0    0  0.27818347827E+00 -0.34157023341E+01 -0.31001018261E+01  0.46211513800E+01  0.51100000000E-03 0. -1.
        -11    1    3    3    0    0 -0.18017435234E+02  0.90562582199E+00  0.22530767743E+02  0.28863188075E+02  0.51100000000E-03 0.  1.
         12    1    3    3    0    0 -0.27125754787E+01  0.66240766120E+01  0.15468659731E+02  0.17044526704E+02  0.00000000000E+00 0. -1.
</event>
<event>
 7    1  0.3041451E-011  0.5052885E+02  0.7816164E-02  0.1300439E+00
        -11   -1    0    0    0    0  0.00000000000E+00  0.00000000000E+00  0.45593999997E+02  0.45594000000E+02  0.51100000000E-03 0.  1.
         11   -1    0    0    0    0 -0.00000000000E+00 -0.00000000000E+00 -0.45593999997E+02  0.45594000000E+02  0.51100000000E-03 0. -1.
    9900012    2    1    2    0    0  0.21733519265E+02  0.32861424443E+02  0.10047244371E+02  0.50528853483E+02  0.29999980646E+02 0.  0.
         12    1    1    2    0    0 -0.21733519265E+02 -0.32861424443E+02 -0.10047244371E+02  0.40659146517E+02  0.00000000000E+00 0. -1.
         11    1    3    3    0    0  0.12001269577E+02  0.48022212214E+01 -0.32543667751E+01  0.13329767571E+02  0.51100000000E-03 0. -1.
        -11    1    3    3    0    0  0.66230309461E+01  0.25531309744E+02  0.34969486477E+01  0.26607160056E+02  0.51100000000E-03 0.  1.
        -12    1    3    3    0    0  0.31092187421E+01  0.25278934773E+01  0.98046624988E+01  0.10591925856E+02  0.00000000000E+00 0.  1.
</event>
<event>
 7    1  0.4572603E-011  0.5052887E+02  0.7816164E-02  0.1300439E+00
        -11   -1    0    0    0    0  0.00000000000E+00  0.00000000000E+00  0.45593999997E+02  0.45594000000E+02  0.51100000000E-03 0.  1.
         11   -1    0    0    0    0 -0.00000000000E+00 -0.00000000000E+00 -0.45593999997E+02  0.45594000000E+02  0.51100000000E-03 0. -1.
    9900012    2    1    2    0    0 -0.32492635424E+02 -0.19478484481E+02  0.14764226214E+02  0.50528867075E+02  0.30000021962E+02 0.  0.
         12    1    1    2    0    0  0.32492635424E+02  0.19478484481E+02 -0.14764226214E+02  0.40659132925E+02  0.00000000000E+00 0. -1.
         11    1    3    3    0    0 -0.19585313917E+00  0.53144108792E+01  0.30413563358E+01  0.61262688536E+01  0.51100000000E-03 0. -1.
        -11    1    3    3    0    0 -0.26251971519E+02 -0.13156602180E+02  0.10688723726E+02  0.31249176065E+02  0.51100000000E-03 0.  1.
         12    1    3    3    0    0 -0.60448107652E+01 -0.11636293181E+02  0.10341461524E+01  0.13153422157E+02  0.00000000000E+00 0. -1.
</event>
<event>
 7    1  0.3041451E-011  0.5052885E+02  0.7816164E-02  0.1300439E+00
        -11   -1    0    0    0    0  0.00000000000E+00  0.00000000000E+00  0.45593999997E+02  0.45594000000E+02  0.51100000000E-03 0.  1.
         11   -1    0    0    0    0 -0.00000000000E+00 -0.00000000000E+00 -0.45593999997E+02  0.45594000000E+02  0.51100000000E-03 0. -1.
    9900012    2    1    2    0    0  0.59748342579E+00  0.31205055785E+02  0.26058661957E+02  0.50528851509E+02  0.29999974648E+02 0.  0.
         12    1    1    2    0    0 -0.59748342579E+00 -0.31205055785E+02 -0.26058661957E+02  0.40659148491E+02  0.00000000000E+00 0. -1.
         11    1    3    3    0    0 -0.16242379069E+00 -0.20432068626E+01  0.46233031394E+01  0.50572727780E+01  0.51100000000E-03 0. -1.
        -11    1    3    3    0    0  0.17313302718E+01  0.27299072427E+02  0.47923452676E+01  0.27770549748E+02  0.51100000000E-03 0.  1.
        -12    1    3    3    0    0 -0.97142305529E+00  0.59491902205E+01  0.16643013550E+02  0.17701028983E+02  0.00000000000E+00 0.  1.
</event>
<event>
 7    1  0.3041451E-011  0.5052887E+02  0.7816164E-02  0.1300439E+00
        -11   -1    0    0    0    0  0.00000000000E+00  0.00000000000E+00  0.45593999997E+02  0.45594000000E+02  0.51100000000E-03 0. -1.
         11   -1    0    0    0    0 -0.00000000000E+00 -0.00000000000E+00 -0.45593999997E+02  0.45594000000E+02  0.51100000000E-03 0.  1.
    9900012    2    1    2    0    0  0.40236865061E+02  0.47416326243E+01 -0.34170520128E+01  0.50528872681E+02  0.30000039003E+02 0.  0.
         12    1    1    2    0    0 -0.40236865061E+02 -0.47416326243E+01  0.34170520128E+01  0.40659127319E+02  0.00000000000E+00 0. -1.
         11    1    3    3    0    0  0.47351409160E+01 -0.11685216371E+01  0.23363793767E+01  0.54079266973E+01  0.51100000000E-03 0. -1.
        -11    1    3    3    0    0  0.30656742204E+02  0.16410863668E+01  0.63980500866E+01  0.31360230423E+02  0.51100000000E-03 0.  1.
        -12    1    3    3    0    0  0.48449819409E+01  0.42690678946E+01 -0.12151481476E+02  0.13760715561E+02  0.00000000000E+00 0.  1.
</event>
<event>
 7    1  0.3041451E-011  0.5052883E+02  0.7816164E-02  0.1300439E+00
        -11   -1    0    0    0    0  0.00000000000E+00  0.00000000000E+00  0.45593999997E+02  0.45594000000E+02  0.51100000000E-03 0.  1.
         11   -1    0    0    0    0 -0.00000000000E+00 -0.00000000000E+00 -0.45593999997E+02  0.45594000000E+02  0.51100000000E-03 0. -1.
    9900012    2    1    2    0    0 -0.16785498049E+02  0.15800066350E+02  0.33492876687E+02  0.50528833381E+02  0.29999919545E+02 0.  0.
         12    1    1    2    0    0  0.16785498049E+02 -0.15800066350E+02 -0.33492876687E+02  0.40659166619E+02  0.00000000000E+00 0. -1.
         11    1    3    3    0    0 -0.44250341553E+01 -0.66133308764E+01  0.95916727704E+00  0.80148034712E+01  0.51100000000E-03 0. -1.
        -11    1    3    3    0    0 -0.12712341059E+02  0.20456383608E+02  0.32591289865E+02  0.40524800071E+02  0.51100000000E-03 0.  1.
         12    1    3    3    0    0  0.35187716553E+00  0.19570136182E+01 -0.57580454852E-01  0.19892298385E+01  0.00000000000E+00 0. -1.
</event>
<event>
 7    1  0.3041451E-011  0.5052891E+02  0.7816164E-02  0.1300439E+00
        -11   -1    0    0    0    0  0.00000000000E+00  0.00000000000E+00  0.45593999997E+02  0.45594000000E+02  0.51100000000E-03 0.  1.
         11   -1    0    0    0    0 -0.00000000000E+00 -0.00000000000E+00 -0.45593999997E+02  0.45594000000E+02  0.51100000000E-03 0. -1.
    9900012    2    1    2    0    0 -0.75631942087E+01  0.85126862081E+00  0.39940391137E+02  0.50528912343E+02  0.30000159559E+02 0.  0.
         12    1    1    2    0    0  0.75631942087E+01 -0.85126862081E+00 -0.39940391137E+02  0.40659087657E+02  0.00000000000E+00 0. -1.
         11    1    3    3    0    0  0.52731622401E+01 -0.96624891162E+01  0.15467100936E+02  0.18984234184E+02  0.51100000000E-03 0.  1.
        -11    1    3    3    0    0 -0.88195895166E+01  0.80161954748E+01  0.78734269980E+01  0.14284096124E+02  0.51100000000E-03 0. -1.
        -12    1    3    3    0    0 -0.40167669322E+01  0.24975622622E+01  0.16599863203E+02  0.17260582035E+02  0.00000000000E+00 0.  1.
</event>
<event>
 7    1  0.3041451E-011  0.5052886E+02  0.7816164E-02  0.1300439E+00
        -11   -1    0    0    0    0  0.00000000000E+00  0.00000000000E+00  0.45593999997E+02  0.45594000000E+02  0.51100000000E-03 0.  1.
         11   -1    0    0    0    0 -0.00000000000E+00 -0.00000000000E+00 -0.45593999997E+02  0.45594000000E+02  0.51100000000E-03 0. -1.
    9900012    2    1    2    0    0 -0.83024645300E+01  0.34761933377E+02  0.19386662120E+02  0.50528860837E+02  0.30000002999E+02 0.  0.
         12    1    1    2    0    0  0.83024645300E+01 -0.34761933377E+02 -0.19386662120E+02  0.40659139163E+02  0.00000000000E+00 0. -1.
         11    1    3    3    0    0 -0.79112917868E+01  0.44445519863E+01 -0.38103887628E+01  0.98418312767E+01  0.51100000000E-03 0. -1.
        -11    1    3    3    0    0 -0.51704593137E+01  0.19074132647E+02  0.19871587656E+02  0.28025634372E+02  0.51100000000E-03 0.  1.
         12    1    3    3    0    0  0.47792865705E+01  0.11243248743E+02  0.33254632269E+01  0.12661395188E+02  0.00000000000E+00 0. -1.
</event>
<event>
 7    1  0.3041451E-011  0.5052885E+02  0.7816164E-02  0.1300439E+00
        -11   -1    0    0    0    0  0.00000000000E+00  0.00000000000E+00  0.45593999997E+02  0.45594000000E+02  0.51100000000E-03 0. -1.
         11   -1    0    0    0    0 -0.00000000000E+00 -0.00000000000E+00 -0.45593999997E+02  0.45594000000E+02  0.51100000000E-03 0.  1.
    9900012    2    1    2    0    0 -0.32189782361E+02 -0.22993773330E+02  0.93952668228E+01  0.50528846799E+02  0.29999960329E+02 0.  0.
         12    1    1    2    0    0  0.32189782361E+02  0.22993773330E+02 -0.93952668228E+01  0.40659153201E+02  0.00000000000E+00 0. -1.
         11    1    3    3    0    0 -0.11256008366E+02 -0.19717214088E+02 -0.48843499668E+01  0.23223331600E+02  0.51100000000E-03 0. -1.
        -11    1    3    3    0    0 -0.11864397840E+02 -0.42874881134E+01  0.33215719832E+01  0.13045280032E+02  0.51100000000E-03 0.  1.
         12    1    3    3    0    0 -0.90693761551E+01  0.10109288717E+01  0.10958044806E+02  0.14260235167E+02  0.00000000000E+00 0. -1.
</event>
<event>
 7    1  0.3041451E-011  0.5052886E+02  0.7816164E-02  0.1300439E+00
        -11   -1    0    0    0    0  0.00000000000E+00  0.00000000000E+00  0.45593999997E+02  0.45594000000E+02  0.51100000000E-03 0. -1.
         11   -1    0    0    0    0 -0.00000000000E+00 -0.00000000000E+00 -0.45593999997E+02  0.45594000000E+02  0.51100000000E-03 0.  1.
    9900012    2    1    2    0    0 -0.32721896656E+02 -0.24066071182E+02  0.18074833783E+01  0.50528864507E+02  0.30000014156E+02 0.  0.
         12    1    1    2    0    0  0.32721896656E+02  0.24066071182E+02 -0.18074833783E+01  0.40659135493E+02  0.00000000000E+00 0. -1.
         11    1    3    3    0    0 -0.22168414103E+02 -0.11473227553E+01  0.78094090806E+01  0.23531719099E+02  0.51100000000E-03 0. -1.
        -11    1    3    3    0    0 -0.65963549068E+01 -0.67684023490E+01 -0.39485959243E+01  0.10242781773E+02  0.51100000000E-03 0.  1.
         12    1    3    3    0    0 -0.39571276464E+01 -0.16150346077E+02 -0.20533297780E+01  0.16754363635E+02  0.00000000000E+00 0. -1.
</event>
<event>
 7    1  0.3041451E-011  0.5052884E+02  0.7816164E-02  0.1300439E+00
        -11   -1    0    0    0    0  0.00000000000E+00  0.00000000000E+00  0.45593999997E+02  0.45594000000E+02  0.51100000000E-03 0.  1.
         11   -1    0    0    0    0 -0.00000000000E+00 -0.00000000000E+00 -0.45593999997E+02  0.45594000000E+02  0.51100000000E-03 0. -1.
    9900012    2    1    2    0    0  0.88240346615E+01 -0.67093080840E+01  0.39118902375E+02  0.50528844503E+02  0.29999953352E+02 0.  0.
         12    1    1    2    0    0 -0.88240346615E+01  0.67093080840E+01 -0.39118902375E+02  0.40659155497E+02  0.00000000000E+00 0. -1.
         11    1    3    3    0    0  0.26067284876E+01  0.25643936408E+01 -0.32323251833E+01  0.48804789217E+01  0.51100000000E-03 0. -1.
        -11    1    3    3    0    0  0.61230194113E+01 -0.11415550074E+02  0.41253938657E+02  0.43239953806E+02  0.51100000000E-03 0.  1.
        -12    1    3    3    0    0  0.94286762519E-01  0.21418483494E+01  0.10972889015E+01  0.24084117752E+01  0.00000000000E+00 0.  1.
</event>
<event>
 7    1  0.3041451E-011  0.5052894E+02  0.7816164E-02  0.1300439E+00
        -11   -1    0    0    0    0  0.00000000000E+00  0.00000000000E+00  0.45593999997E+02  0.45594000000E+02  0.51100000000E-03 0. -1.
         11   -1    0    0    0    0 -0.00000000000E+00 -0.00000000000E+00 -0.45593999997E+02  0.45594000000E+02  0.51100000000E-03 0.  1.
    9900012    2    1    2    0    0  0.40301760782E+02  0.50174861338E+01 -0.19371072980E+01  0.50528936141E+02  0.30000231893E+02 0.  0.
         12    1    1    2    0    0 -0.40301760782E+02 -0.50174861338E+01  0.19371072980E+01  0.40659063859E+02  0.00000000000E+00 0. -1.
         11    1    3    3    0    0  0.10790646892E+02 -0.40347606886E+01  0.11694606912E+02  0.16415882104E+02  0.51100000000E-03 0. -1.
        -11    1    3    3    0    0  0.79044354570E+01  0.45365663252E+01 -0.28633569207E+01  0.95529758208E+01  0.51100000000E-03 0.  1.
         12    1    3    3    0    0  0.21606678433E+02  0.45156804972E+01 -0.10768357290E+02  0.24560078216E+02  0.00000000000E+00 0. -1.
</event>
<event>
 7    1  0.3041451E-011  0.5052886E+02  0.7816164E-02  0.1300439E+00
        -11   -1    0    0    0    0  0.00000000000E+00  0.00000000000E+00  0.45593999997E+02  0.45594000000E+02  0.51100000000E-03 0.  1.
         11   -1    0    0    0    0 -0.00000000000E+00 -0.00000000000E+00 -0.45593999997E+02  0.45594000000E+02  0.51100000000E-03 0. -1.
    9900012    2    1    2    0    0  0.16555183647E+02  0.32760988728E+02  0.17487397633E+02  0.50528861248E+02  0.30000004251E+02 0.  0.
         12    1    1    2    0    0 -0.16555183647E+02 -0.32760988728E+02 -0.17487397633E+02  0.40659138752E+02  0.00000000000E+00 0. -1.
         11    1    3    3    0    0 -0.39615453973E+00  0.45404812794E+01  0.36922891096E+01  0.58656549334E+01  0.51100000000E-03 0. -1.
        -11    1    3    3    0    0 -0.62189018209E+01  0.89997689393E+01 -0.12459304487E+01  0.11010128236E+02  0.51100000000E-03 0.  1.
        -12    1    3    3    0    0  0.23170240008E+02  0.19220738509E+02  0.15041038972E+02  0.33653078080E+02  0.00000000000E+00 0.  1.
</event>
<event>
 7    1  0.3041451E-011  0.5052887E+02  0.7816164E-02  0.1300439E+00
        -11   -1    0    0    0    0  0.00000000000E+00  0.00000000000E+00  0.45593999997E+02  0.45594000000E+02  0.51100000000E-03 0. -1.
         11   -1    0    0    0    0 -0.00000000000E+00 -0.00000000000E+00 -0.45593999997E+02  0.45594000000E+02  0.51100000000E-03 0.  1.
    9900012    2    1    2    0    0  0.13172633475E+02  0.36584774487E+02  0.11882813154E+02  0.50528865167E+02  0.30000016162E+02 0.  0.
         12    1    1    2    0    0 -0.13172633475E+02 -0.36584774487E+02 -0.11882813154E+02  0.40659134833E+02  0.00000000000E+00 0. -1.
         11    1    3    3    0    0  0.17521335729E+02  0.10869626762E+02  0.77496270639E+01  0.22027317394E+02  0.51100000000E-03 0. -1.
        -11    1    3    3    0    0 -0.45824366393E+01  0.12140537430E+02 -0.27726894941E+01  0.13269483107E+02  0.51100000000E-03 0.  1.
        -12    1    3    3    0    0  0.23373438586E+00  0.13574610294E+02  0.69058755844E+01  0.15232064666E+02  0.00000000000E+00 0.  1.
</event>
<event>
 7    1  0.3041451E-011  0.5052886E+02  0.7816164E-02  0.1300439E+00
        -11   -1    0    0    0    0  0.00000000000E+00  0.00000000000E+00  0.45593999997E+02  0.45594000000E+02  0.51100000000E-03 0.  1.
         11   -1    0    0    0    0 -0.00000000000E+00 -0.00000000000E+00 -0.45593999997E+02  0.45594000000E+02  0.51100000000E-03 0. -1.
    9900012    2    1    2    0    0  0.31503238366E+02 -0.21353290958E+02  0.14309037688E+02  0.50528860537E+02  0.30000002088E+02 0.  0.
         12    1    1    2    0    0 -0.31503238366E+02  0.21353290958E+02 -0.14309037688E+02  0.40659139463E+02  0.00000000000E+00 0. -1.
         11    1    3    3    0    0  0.17123698313E+02 -0.61017057007E+01  0.21372040544E+01  0.18303537850E+02  0.51100000000E-03 0. -1.
        -11    1    3    3    0    0  0.81407175738E+01 -0.33263198468E+01  0.15978549819E+02  0.18238688026E+02  0.51100000000E-03 0.  1.
        -12    1    3    3    0    0  0.62388224790E+01 -0.11925265411E+02 -0.38067161846E+01  0.13986634661E+02  0.00000000000E+00 0.  1.
</event>
<event>
 7    1  0.3041451E-011  0.5052888E+02  0.7816164E-02  0.1300439E+00
        -11   -1    0    0    0    0  0.00000000000E+00  0.00000000000E+00  0.45593999997E+02  0.45594000000E+02  0.51100000000E-03 0. -1.
         11   -1    0    0    0    0 -0.00000000000E+00 -0.00000000000E+00 -0.45593999997E+02  0.45594000000E+02  0.51100000000E-03 0.  1.
    9900012    2    1    2    0    0 -0.38458891797E+02 -0.65971346257E+01 -0.11426099071E+02  0.50528876995E+02  0.30000052115E+02 0.  0.
         12    1    1    2    0    0  0.38458891797E+02  0.65971346257E+01  0.11426099071E+02  0.40659123005E+02  0.00000000000E+00 0. -1.
         11    1    3    3    0    0  0.44080354653E+01 -0.11505429203E+01 -0.45502399833E+00  0.45783810212E+01  0.51100000000E-03 0. -1.
        -11    1    3    3    0    0 -0.13323474084E+02  0.43482203911E+00 -0.83131581731E+01  0.15710271511E+02  0.51100000000E-03 0.  1.
         12    1    3    3    0    0 -0.29543453178E+02 -0.58814137445E+01 -0.26579169001E+01  0.30240224463E+02  0.00000000000E+00 0. -1.
</event>
<event>
 7    1  0.3041451E-011  0.5052887E+02  0.7816164E-02  0.1300439E+00
        -11   -1    0    0    0    0  0.00000000000E+00  0.00000000000E+00  0.45593999997E+02  0.45594000000E+02  0.51100000000E-03 0. -1.
         11   -1    0    0    0    0 -0.00000000000E+00 -0.00000000000E+00 -0.45593999997E+02  0.45594000000E+02  0.51100000000E-03 0.  1.
    9900012    2    1    2    0    0  0.38486473239E+02  0.13092427717E+02  0.73811541333E+00  0.50528866952E+02  0.30000021586E+02 0.  0.
         12    1    1    2    0    0 -0.38486473239E+02 -0.13092427717E+02 -0.73811541333E+00  0.40659133048E+02  0.00000000000E+00 0. -1.
         11    1    3    3    0    0  0.18747878025E+02 -0.16438913396E+01  0.23748388155E+00  0.18821309945E+02  0.51100000000E-03 0. -1.
        -11    1    3    3    0    0 -0.28884786056E+01  0.62983102806E+01 -0.25137189068E+01  0.73709432265E+01  0.51100000000E-03 0.  1.
         12    1    3    3    0    0  0.22627073819E+02  0.84380087756E+01  0.30143504386E+01  0.24336613780E+02  0.00000000000E+00 0. -1.
</event>
<event>
 7    1  0.3041451E-011  0.5052886E+02  0.7816164E-02  0.1300439E+00
        -11   -1    0    0    0    0  0.00000000000E+00  0.00000000000E+00  0.45593999997E+02  0.45594000000E+02  0.51100000000E-03 0.  1.
         11   -1    0    0    0    0 -0.00000000000E+00 -0.00000000000E+00 -0.45593999997E+02  0.45594000000E+02  0.51100000000E-03 0. -1.
    9900012    2    1    2    0    0 -0.21582562187E+02 -0.34034666825E+02 -0.53851959363E+01  0.50528857465E+02  0.29999992750E+02 0.  0.
         12    1    1    2    0    0  0.21582562187E+02  0.34034666825E+02  0.53851959363E+01  0.40659142535E+02  0.00000000000E+00 0. -1.
         11    1    3    3    0    0 -0.16816182765E+02 -0.13104452648E+02 -0.14455221259E+02  0.25757796954E+02  0.51100000000E-03 0. -1.
        -11    1    3    3    0    0 -0.40444709150E+01 -0.40258640168E+01  0.44366471499E+01  0.72283583377E+01  0.51100000000E-03 0.  1.
         12    1    3    3    0    0 -0.72190850617E+00 -0.16904350161E+02  0.46333781729E+01  0.17542702173E+02  0.00000000000E+00 0. -1.
</event>
<event>
 7    1  0.3041451E-011  0.5052886E+02  0.7816164E-02  0.1300439E+00
        -11   -1    0    0    0    0  0.00000000000E+00  0.00000000000E+00  0.45593999997E+02  0.45594000000E+02  0.51100000000E-03 0.  1.
         11   -1    0    0    0    0 -0.00000000000E+00 -0.00000000000E+00 -0.45593999997E+02  0.45594000000E+02  0.51100000000E-03 0. -1.
    9900012    2    1    2    0    0  0.17665757658E+02  0.16496495905E+02  0.32694840070E+02  0.50528856650E+02  0.29999990273E+02 0.  0.
         12    1    1    2    0    0 -0.17665757658E+02 -0.16496495905E+02 -0.32694840070E+02  0.40659143350E+02  0.00000000000E+00 0. -1.
         11    1    3    3    0    0 -0.55542493650E+00  0.12776803390E+02  0.56191658570E+00  0.12801209015E+02  0.51100000000E-03 0. -1.
        -11    1    3    3    0    0  0.68775026264E+01 -0.13577445748E+01  0.15045720574E+02  0.16598711412E+02  0.51100000000E-03 0.  1.
         12    1    3    3    0    0  0.11343679968E+02  0.50774370901E+01  0.17087202910E+02  0.21128936223E+02  0.00000000000E+00 0. -1.
</event>
<event>
 7    1  0.3041451E-011  0.5052885E+02  0.7816164E-02  0.1300439E+00
        -11   -1    0    0    0    0  0.00000000000E+00  0.00000000000E+00  0.45593999997E+02  0.45594000000E+02  0.51100000000E-03 0.  1.
         11   -1    0    0    0    0 -0.00000000000E+00 -0.00000000000E+00 -0.45593999997E+02  0.45594000000E+02  0.51100000000E-03 0. -1.
    9900012    2    1    2    0    0  0.28653869606E+02  0.14128798518E+01  0.28811908511E+02  0.50528849186E+02  0.29999967585E+02 0.  0.
         12    1    1    2    0    0 -0.28653869606E+02 -0.14128798518E+01 -0.28811908511E+02  0.40659150814E+02  0.00000000000E+00 0. -1.
         11    1    3    3    0    0  0.14475621810E+02  0.12870510616E+02  0.68504800590E+01  0.20545625997E+02  0.51100000000E-03 0.  1.
        -11    1    3    3    0    0  0.14549229162E+02 -0.77371390167E+01  0.19385199956E+02  0.25442668235E+02  0.51100000000E-03 0. -1.
         12    1    3    3    0    0 -0.37098136562E+00 -0.37204917477E+01  0.25762284968E+01  0.45405549535E+01  0.00000000000E+00 0. -1.
</event>
<event>
 7    1  0.3041451E-011  0.5052885E+02  0.7816164E-02  0.1300439E+00
        -11   -1    0    0    0    0  0.00000000000E+00  0.00000000000E+00  0.45593999997E+02  0.45594000000E+02  0.51100000000E-03 0. -1.
         11   -1    0    0    0    0 -0.00000000000E+00 -0.00000000000E+00 -0.45593999997E+02  0.45594000000E+02  0.51100000000E-03 0.  1.
    9900012    2    1    2    0    0 -0.31295571369E+02 -0.18422123982E+02 -0.18286024457E+02  0.50528854292E+02  0.29999983105E+02 0.  0.
         12    1    1    2    0    0  0.31295571369E+02  0.18422123982E+02  0.18286024457E+02  0.40659145708E+02  0.00000000000E+00 0. -1.
         11    1    3    3    0    0 -0.40994116953E+01 -0.13829015481E+02 -0.28702329827E+01  0.14706633981E+02  0.51100000000E-03 0. -1.
        -11    1    3    3    0    0 -0.29563827554E+02 -0.47503426535E+01 -0.14601535087E+02  0.33313518009E+02  0.51100000000E-03 0.  1.
        -12    1    3    3    0    0  0.23676678809E+01  0.15723415234E+00 -0.81425638696E+00  0.25087023013E+01  0.00000000000E+00 0.  1.
</event>
<event>
 7    1  0.3041451E-011  0.5052886E+02  0.7816164E-02  0.1300439E+00
        -11   -1    0    0    0    0  0.00000000000E+00  0.00000000000E+00  0.45593999997E+02  0.45594000000E+02  0.51100000000E-03 0.  1.
         11   -1    0    0    0    0 -0.00000000000E+00 -0.00000000000E+00 -0.45593999997E+02  0.45594000000E+02  0.51100000000E-03 0. -1.
    9900012    2    1    2    0    0  0.11913643105E+00 -0.38961545496E+02  0.11625387934E+02  0.50528857541E+02  0.29999992980E+02 0.  0.
         12    1    1    2    0    0 -0.11913643105E+00  0.38961545496E+02 -0.11625387934E+02  0.40659142459E+02  0.00000000000E+00 0. -1.
         11    1    3    3    0    0  0.32507235400E+01 -0.38274506276E+01  0.13376071491E+01  0.51967080914E+01  0.51100000000E-03 0. -1.
        -11    1    3    3    0    0 -0.14786760085E+02 -0.21526274636E+02  0.44779228935E+01  0.26496802962E+02  0.51100000000E-03 0.  1.
        -12    1    3    3    0    0  0.11655172976E+02 -0.13607820232E+02  0.58098578918E+01  0.18835346487E+02  0.00000000000E+00 0.  1.
</event>
<event>
 7    1  0.3041451E-011  0.5052886E+02  0.7816164E-02  0.1300439E+00
        -11   -1    0    0    0    0  0.00000000000E+00  0.00000000000E+00  0.45593999997E+02  0.45594000000E+02  0.51100000000E-03 0. -1.
         11   -1    0    0    0    0 -0.00000000000E+00 -0.00000000000E+00 -0.45593999997E+02  0.45594000000E+02  0.51100000000E-03 0.  1.
    9900012    2    1    2    0    0  0.51782487846E+01 -0.36602186266E+02 -0.16930194559E+02  0.50528858497E+02  0.29999995889E+02 0.  0.
         12    1    1    2    0    0 -0.51782487846E+01  0.36602186266E+02  0.16930194559E+02  0.40659141503E+02  0.00000000000E+00 0. -1.
         11    1    3    3    0    0  0.40990493735E+01 -0.19523718114E+01  0.69719791527E+01  0.83200033067E+01  0.51100000000E-03 0. -1.
        -11    1    3    3    0    0  0.81796111282E+00 -0.10158597105E+02 -0.55601132572E+01  0.11609522609E+02  0.51100000000E-03 0.  1.
         12    1    3    3    0    0  0.26123829826E+00 -0.24491217350E+02 -0.18342060455E+02  0.30599332582E+02  0.00000000000E+00 0. -1.
</event>
<event>
 7    1  0.3041451E-011  0.5052886E+02  0.7816164E-02  0.1300439E+00
        -11   -1    0    0    0    0  0.00000000000E+00  0.00000000000E+00  0.45593999997E+02  0.45594000000E+02  0.51100000000E-03 0.  1.
         11   -1    0    0    0    0 -0.00000000000E+00 -0.00000000000E+00 -0.45593999997E+02  0.45594000000E+02  0.51100000000E-03 0. -1.
    9900012    2    1    2    0    0 -0.29659086575E+02 -0.19552205152E+01  0.27743127319E+02  0.50528863054E+02  0.30000009740E+02 0.  0.
         12    1    1    2    0    0  0.29659086575E+02  0.19552205152E+01 -0.27743127319E+02  0.40659136946E+02  0.00000000000E+00 0. -1.
         11    1    3    3    0    0  0.11398449461E+01 -0.96297529285E+01  0.56437298999E+01  0.11219762716E+02  0.51100000000E-03 0. -1.
        -11    1    3    3    0    0 -0.86472583724E+01  0.33108489465E+00  0.92563250004E+01  0.12671394846E+02  0.51100000000E-03 0.  1.
         12    1    3    3    0    0 -0.22151673149E+02  0.73434475186E+01  0.12843072418E+02  0.26637705492E+02  0.00000000000E+00 0. -1.
</event>
<event>
 7    1  0.3041451E-011  0.5052886E+02  0.7816164E-02  0.1300439E+00
        -11   -1    0    0    0    0  0.00000000000E+00  0.00000000000E+00  0.45593999997E+02  0.45594000000E+02  0.51100000000E-03 0.  1.
         11   -1    0    0    0    0 -0.00000000000E+00 -0.00000000000E+00 -0.45593999997E+02  0.45594000000E+02  0.51100000000E-03 0. -1.
    9900012    2    1    2    0    0  0.11359029294E+02  0.21733807471E+02  0.32431148060E+02  0.50528864518E+02  0.30000014188E+02 0.  0.
         12    1    1    2    0    0 -0.11359029294E+02 -0.21733807471E+02 -0.32431148060E+02  0.40659135482E+02  0.00000000000E+00 0. -1.
         11    1    3    3    0    0  0.13071355730E+02 -0.27115707556E+01  0.69809112364E+01  0.15064729621E+02  0.51100000000E-03 0. -1.
        -11    1    3    3    0    0  0.68355334116E+00  0.11176046417E+02  0.12205611945E+02  0.16563460445E+02  0.51100000000E-03 0.  1.
         12    1    3    3    0    0 -0.23958797773E+01  0.13269331810E+02  0.13244624879E+02  0.18900674452E+02  0.00000000000E+00 0. -1.
</event>
<event>
 7    1  0.3348583E-011  0.5052887E+02  0.7816164E-02  0.1300439E+00
        -11   -1    0    0    0    0  0.00000000000E+00  0.00000000000E+00  0.45593999997E+02  0.45594000000E+02  0.51100000000E-03 0. -1.
         11   -1    0    0    0    0 -0.00000000000E+00 -0.00000000000E+00 -0.45593999997E+02  0.45594000000E+02  0.51100000000E-03 0.  1.
    9900012    2    1    2    0    0 -0.14852297511E+02 -0.12016832240E+02 -0.35891085682E+02  0.50528867817E+02  0.30000024216E+02 0.  0.
         12    1    1    2    0    0  0.14852297511E+02  0.12016832240E+02  0.35891085682E+02  0.40659132183E+02  0.00000000000E+00 0. -1.
         11    1    3    3    0    0 -0.14967872737E+01 -0.29900664940E+01  0.37601761185E+01  0.50318778289E+01  0.51100000000E-03 0. -1.
        -11    1    3    3    0    0 -0.16456554157E+02 -0.72368302264E+01 -0.27712789957E+02  0.33033144172E+02  0.51100000000E-03 0.  1.
        -12    1    3    3    0    0  0.31010439195E+01 -0.17899355192E+01 -0.11938471844E+02  0.12463845816E+02  0.00000000000E+00 0.  1.
</event>
<event>
 7    1  0.3041451E-011  0.5052887E+02  0.7816164E-02  0.1300439E+00
        -11   -1    0    0    0    0  0.00000000000E+00  0.00000000000E+00  0.45593999997E+02  0.45594000000E+02  0.51100000000E-03 0.  1.
         11   -1    0    0    0    0 -0.00000000000E+00 -0.00000000000E+00 -0.45593999997E+02  0.45594000000E+02  0.51100000000E-03 0. -1.
    9900012    2    1    2    0    0  0.39272913477E+02  0.63417231679E+01  0.84015169132E+01  0.50528872216E+02  0.30000037589E+02 0.  0.
         12    1    1    2    0    0 -0.39272913477E+02 -0.63417231679E+01 -0.84015169132E+01  0.40659127784E+02  0.00000000000E+00 0. -1.
         11    1    3    3    0    0  0.68376393953E+01 -0.24775618585E+01 -0.75515463714E+01  0.10484153668E+02  0.51100000000E-03 0. -1.
        -11    1    3    3    0    0  0.14801591233E+02  0.80450335328E+01  0.14684961675E+02  0.22348551793E+02  0.51100000000E-03 0.  1.
        -12    1    3    3    0    0  0.17633682848E+02  0.77425149369E+00  0.12681016096E+01  0.17696166756E+02  0.00000000000E+00 0.  1.
</event>
<event>
 7    1  0.3041451E-011  0.5052886E+02  0.7816164E-02  0.1300439E+00
        -11   -1    0    0    0    0  0.00000000000E+00  0.00000000000E+00  0.45593999997E+02  0.45594000000E+02  0.51100000000E-03 0.  1.
         11   -1    0    0    0    0 -0.00000000000E+00 -0.00000000000E+00 -0.45593999997E+02  0.45594000000E+02  0.51100000000E-03 0. -1.
    9900012    2    1    2    0    0  0.33743497201E+02  0.22048977890E+02 -0.53277101475E+01  0.50528861731E+02  0.30000005718E+02 0.  0.
         12    1    1    2    0    0 -0.33743497201E+02 -0.22048977890E+02  0.53277101475E+01  0.40659138269E+02  0.00000000000E+00 0. -1.
         11    1    3    3    0    0  0.11371099904E+01 -0.67947463714E+00  0.38788678338E+01  0.40988194454E+01  0.51100000000E-03 0. -1.
        -11    1    3    3    0    0  0.22092325246E+02  0.24016395123E+02 -0.13073570042E+02  0.35153610105E+02  0.51100000000E-03 0.  1.
        -12    1    3    3    0    0  0.10514061965E+02 -0.12879425967E+01  0.38669920605E+01  0.11276432181E+02  0.00000000000E+00 0.  1.
</event>
<event>
 7    1  0.3041451E-011  0.5052886E+02  0.7816164E-02  0.1300439E+00
        -11   -1    0    0    0    0  0.00000000000E+00  0.00000000000E+00  0.45593999997E+02  0.45594000000E+02  0.51100000000E-03 0.  1.
         11   -1    0    0    0    0 -0.00000000000E+00 -0.00000000000E+00 -0.45593999997E+02  0.45594000000E+02  0.51100000000E-03 0. -1.
    9900012    2    1    2    0    0 -0.18546349685E+02 -0.12666254363E+02  0.33893424651E+02  0.50528864240E+02  0.30000013343E+02 0.  0.
         12    1    1    2    0    0  0.18546349685E+02  0.12666254363E+02 -0.33893424651E+02  0.40659135760E+02  0.00000000000E+00 0. -1.
         11    1    3    3    0    0 -0.59125873625E+01  0.46891808439E+01  0.28906892309E+01  0.80810389676E+01  0.51100000000E-03 0. -1.
        -11    1    3    3    0    0  0.12517312571E+01 -0.13349240375E+02  0.90904691558E+01  0.16198940690E+02  0.51100000000E-03 0.  1.
        -12    1    3    3    0    0 -0.13885493580E+02 -0.40061948310E+01  0.21912266264E+02  0.26248884582E+02  0.00000000000E+00 0.  1.
</event>
<event>
 7    1  0.3041451E-011  0.5052885E+02  0.7816164E-02  0.1300439E+00
        -11   -1    0    0    0    0  0.00000000000E+00  0.00000000000E+00  0.45593999997E+02  0.45594000000E+02  0.51100000000E-03 0.  1.
         11   -1    0    0    0    0 -0.00000000000E+00 -0.00000000000E+00 -0.45593999997E+02  0.45594000000E+02  0.51100000000E-03 0. -1.
    9900012    2    1    2    0    0  0.63677660537E+01 -0.37714333967E+02  0.13793019224E+02  0.50528845921E+02  0.29999957661E+02 0.  0.
         12    1    1    2    0    0 -0.63677660537E+01  0.37714333967E+02 -0.13793019224E+02  0.40659154079E+02  0.00000000000E+00 0. -1.
         11    1    3    3    0    0  0.10461200680E+02 -0.15219152951E+02 -0.20922264415E+01  0.18585928762E+02  0.51100000000E-03 0. -1.
        -11    1    3    3    0    0 -0.85111452545E+01 -0.17809001496E+02  0.16140901314E+02  0.25497623876E+02  0.51100000000E-03 0.  1.
        -12    1    3    3    0    0  0.44177106284E+01 -0.46861795203E+01 -0.25565564822E+00  0.64452932830E+01  0.00000000000E+00 0.  1.
</event>
<event>
 7    1  0.3041451E-011  0.5052886E+02  0.7816164E-02  0.1300439E+00
        -11   -1    0    0    0    0  0.00000000000E+00  0.00000000000E+00  0.45593999997E+02  0.45594000000E+02  0.51100000000E-03 0.  1.
         11   -1    0    0    0    0 -0.00000000000E+00 -0.00000000000E+00 -0.45593999997E+02  0.45594000000E+02  0.51100000000E-03 0. -1.
    9900012    2    1    2    0    0  0.18499280293E+02  0.35983819247E+02  0.40133466139E+01  0.50528861175E+02  0.30000004028E+02 0.  0.
         12    1    1    2    0    0 -0.18499280293E+02 -0.35983819247E+02 -0.40133466139E+01  0.40659138825E+02  0.00000000000E+00 0. -1.
         11    1    3    3    0    0 -0.13568835830E+01  0.22761852463E+02  0.65821746176E+01  0.23733269551E+02  0.51100000000E-03 0.  1.
        -11    1    3    3    0    0  0.13973551240E+02  0.13006686120E+02 -0.59640248375E+01  0.20000090265E+02  0.51100000000E-03 0. -1.
        -12    1    3    3    0    0  0.58826126357E+01  0.21528066398E+00  0.33951968338E+01  0.67955013594E+01  0.00000000000E+00 0.  1.
</event>
<event>
 7    1  0.3041451E-011  0.5052884E+02  0.7816164E-02  0.1300439E+00
        -11   -1    0    0    0    0  0.00000000000E+00  0.00000000000E+00  0.45593999997E+02  0.45594000000E+02  0.51100000000E-03 0.  1.
         11   -1    0    0    0    0 -0.00000000000E+00 -0.00000000000E+00 -0.45593999997E+02  0.45594000000E+02  0.51100000000E-03 0. -1.
    9900012    2    1    2    0    0  0.36497614928E+01  0.36659354649E+02  0.17202856724E+02  0.50528839633E+02  0.29999938550E+02 0.  0.
         12    1    1    2    0    0 -0.36497614928E+01 -0.36659354649E+02 -0.17202856724E+02  0.40659160367E+02  0.00000000000E+00 0. -1.
         11    1    3    3    0    0 -0.67932930850E+01  0.12738661964E+02 -0.18293077981E+01  0.14552274972E+02  0.51100000000E-03 0. -1.
        -11    1    3    3    0    0  0.60368420208E+01  0.12227223988E+02  0.19114708205E+02  0.23480215886E+02  0.51100000000E-03 0.  1.
         12    1    3    3    0    0  0.44062125570E+01  0.11693468697E+02 -0.82543682407E-01  0.12496348775E+02  0.00000000000E+00 0. -1.
</event>
<event>
 7    1  0.3041451E-011  0.5052886E+02  0.7816164E-02  0.1300439E+00
        -11   -1    0    0    0    0  0.00000000000E+00  0.00000000000E+00  0.45593999997E+02  0.45594000000E+02  0.51100000000E-03 0.  1.
         11   -1    0    0    0    0 -0.00000000000E+00 -0.00000000000E+00 -0.45593999997E+02  0.45594000000E+02  0.51100000000E-03 0. -1.
    9900012    2    1    2    0    0  0.29746144839E+02  0.11481488601E+02  0.25229107877E+02  0.50528860836E+02  0.30000002997E+02 0.  0.
         12    1    1    2    0    0 -0.29746144839E+02 -0.11481488601E+02 -0.25229107877E+02  0.40659139164E+02  0.00000000000E+00 0. -1.
         11    1    3    3    0    0  0.52341560123E+01 -0.17126481644E-01 -0.23010884553E+01  0.57176648045E+01  0.51100000000E-03 0. -1.
        -11    1    3    3    0    0  0.15917370577E+02 -0.15831550830E+01  0.23873982164E+02  0.28737364019E+02  0.51100000000E-03 0.  1.
        -12    1    3    3    0    0  0.85946182496E+01  0.13081770166E+02  0.36562141684E+01  0.16073832013E+02  0.00000000000E+00 0.  1.
</event>
<event>
 7    1  0.3041451E-011  0.5052885E+02  0.7816164E-02  0.1300439E+00
        -11   -1    0    0    0    0  0.00000000000E+00  0.00000000000E+00  0.45593999997E+02  0.45594000000E+02  0.51100000000E-03 0.  1.
         11   -1    0    0    0    0 -0.00000000000E+00 -0.00000000000E+00 -0.45593999997E+02  0.45594000000E+02  0.51100000000E-03 0. -1.
    9900012    2    1    2    0    0  0.20947632644E+02  0.32787317233E+02  0.11804867637E+02  0.50528851156E+02  0.29999973575E+02 0.  0.
         12    1    1    2    0    0 -0.20947632644E+02 -0.32787317233E+02 -0.11804867637E+02  0.40659148844E+02  0.00000000000E+00 0. -1.
         11    1    3    3    0    0  0.24275847187E+01  0.22929042161E+02  0.68709541508E+00  0.23067428170E+02  0.51100000000E-03 0. -1.
        -11    1    3    3    0    0  0.14574293145E+02  0.91342159322E+01  0.17721367016E+01  0.17291165088E+02  0.51100000000E-03 0.  1.
         12    1    3    3    0    0  0.39457547812E+01  0.72405913958E+00  0.93456355205E+01  0.10170257898E+02  0.00000000000E+00 0. -1.
</event>
<event>
 7    1  0.3041451E-011  0.5052885E+02  0.7816164E-02  0.1300439E+00
        -11   -1    0    0    0    0  0.00000000000E+00  0.00000000000E+00  0.45593999997E+02  0.45594000000E+02  0.51100000000E-03 0.  1.
         11   -1    0    0    0    0 -0.00000000000E+00 -0.00000000000E+00 -0.45593999997E+02  0.45594000000E+02  0.51100000000E-03 0. -1.
    9900012    2    1    2    0    0  0.34590072778E+01  0.23300311164E+02  0.33140564593E+02  0.50528852773E+02  0.29999978489E+02 0.  0.
         12    1    1    2    0    0 -0.34590072778E+01 -0.23300311164E+02 -0.33140564593E+02  0.40659147227E+02  0.00000000000E+00 0. -1.
         11    1    3    3    0    0  0.38367372988E+01  0.61671068173E+01 -0.68046324089E+00  0.72949838985E+01  0.51100000000E-03 0. -1.
        -11    1    3    3    0    0  0.78941061805E+01  0.15015929801E+02  0.28518582066E+02  0.33182895948E+02  0.51100000000E-03 0.  1.
        -12    1    3    3    0    0 -0.82718362016E+01  0.21172745455E+01  0.53024457683E+01  0.10050972927E+02  0.00000000000E+00 0.  1.
</event>
<event>
 7    1  0.3041451E-011  0.5052885E+02  0.7816164E-02  0.1300439E+00
        -11   -1    0    0    0    0  0.00000000000E+00  0.00000000000E+00  0.45593999997E+02  0.45594000000E+02  0.51100000000E-03 0.  1.
         11   -1    0    0    0    0 -0.00000000000E+00 -0.00000000000E+00 -0.45593999997E+02  0.45594000000E+02  0.51100000000E-03 0. -1.
    9900012    2    1    2    0    0  0.17086614392E+02 -0.13609603086E+02  0.34292747974E+02  0.50528852799E+02  0.29999978567E+02 0.  0.
         12    1    1    2    0    0 -0.17086614392E+02  0.13609603086E+02 -0.34292747974E+02  0.40659147201E+02  0.00000000000E+00 0. -1.
         11    1    3    3    0    0 -0.22708888623E+01 -0.17571865096E+01 -0.13379247706E+01  0.31677568731E+01  0.51100000000E-03 0. -1.
        -11    1    3    3    0    0  0.18182062682E+02 -0.13550384461E+02  0.37979228601E+02  0.44233721614E+02  0.51100000000E-03 0.  1.
        -12    1    3    3    0    0  0.11754405720E+01  0.16979678844E+01 -0.23485558568E+01  0.31273743120E+01  0.00000000000E+00 0.  1.
</event>
<event>
 7    1  0.3041451E-011  0.5052886E+02  0.7816164E-02  0.1300439E+00
        -11   -1    0    0    0    0  0.00000000000E+00  0.00000000000E+00  0.45593999997E+02  0.45594000000E+02  0.51100000000E-03 0. -1.
         11   -1    0    0    0    0 -0.00000000000E+00 -0.00000000000E+00 -0.45593999997E+02  0.45594000000E+02  0.51100000000E-03 0.  1.
    9900012    2    1    2    0    0 -0.39537111864E+02  0.94313218239E+01 -0.10162582797E+01  0.50528858017E+02  0.29999994428E+02 0.  0.
         12    1    1    2    0    0  0.39537111864E+02 -0.94313218239E+01  0.10162582797E+01  0.40659141983E+02  0.00000000000E+00 0. -1.
         11    1    3    3    0    0 -0.31933416670E+01 -0.50263653839E+00 -0.10113882960E+02  0.10617942517E+02  0.51100000000E-03 0. -1.
        -11    1    3    3    0    0 -0.28500200793E+02  0.54792169235E+01  0.10332285939E+02  0.30806483024E+02  0.51100000000E-03 0.  1.
        -12    1    3    3    0    0 -0.78435694043E+01  0.44547414388E+01 -0.12346612582E+01  0.91044324759E+01  0.00000000000E+00 0.  1.
</event>
<event>
 7    1  0.3041451E-011  0.5052886E+02  0.7816164E-02  0.1300439E+00
        -11   -1    0    0    0    0  0.00000000000E+00  0.00000000000E+00  0.45593999997E+02  0.45594000000E+02  0.51100000000E-03 0.  1.
         11   -1    0    0    0    0 -0.00000000000E+00 -0.00000000000E+00 -0.45593999997E+02  0.45594000000E+02  0.51100000000E-03 0. -1.
    9900012    2    1    2    0    0 -0.18040547883E+02 -0.19602689600E+01  0.36384907764E+02  0.50528861601E+02  0.30000005323E+02 0.  0.
         12    1    1    2    0    0  0.18040547883E+02  0.19602689600E+01 -0.36384907764E+02  0.40659138399E+02  0.00000000000E+00 0. -1.
         11    1    3    3    0    0 -0.28630691586E+01  0.38857454654E+01 -0.23844891033E+01  0.53834906310E+01  0.51100000000E-03 0. -1.
        -11    1    3    3    0    0 -0.15396868681E+02 -0.13180175178E+01  0.37308900746E+02  0.40382605296E+02  0.51100000000E-03 0.  1.
        -12    1    3    3    0    0  0.21938995680E+00 -0.45279969076E+01  0.14604961217E+01  0.47627656744E+01  0.00000000000E+00 0.  1.
</event>
<event>
 7    1  0.3041451E-011  0.5052886E+02  0.7816164E-02  0.1300439E+00
        -11   -1    0    0    0    0  0.00000000000E+00  0.00000000000E+00  0.45593999997E+02  0.45594000000E+02  0.51100000000E-03 0.  1.
         11   -1    0    0    0    0 -0.00000000000E+00 -0.00000000000E+00 -0.45593999997E+02  0.45594000000E+02  0.51100000000E-03 0. -1.
    9900012    2    1    2    0    0 -0.10905433627E+02 -0.21533056510E+02  0.32719482850E+02  0.50528861258E+02  0.30000004280E+02 0.  0.
         12    1    1    2    0    0  0.10905433627E+02  0.21533056510E+02 -0.32719482850E+02  0.40659138742E+02  0.00000000000E+00 0. -1.
         11    1    3    3    0    0  0.51427663200E+01 -0.19891141705E+02  0.18669230747E+02  0.27760506852E+02  0.51100000000E-03 0. -1.
        -11    1    3    3    0    0 -0.15435122198E+02  0.32039033443E+00  0.10516204710E+02  0.18679834287E+02  0.51100000000E-03 0.  1.
        -12    1    3    3    0    0 -0.61307774965E+00 -0.19623051399E+01  0.35340473925E+01  0.40885201187E+01  0.00000000000E+00 0.  1.
</event>
<event>
 7    1  0.3041451E-011  0.5052887E+02  0.7816164E-02  0.1300439E+00
        -11   -1    0    0    0    0  0.00000000000E+00  0.00000000000E+00  0.45593999997E+02  0.45594000000E+02  0.51100000000E-03 0.  1.
         11   -1    0    0    0    0 -0.00000000000E+00 -0.00000000000E+00 -0.45593999997E+02  0.45594000000E+02  0.51100000000E-03 0. -1.
    9900012    2    1    2    0    0  0.33646322172E+02  0.12435921540E+02  0.19142564855E+02  0.50528869052E+02  0.30000027969E+02 0.  0.
         12    1    1    2    0    0 -0.33646322172E+02 -0.12435921540E+02 -0.19142564855E+02  0.40659130948E+02  0.00000000000E+00 0. -1.
         11    1    3    3    0    0  0.80749072198E+00 -0.56269894255E+01 -0.18915050151E+01  0.59910635737E+01  0.51100000000E-03 0. -1.
        -11    1    3    3    0    0  0.26817875965E+02  0.10095323151E+02  0.11982673250E+02  0.31059595607E+02  0.51100000000E-03 0.  1.
         12    1    3    3    0    0  0.60209554845E+01  0.79675878147E+01  0.90513966206E+01  0.13478209871E+02  0.00000000000E+00 0. -1.
</event>
<event>
 7    1  0.3041451E-011  0.5052887E+02  0.7816164E-02  0.1300439E+00
        -11   -1    0    0    0    0  0.00000000000E+00  0.00000000000E+00  0.45593999997E+02  0.45594000000E+02  0.51100000000E-03 0.  1.
         11   -1    0    0    0    0 -0.00000000000E+00 -0.00000000000E+00 -0.45593999997E+02  0.45594000000E+02  0.51100000000E-03 0. -1.
    9900012    2    1    2    0    0  0.37021692702E+02  0.14818815000E+02  0.79348717303E+01  0.50528865750E+02  0.30000017935E+02 0.  0.
         12    1    1    2    0    0 -0.37021692702E+02 -0.14818815000E+02 -0.79348717303E+01  0.40659134250E+02  0.00000000000E+00 0. -1.
         11    1    3    3    0    0 -0.37263054221E+01 -0.24280108918E+00 -0.38498769851E+01  0.53633811658E+01  0.51100000000E-03 0. -1.
        -11    1    3    3    0    0  0.27412703992E+02  0.83517749314E+01  0.83269130028E+01  0.29842016773E+02  0.51100000000E-03 0.  1.
         12    1    3    3    0    0  0.13335294132E+02  0.67098411582E+01  0.34578357126E+01  0.15323467812E+02  0.00000000000E+00 0. -1.
</event>
<event>
 7    1  0.3041451E-011  0.5052882E+02  0.7816164E-02  0.1300439E+00
        -11   -1    0    0    0    0  0.00000000000E+00  0.00000000000E+00  0.45593999997E+02  0.45594000000E+02  0.51100000000E-03 0.  1.
         11   -1    0    0    0    0 -0.00000000000E+00 -0.00000000000E+00 -0.45593999997E+02  0.45594000000E+02  0.51100000000E-03 0. -1.
    9900012    2    1    2    0    0 -0.21535023552E+02 -0.34082842576E+01  0.34319022268E+02  0.50528819851E+02  0.29999878418E+02 0.  0.
         12    1    1    2    0    0  0.21535023552E+02  0.34082842576E+01 -0.34319022268E+02  0.40659180149E+02  0.00000000000E+00 0. -1.
         11    1    3    3    0    0  0.17098552382E+01  0.29549410853E+01  0.85640528562E+01  0.92194513578E+01  0.51100000000E-03 0. -1.
        -11    1    3    3    0    0 -0.25104291374E+02 -0.47301356265E+01  0.28046318635E+02  0.37936731774E+02  0.51100000000E-03 0.  1.
        -12    1    3    3    0    0  0.18594125834E+01 -0.16330897165E+01 -0.22913492234E+01  0.33726367194E+01  0.00000000000E+00 0.  1.
</event>
<event>
 7    1  0.3041451E-011  0.5052887E+02  0.7816164E-02  0.1300439E+00
        -11   -1    0    0    0    0  0.00000000000E+00  0.00000000000E+00  0.45593999997E+02  0.45594000000E+02  0.51100000000E-03 0.  1.
         11   -1    0    0    0    0 -0.00000000000E+00 -0.00000000000E+00 -0.45593999997E+02  0.45594000000E+02  0.51100000000E-03 0. -1.
    9900012    2    1    2    0    0  0.35292959815E+01  0.28869854931E+02  0.28411973036E+02  0.50528872296E+02  0.30000037831E+02 0.  0.
         12    1    1    2    0    0 -0.35292959815E+01 -0.28869854931E+02 -0.28411973036E+02  0.40659127704E+02  0.00000000000E+00 0. -1.
         11    1    3    3    0    0  0.69651464343E+01  0.95541188007E+01 -0.10378658927E+01  0.11868934947E+02  0.51100000000E-03 0. -1.
        -11    1    3    3    0    0 -0.45375604546E+00  0.10031393251E+02  0.26703413048E+02  0.28529055606E+02  0.51100000000E-03 0.  1.
        -12    1    3    3    0    0 -0.29820944073E+01  0.92843428796E+01  0.27464258802E+01  0.10130881742E+02  0.00000000000E+00 0.  1.
</event>
<event>
 7    1  0.3041451E-011  0.5052885E+02  0.7816164E-02  0.1300439E+00
        -11   -1    0    0    0    0  0.00000000000E+00  0.00000000000E+00  0.45593999997E+02  0.45594000000E+02  0.51100000000E-03 0.  1.
         11   -1    0    0    0    0 -0.00000000000E+00 -0.00000000000E+00 -0.45593999997E+02  0.45594000000E+02  0.51100000000E-03 0. -1.
    9900012    2    1    2    0    0  0.18988546736E+02 -0.96713815745E+01  0.34627536862E+02  0.50528845584E+02  0.29999956638E+02 0.  0.
         12    1    1    2    0    0 -0.18988546736E+02  0.96713815745E+01 -0.34627536862E+02  0.40659154416E+02  0.00000000000E+00 0. -1.
         11    1    3    3    0    0  0.83407586103E+01 -0.14899245518E+01  0.27997037943E-01  0.84728338507E+01  0.51100000000E-03 0. -1.
        -11    1    3    3    0    0  0.47687629508E+01 -0.13653139348E+02  0.28540584900E+02  0.31995535639E+02  0.51100000000E-03 0.  1.
        -12    1    3    3    0    0  0.58790251748E+01  0.54716823255E+01  0.60589549233E+01  0.10060476094E+02  0.00000000000E+00 0.  1.
</event>
<event>
 7    1  0.3041451E-011  0.5052887E+02  0.7816164E-02  0.1300439E+00
        -11   -1    0    0    0    0  0.00000000000E+00  0.00000000000E+00  0.45593999997E+02  0.45594000000E+02  0.51100000000E-03 0. -1.
         11   -1    0    0    0    0 -0.00000000000E+00 -0.00000000000E+00 -0.45593999997E+02  0.45594000000E+02  0.51100000000E-03 0.  1.
    9900012    2    1    2    0    0 -0.19934845063E+02  0.14521364360E+02 -0.32324862552E+02  0.50528870526E+02  0.30000032451E+02 0.  0.
         12    1    1    2    0    0  0.19934845063E+02 -0.14521364360E+02  0.32324862552E+02  0.40659129474E+02  0.00000000000E+00 0. -1.
         11    1    3    3    0    0  0.24264926592E+01  0.17264648343E+01 -0.82222686051E+01  0.87449556160E+01  0.51100000000E-03 0. -1.
        -11    1    3    3    0    0 -0.20761167204E+02  0.17822966303E+02 -0.24167624937E+02  0.36506962170E+02  0.51100000000E-03 0.  1.
         12    1    3    3    0    0 -0.16001705181E+01 -0.50280667765E+01  0.65030989860E-01  0.52769527405E+01  0.00000000000E+00 0. -1.
</event>
<event>
 7    1  0.3041451E-011  0.5052885E+02  0.7816164E-02  0.1300439E+00
        -11   -1    0    0    0    0  0.00000000000E+00  0.00000000000E+00  0.45593999997E+02  0.45594000000E+02  0.51100000000E-03 0. -1.
         11   -1    0    0    0    0 -0.00000000000E+00 -0.00000000000E+00 -0.45593999997E+02  0.45594000000E+02  0.51100000000E-03 0.  1.
    9900012    2    1    2    0    0 -0.10540340805E+02 -0.21153141385E+02 -0.33084926639E+02  0.50528849179E+02  0.29999967565E+02 0.  0.
         12    1    1    2    0    0  0.10540340805E+02  0.21153141385E+02  0.33084926639E+02  0.40659150821E+02  0.00000000000E+00 0. -1.
         11    1    3    3    0    0  0.51462943969E+01  0.35263223627E+00  0.13879145365E+01  0.53418164079E+01  0.51100000000E-03 0. -1.
        -11    1    3    3    0    0 -0.15451505115E+02 -0.14025766531E+02 -0.20054743546E+02  0.28942423466E+02  0.51100000000E-03 0.  1.
         12    1    3    3    0    0 -0.23513008737E+00 -0.74800070906E+01 -0.14418097630E+02  0.16244609305E+02  0.00000000000E+00 0. -1.
</event>
<event>
 7    1  0.3041451E-011  0.5052887E+02  0.7816164E-02  0.1300439E+00
        -11   -1    0    0    0    0  0.00000000000E+00  0.00000000000E+00  0.45593999997E+02  0.45594000000E+02  0.51100000000E-03 0.  1.
         11   -1    0    0    0    0 -0.00000000000E+00 -0.00000000000E+00 -0.45593999997E+02  0.45594000000E+02  0.51100000000E-03 0. -1.
    9900012    2    1    2    0    0 -0.16804696000E+01 -0.36906748232E+02  0.16977424401E+02  0.50528868400E+02  0.30000025990E+02 0.  0.
         12    1    1    2    0    0  0.16804696000E+01  0.36906748232E+02 -0.16977424401E+02  0.40659131600E+02  0.00000000000E+00 0. -1.
         11    1    3    3    0    0  0.28681770783E+01 -0.13856876107E+02 -0.62468328447E+01  0.15468108353E+02  0.51100000000E-03 0. -1.
        -11    1    3    3    0    0 -0.42260697911E+01 -0.21286188228E+02  0.14372884966E+02  0.26029623464E+02  0.51100000000E-03 0.  1.
        -12    1    3    3    0    0 -0.32257688731E+00 -0.17636838972E+01  0.88513722801E+01  0.90311365829E+01  0.00000000000E+00 0.  1.
</event>
<event>
 7    1  0.3041451E-011  0.5052886E+02  0.7816164E-02  0.1300439E+00
        -11   -1    0    0    0    0  0.00000000000E+00  0.00000000000E+00  0.45593999997E+02  0.45594000000E+02  0.51100000000E-03 0.  1.
         11   -1    0    0    0    0 -0.00000000000E+00 -0.00000000000E+00 -0.45593999997E+02  0.45594000000E+02  0.51100000000E-03 0. -1.
    9900012    2    1    2    0    0  0.30515525892E+02 -0.24876485705E+02  0.10155238815E+02  0.50528859122E+02  0.29999997788E+02 0.  0.
         12    1    1    2    0    0 -0.30515525892E+02  0.24876485705E+02 -0.10155238815E+02  0.40659140878E+02  0.00000000000E+00 0. -1.
         11    1    3    3    0    0  0.23200123010E+02 -0.59564728596E+01 -0.35772028617E+01  0.24218209207E+02  0.51100000000E-03 0. -1.
        -11    1    3    3    0    0  0.37530353803E+01 -0.70081248096E+00  0.16392010530E+01  0.41549239527E+01  0.51100000000E-03 0.  1.
         12    1    3    3    0    0  0.35623675018E+01 -0.18219200364E+02  0.12093240624E+02  0.22155725962E+02  0.00000000000E+00 0. -1.
</event>
<event>
 7    1  0.3041451E-011  0.5052887E+02  0.7816164E-02  0.1300439E+00
        -11   -1    0    0    0    0  0.00000000000E+00  0.00000000000E+00  0.45593999997E+02  0.45594000000E+02  0.51100000000E-03 0.  1.
         11   -1    0    0    0    0 -0.00000000000E+00 -0.00000000000E+00 -0.45593999997E+02  0.45594000000E+02  0.51100000000E-03 0. -1.
    9900012    2    1    2    0    0 -0.27234960821E+02  0.15894730740E+02  0.25666702669E+02  0.50528865945E+02  0.30000018525E+02 0.  0.
         12    1    1    2    0    0  0.27234960821E+02 -0.15894730740E+02 -0.25666702669E+02  0.40659134055E+02  0.00000000000E+00 0. -1.
         11    1    3    3    0    0 -0.13763660708E+02 -0.14377187857E+01  0.32077962622E+01  0.14205468965E+02  0.51100000000E-03 0. -1.
        -11    1    3    3    0    0 -0.13269268939E+02  0.16842782430E+02  0.25454178318E+02  0.33281646779E+02  0.51100000000E-03 0.  1.
         12    1    3    3    0    0 -0.20203117403E+00  0.48966709570E+00 -0.29952719115E+01  0.30417502008E+01  0.00000000000E+00 0. -1.
</event>
<event>
 7    1  0.3041451E-011  0.5052886E+02  0.7816164E-02  0.1300439E+00
        -11   -1    0    0    0    0  0.00000000000E+00  0.00000000000E+00  0.45593999997E+02  0.45594000000E+02  0.51100000000E-03 0. -1.
         11   -1    0    0    0    0 -0.00000000000E+00 -0.00000000000E+00 -0.45593999997E+02  0.45594000000E+02  0.51100000000E-03 0.  1.
    9900012    2    1    2    0    0  0.20834211107E+02 -0.14298887433E+02 -0.31853464848E+02  0.50528858874E+02  0.29999997033E+02 0.  0.
         12    1    1    2    0    0 -0.20834211107E+02  0.14298887433E+02  0.31853464848E+02  0.40659141126E+02  0.00000000000E+00 0. -1.
         11    1    3    3    0    0  0.25393579276E+01  0.11005141280E+01 -0.38663271550E+01  0.47547824304E+01  0.51100000000E-03 0. -1.
        -11    1    3    3    0    0 -0.83259704100E+00 -0.10460758864E+02 -0.23177271144E+02  0.25442220654E+02  0.51100000000E-03 0.  1.
        -12    1    3    3    0    0  0.19127450220E+02 -0.49386426970E+01 -0.48098665494E+01  0.20331855790E+02  0.00000000000E+00 0.  1.
</event>
<event>
 7    1  0.3041451E-011  0.5052886E+02  0.7816164E-02  0.1300439E+00
        -11   -1    0    0    0    0  0.00000000000E+00  0.00000000000E+00  0.45593999997E+02  0.45594000000E+02  0.51100000000E-03 0. -1.
         11   -1    0    0    0    0 -0.00000000000E+00 -0.00000000000E+00 -0.45593999997E+02  0.45594000000E+02  0.51100000000E-03 0.  1.
    9900012    2    1    2    0    0 -0.35650517841E+02 -0.18774881766E+02  0.54506942449E+01  0.50528859879E+02  0.30000000087E+02 0.  0.
         12    1    1    2    0    0  0.35650517841E+02  0.18774881766E+02 -0.54506942449E+01  0.40659140121E+02  0.00000000000E+00 0. -1.
         11    1    3    3    0    0  0.74431414392E+00 -0.10526365928E+02  0.58596346442E+01  0.12070364601E+02  0.51100000000E-03 0. -1.
        -11    1    3    3    0    0 -0.30050716601E+02 -0.63505530806E+01 -0.39196173484E+01  0.30963502598E+02  0.51100000000E-03 0.  1.
        -12    1    3    3    0    0 -0.63441153832E+01 -0.18979627582E+01  0.35106769490E+01  0.74949926796E+01  0.00000000000E+00 0.  1.
</event>
<event>
 7    1  0.3041451E-011  0.5052886E+02  0.7816164E-02  0.1300439E+00
        -11   -1    0    0    0    0  0.00000000000E+00  0.00000000000E+00  0.45593999997E+02  0.45594000000E+02  0.51100000000E-03 0.  1.
         11   -1    0    0    0    0 -0.00000000000E+00 -0.00000000000E+00 -0.45593999997E+02  0.45594000000E+02  0.51100000000E-03 0. -1.
    9900012    2    1    2    0    0 -0.38921855626E+02 -0.54131054116E+00  0.11745708218E+02  0.50528861740E+02  0.30000005746E+02 0.  0.
         12    1    1    2    0    0  0.38921855626E+02  0.54131054116E+00 -0.11745708218E+02  0.40659138260E+02  0.00000000000E+00 0. -1.
         11    1    3    3    0    0 -0.23425769331E+02 -0.76871127353E+01 -0.54287277563E+01  0.25245384851E+02  0.51100000000E-03 0. -1.
        -11    1    3    3    0    0 -0.99636615414E+01  0.70579892996E+01  0.80915793165E+01  0.14647983491E+02  0.51100000000E-03 0.  1.
         12    1    3    3    0    0 -0.55324247541E+01  0.87812894590E-01  0.90828566577E+01  0.10635493398E+02  0.00000000000E+00 0. -1.
</event>
<event>
 7    1  0.3041451E-011  0.5052883E+02  0.7816164E-02  0.1300439E+00
        -11   -1    0    0    0    0  0.00000000000E+00  0.00000000000E+00  0.45593999997E+02  0.45594000000E+02  0.51100000000E-03 0.  1.
         11   -1    0    0    0    0 -0.00000000000E+00 -0.00000000000E+00 -0.45593999997E+02  0.45594000000E+02  0.51100000000E-03 0. -1.
    9900012    2    1    2    0    0 -0.34013416018E+01 -0.36328928070E+02  0.17938995784E+02  0.50528834869E+02  0.29999924067E+02 0.  0.
         12    1    1    2    0    0  0.34013416018E+01  0.36328928070E+02 -0.17938995784E+02  0.40659165131E+02  0.00000000000E+00 0. -1.
         11    1    3    3    0    0 -0.10893822170E+02 -0.13807640515E+02  0.94439219013E+01  0.19962814411E+02  0.51100000000E-03 0.  1.
        -11    1    3    3    0    0  0.11409506668E+02 -0.97003868989E+01  0.55694175322E+00  0.14986144694E+02  0.51100000000E-03 0. -1.
        -12    1    3    3    0    0 -0.39170261005E+01 -0.12820900656E+02  0.79381321297E+01  0.15579875764E+02  0.00000000000E+00 0.  1.
</event>
<event>
 7    1  0.3041451E-011  0.5052886E+02  0.7816164E-02  0.1300439E+00
        -11   -1    0    0    0    0  0.00000000000E+00  0.00000000000E+00  0.45593999997E+02  0.45594000000E+02  0.51100000000E-03 0.  1.
         11   -1    0    0    0    0 -0.00000000000E+00 -0.00000000000E+00 -0.45593999997E+02  0.45594000000E+02  0.51100000000E-03 0. -1.
    9900012    2    1    2    0    0 -0.26580374520E+01 -0.26948459026E+02  0.30329535313E+02  0.50528864258E+02  0.30000013398E+02 0.  0.
         12    1    1    2    0    0  0.26580374520E+01  0.26948459026E+02 -0.30329535313E+02  0.40659135742E+02  0.00000000000E+00 0. -1.
         11    1    3    3    0    0  0.75728742164E+00 -0.79939191305E+00 -0.35463237319E+01  0.37133440377E+01  0.51100000000E-03 0. -1.
        -11    1    3    3    0    0 -0.89046879725E+01 -0.16850758461E+02  0.29593292587E+02  0.35199495664E+02  0.51100000000E-03 0.  1.
         12    1    3    3    0    0  0.54893630989E+01 -0.92983086523E+01  0.42825664578E+01  0.11616024556E+02  0.00000000000E+00 0. -1.
</event>
<event>
 7    1  0.3041451E-011  0.5052880E+02  0.7816164E-02  0.1300439E+00
        -11   -1    0    0    0    0  0.00000000000E+00  0.00000000000E+00  0.45593999997E+02  0.45594000000E+02  0.51100000000E-03 0. -1.
         11   -1    0    0    0    0 -0.00000000000E+00 -0.00000000000E+00 -0.45593999997E+02  0.45594000000E+02  0.51100000000E-03 0.  1.
    9900012    2    1    2    0    0 -0.53263799293E+01 -0.10461147986E+02 -0.38927682619E+02  0.50528801602E+02  0.29999822949E+02 0.  0.
         12    1    1    2    0    0  0.53263799293E+01  0.10461147986E+02  0.38927682619E+02  0.40659198398E+02  0.00000000000E+00 0. -1.
         11    1    3    3    0    0  0.26082943234E+01  0.47310967185E+01  0.20286618622E+01  0.57707837119E+01  0.51100000000E-03 0. -1.
        -11    1    3    3    0    0 -0.36288809470E+01 -0.11412542799E+02 -0.31522411280E+02  0.33720577149E+02  0.51100000000E-03 0.  1.
         12    1    3    3    0    0 -0.43057933057E+01 -0.37797019053E+01 -0.94339332004E+01  0.11037440741E+02  0.00000000000E+00 0. -1.
</event>
<event>
 7    1  0.3041451E-011  0.5052887E+02  0.7816164E-02  0.1300439E+00
        -11   -1    0    0    0    0  0.00000000000E+00  0.00000000000E+00  0.45593999997E+02  0.45594000000E+02  0.51100000000E-03 0. -1.
         11   -1    0    0    0    0 -0.00000000000E+00 -0.00000000000E+00 -0.45593999997E+02  0.45594000000E+02  0.51100000000E-03 0.  1.
    9900012    2    1    2    0    0  0.50857420851E+01 -0.38576908225E+02 -0.11795021521E+02  0.50528866297E+02  0.30000019597E+02 0.  0.
         12    1    1    2    0    0 -0.50857420851E+01  0.38576908225E+02  0.11795021521E+02  0.40659133703E+02  0.00000000000E+00 0. -1.
         11    1    3    3    0    0  0.14409799012E+02 -0.18832841494E+02 -0.13165998885E+01  0.23749771827E+02  0.51100000000E-03 0. -1.
        -11    1    3    3    0    0 -0.34876694384E+01 -0.28355002517E+01 -0.73567513919E+01  0.86212348937E+01  0.51100000000E-03 0.  1.
         12    1    3    3    0    0 -0.58363874887E+01 -0.16908566480E+02 -0.31216702407E+01  0.18157859577E+02  0.00000000000E+00 0. -1.
</event>
<event>
 7    1  0.3041451E-011  0.5052886E+02  0.7816164E-02  0.1300439E+00
        -11   -1    0    0    0    0  0.00000000000E+00  0.00000000000E+00  0.45593999997E+02  0.45594000000E+02  0.51100000000E-03 0.  1.
         11   -1    0    0    0    0 -0.00000000000E+00 -0.00000000000E+00 -0.45593999997E+02  0.45594000000E+02  0.51100000000E-03 0. -1.
    9900012    2    1    2    0    0  0.41574665477E+01 -0.27893837405E+02  0.29288483880E+02  0.50528856118E+02  0.29999988655E+02 0.  0.
         12    1    1    2    0    0 -0.41574665477E+01  0.27893837405E+02 -0.29288483880E+02  0.40659143882E+02  0.00000000000E+00 0. -1.
         11    1    3    3    0    0  0.11769134985E+02 -0.54002375566E+01  0.15022412548E+02  0.19833002369E+02  0.51100000000E-03 0. -1.
        -11    1    3    3    0    0 -0.40414491693E+01 -0.80533507275E+01  0.12931381043E+02  0.15761040108E+02  0.51100000000E-03 0.  1.
         12    1    3    3    0    0 -0.35702192681E+01 -0.14440249121E+02  0.13346902883E+01  0.14934813640E+02  0.00000000000E+00 0. -1.
</event>
<event>
 7    1  0.3041451E-011  0.5052886E+02  0.7816164E-02  0.1300439E+00
        -11   -1    0    0    0    0  0.00000000000E+00  0.00000000000E+00  0.45593999997E+02  0.45594000000E+02  0.51100000000E-03 0.  1.
         11   -1    0    0    0    0 -0.00000000000E+00 -0.00000000000E+00 -0.45593999997E+02  0.45594000000E+02  0.51100000000E-03 0. -1.
    9900012    2    1    2    0    0 -0.37956642601E+02 -0.86002460172E+01  0.11768378107E+02  0.50528859916E+02  0.30000000202E+02 0.  0.
         12    1    1    2    0    0  0.37956642601E+02  0.86002460172E+01 -0.11768378107E+02  0.40659140084E+02  0.00000000000E+00 0. -1.
         11    1    3    3    0    0  0.64582217335E+00 -0.88346995916E+01  0.71655664061E+01  0.11393609847E+02  0.51100000000E-03 0. -1.
        -11    1    3    3    0    0 -0.33835238943E+02 -0.11425016825E+01  0.33667803009E+01  0.34021521340E+02  0.51100000000E-03 0.  1.
         12    1    3    3    0    0 -0.47672258311E+01  0.13769552569E+01  0.12360313997E+01  0.51137287301E+01  0.00000000000E+00 0. -1.
</event>
<event>
 7    1  0.3041451E-011  0.5052886E+02  0.7816164E-02  0.1300439E+00
        -11   -1    0    0    0    0  0.00000000000E+00  0.00000000000E+00  0.45593999997E+02  0.45594000000E+02  0.51100000000E-03 0.  1.
         11   -1    0    0    0    0 -0.00000000000E+00 -0.00000000000E+00 -0.45593999997E+02  0.45594000000E+02  0.51100000000E-03 0. -1.
    9900012    2    1    2    0    0  0.37219335391E+02  0.15306485921E+02 -0.57963768623E+01  0.50528862983E+02  0.30000009523E+02 0.  0.
         12    1    1    2    0    0 -0.37219335391E+02 -0.15306485921E+02  0.57963768623E+01  0.40659137017E+02  0.00000000000E+00 0. -1.
         11    1    3    3    0    0  0.21802703336E+02  0.90787744574E+01 -0.14936793259E+02  0.27944405729E+02  0.51100000000E-03 0. -1.
        -11    1    3    3    0    0  0.16478470422E+02  0.78851456454E+01  0.67200063148E+01  0.19464685829E+02  0.51100000000E-03 0.  1.
        -12    1    3    3    0    0 -0.10618383662E+01 -0.16574341818E+01  0.24204100819E+01  0.31197714255E+01  0.00000000000E+00 0.  1.
</event>
<event>
 7    1  0.3041451E-011  0.5052885E+02  0.7816164E-02  0.1300439E+00
        -11   -1    0    0    0    0  0.00000000000E+00  0.00000000000E+00  0.45593999997E+02  0.45594000000E+02  0.51100000000E-03 0. -1.
         11   -1    0    0    0    0 -0.00000000000E+00 -0.00000000000E+00 -0.45593999997E+02  0.45594000000E+02  0.51100000000E-03 0.  1.
    9900012    2    1    2    0    0 -0.56355988244E+01  0.39536335156E+02 -0.76344678441E+01  0.50528845177E+02  0.29999955401E+02 0.  0.
         12    1    1    2    0    0  0.56355988244E+01 -0.39536335156E+02  0.76344678441E+01  0.40659154823E+02  0.00000000000E+00 0. -1.
         11    1    3    3    0    0  0.65131835863E+01  0.48526618806E+00 -0.63807528950E+01  0.91307749655E+01  0.51100000000E-03 0. -1.
        -11    1    3    3    0    0 -0.95610556867E+01  0.27989606925E+02  0.18074763941E+01  0.29632732794E+02  0.51100000000E-03 0.  1.
         12    1    3    3    0    0 -0.25877267241E+01  0.11061462043E+02 -0.30611913431E+01  0.11765337418E+02  0.00000000000E+00 0. -1.
</event>
<event>
 7    1  0.3041451E-011  0.5052886E+02  0.7816164E-02  0.1300439E+00
        -11   -1    0    0    0    0  0.00000000000E+00  0.00000000000E+00  0.45593999997E+02  0.45594000000E+02  0.51100000000E-03 0.  1.
         11   -1    0    0    0    0 -0.00000000000E+00 -0.00000000000E+00 -0.45593999997E+02  0.45594000000E+02  0.51100000000E-03 0. -1.
    9900012    2    1    2    0    0  0.14786024425E+02 -0.14171816870E+02  0.35124052804E+02  0.50528855923E+02  0.29999988062E+02 0.  0.
         12    1    1    2    0    0 -0.14786024425E+02  0.14171816870E+02 -0.35124052804E+02  0.40659144077E+02  0.00000000000E+00 0. -1.
         11    1    3    3    0    0  0.84378480418E+01  0.47243487155E+01  0.99054812373E+01  0.13843240559E+02  0.51100000000E-03 0. -1.
        -11    1    3    3    0    0 -0.52234728954E+01 -0.11445786387E+02  0.14794676239E+02  0.19420945919E+02  0.51100000000E-03 0.  1.
        -12    1    3    3    0    0  0.11571649279E+02 -0.74503791982E+01  0.10423895328E+02  0.17264669445E+02  0.00000000000E+00 0.  1.
</event>
<event>
 7    1  0.3041451E-011  0.5052886E+02  0.7816164E-02  0.1300439E+00
        -11   -1    0    0    0    0  0.00000000000E+00  0.00000000000E+00  0.45593999997E+02  0.45594000000E+02  0.51100000000E-03 0.  1.
         11   -1    0    0    0    0 -0.00000000000E+00 -0.00000000000E+00 -0.45593999997E+02  0.45594000000E+02  0.51100000000E-03 0. -1.
    9900012    2    1    2    0    0 -0.36593515504E+02 -0.90469383503E+01  0.15239199875E+02  0.50528859781E+02  0.29999999791E+02 0.  0.
         12    1    1    2    0    0  0.36593515504E+02  0.90469383503E+01 -0.15239199875E+02  0.40659140219E+02  0.00000000000E+00 0. -1.
         11    1    3    3    0    0 -0.25710694331E+02  0.51630535375E+01 -0.10381022657E+01  0.26244515263E+02  0.51100000000E-03 0. -1.
        -11    1    3    3    0    0 -0.66667736097E+01 -0.89273177027E+01  0.11466498894E+02  0.15988229073E+02  0.51100000000E-03 0.  1.
         12    1    3    3    0    0 -0.42160475640E+01 -0.52826741852E+01  0.48108032471E+01  0.82961154459E+01  0.00000000000E+00 0. -1.
</event>
<event>
 7    1  0.3041451E-011  0.5052887E+02  0.7816164E-02  0.1300439E+00
        -11   -1    0    0    0    0  0.00000000000E+00  0.00000000000E+00  0.45593999997E+02  0.45594000000E+02  0.51100000000E-03 0.  1.
         11   -1    0    0    0    0 -0.00000000000E+00 -0.00000000000E+00 -0.45593999997E+02  0.45594000000E+02  0.51100000000E-03 0. -1.
    9900012    2    1    2    0    0  0.35479569807E+02  0.82329200860E+01 -0.18071638506E+02  0.50528868614E+02  0.30000026638E+02 0.  0.
         12    1    1    2    0    0 -0.35479569807E+02 -0.82329200860E+01  0.18071638506E+02  0.40659131386E+02  0.00000000000E+00 0. -1.
         11    1    3    3    0    0  0.24775204387E+02  0.16636327971E+02 -0.29215704850E+01  0.29985225281E+02  0.51100000000E-03 0. -1.
        -11    1    3    3    0    0  0.33388322652E+01 -0.39886202274E+01 -0.68463326020E+01  0.85982069394E+01  0.51100000000E-03 0.  1.
         12    1    3    3    0    0  0.73655331546E+01 -0.44147876579E+01 -0.83037354192E+01  0.11945436393E+02  0.00000000000E+00 0. -1.
</event>
<event>
 7    1  0.3041451E-011  0.5052886E+02  0.7816164E-02  0.1300439E+00
        -11   -1    0    0    0    0  0.00000000000E+00  0.00000000000E+00  0.45593999997E+02  0.45594000000E+02  0.51100000000E-03 0. -1.
         11   -1    0    0    0    0 -0.00000000000E+00 -0.00000000000E+00 -0.45593999997E+02  0.45594000000E+02  0.51100000000E-03 0.  1.
    9900012    2    1    2    0    0  0.32122244912E+02 -0.15165707256E+01 -0.24880259055E+02  0.50528857171E+02  0.29999991858E+02 0.  0.
         12    1    1    2    0    0 -0.32122244912E+02  0.15165707256E+01  0.24880259055E+02  0.40659142829E+02  0.00000000000E+00 0. -1.
         11    1    3    3    0    0 -0.36972831297E+00 -0.73970937380E+01 -0.19432507793E+01  0.76570176078E+01  0.51100000000E-03 0. -1.
        -11    1    3    3    0    0  0.32774979275E+02  0.80559571073E+01 -0.20088663539E+02  0.39276610271E+02  0.51100000000E-03 0.  1.
        -12    1    3    3    0    0 -0.28300604998E+00 -0.21754340949E+01 -0.28483447365E+01  0.35952292922E+01  0.00000000000E+00 0.  1.
</event>
<event>
 7    1  0.3041451E-011  0.5052886E+02  0.7816164E-02  0.1300439E+00
        -11   -1    0    0    0    0  0.00000000000E+00  0.00000000000E+00  0.45593999997E+02  0.45594000000E+02  0.51100000000E-03 0.  1.
         11   -1    0    0    0    0 -0.00000000000E+00 -0.00000000000E+00 -0.45593999997E+02  0.45594000000E+02  0.51100000000E-03 0. -1.
    9900012    2    1    2    0    0  0.69660929264E+01 -0.28125759497E+02  0.28523338707E+02  0.50528860204E+02  0.30000001075E+02 0.  0.
         12    1    1    2    0    0 -0.69660929264E+01  0.28125759497E+02 -0.28523338707E+02  0.40659139796E+02  0.00000000000E+00 0. -1.
         11    1    3    3    0    0 -0.17894925213E+01 -0.16067441574E+01 -0.10510448175E+01  0.26246153510E+01  0.51100000000E-03 0. -1.
        -11    1    3    3    0    0  0.34929668412E+01 -0.24181675641E+02  0.33108701980E+02  0.41147787319E+02  0.51100000000E-03 0.  1.
        -12    1    3    3    0    0  0.52626186065E+01 -0.23373396987E+01 -0.35343184551E+01  0.67564575339E+01  0.00000000000E+00 0.  1.
</event>
<event>
 7    1  0.3041451E-011  0.5052887E+02  0.7816164E-02  0.1300439E+00
        -11   -1    0    0    0    0  0.00000000000E+00  0.00000000000E+00  0.45593999997E+02  0.45594000000E+02  0.51100000000E-03 0. -1.
         11   -1    0    0    0    0 -0.00000000000E+00 -0.00000000000E+00 -0.45593999997E+02  0.45594000000E+02  0.51100000000E-03 0.  1.
    9900012    2    1    2    0    0  0.38287995408E+02 -0.69204745241E+00  0.13664391878E+02  0.50528866618E+02  0.30000020571E+02 0.  0.
         12    1    1    2    0    0 -0.38287995408E+02  0.69204745241E+00 -0.13664391878E+02  0.40659133382E+02  0.00000000000E+00 0. -1.
         11    1    3    3    0    0  0.98525632663E+01 -0.37144326297E+01  0.17297439590E+02  0.20250220476E+02  0.51100000000E-03 0. -1.
        -11    1    3    3    0    0  0.20381274309E+02 -0.19607347365E+01 -0.37019540118E+01  0.20807337334E+02  0.51100000000E-03 0.  1.
        -12    1    3    3    0    0  0.80541578318E+01  0.49831199138E+01  0.68906299698E-01  0.94713088078E+01  0.00000000000E+00 0.  1.
</event>
<event>
 7    1  0.3041451E-011  0.5052895E+02  0.7816164E-02  0.1300438E+00
        -11   -1    0    0    0    0  0.00000000000E+00  0.00000000000E+00  0.45593999997E+02  0.45594000000E+02  0.51100000000E-03 0.  1.
         11   -1    0    0    0    0 -0.00000000000E+00 -0.00000000000E+00 -0.45593999997E+02  0.45594000000E+02  0.51100000000E-03 0. -1.
    9900012    2    1    2    0    0  0.34195836281E+02  0.72851798374E+01  0.20754019056E+02  0.50528949701E+02  0.30000273110E+02 0.  0.
         12    1    1    2    0    0 -0.34195836281E+02 -0.72851798374E+01 -0.20754019056E+02  0.40659050299E+02  0.00000000000E+00 0. -1.
         11    1    3    3    0    0  0.82212469578E+01 -0.53651376650E+01  0.14602997994E+02  0.17596055080E+02  0.51100000000E-03 0. -1.
        -11    1    3    3    0    0  0.60314765398E+01  0.10173778013E+02 -0.28635635538E+00  0.11830742518E+02  0.51100000000E-03 0.  1.
         12    1    3    3    0    0  0.19943112784E+02  0.24765394892E+01  0.64373774177E+01  0.21102152103E+02  0.00000000000E+00 0. -1.
</event>
<event>
 7    1  0.3041451E-011  0.5052886E+02  0.7816164E-02  0.1300439E+00
        -11   -1    0    0    0    0  0.00000000000E+00  0.00000000000E+00  0.45593999997E+02  0.45594000000E+02  0.51100000000E-03 0.  1.
         11   -1    0    0    0    0 -0.00000000000E+00 -0.00000000000E+00 -0.45593999997E+02  0.45594000000E+02  0.51100000000E-03 0. -1.
    9900012    2    1    2    0    0 -0.27745407676E+02 -0.29281730767E+02 -0.50929666950E+01  0.50528859409E+02  0.29999998659E+02 0.  0.
         12    1    1    2    0    0  0.27745407676E+02  0.29281730767E+02  0.50929666950E+01  0.40659140591E+02  0.00000000000E+00 0. -1.
         11    1    3    3    0    0 -0.17771219673E+02 -0.27536371123E+02 -0.23453628646E+01  0.32856790934E+02  0.51100000000E-03 0. -1.
        -11    1    3    3    0    0 -0.11416354857E+02 -0.34759709609E+01  0.22919783407E+01  0.12151900976E+02  0.51100000000E-03 0.  1.
         12    1    3    3    0    0  0.14421668532E+01  0.17306113165E+01 -0.50395821712E+01  0.55201674994E+01  0.00000000000E+00 0. -1.
</event>
<event>
 7    1  0.3041451E-011  0.5052889E+02  0.7816164E-02  0.1300439E+00
        -11   -1    0    0    0    0  0.00000000000E+00  0.00000000000E+00  0.45593999997E+02  0.45594000000E+02  0.51100000000E-03 0.  1.
         11   -1    0    0    0    0 -0.00000000000E+00 -0.00000000000E+00 -0.45593999997E+02  0.45594000000E+02  0.51100000000E-03 0. -1.
    9900012    2    1    2    0    0 -0.37975961733E+02 -0.31798064383E+01  0.14173167210E+02  0.50528886540E+02  0.30000081128E+02 0.  0.
         12    1    1    2    0    0  0.37975961733E+02  0.31798064383E+01 -0.14173167210E+02  0.40659113460E+02  0.00000000000E+00 0. -1.
         11    1    3    3    0    0 -0.35083896089E+01  0.56166353185E+01 -0.39881637911E+01  0.77305136074E+01  0.51100000000E-03 0. -1.
        -11    1    3    3    0    0 -0.32512785227E+02 -0.45005830260E+01  0.11804467658E+02  0.34880967701E+02  0.51100000000E-03 0.  1.
        -12    1    3    3    0    0 -0.19547868976E+01 -0.42958587309E+01  0.63568633430E+01  0.79174052323E+01  0.00000000000E+00 0.  1.
</event>
<event>
 7    1  0.3041451E-011  0.5052892E+02  0.7816164E-02  0.1300439E+00
        -11   -1    0    0    0    0  0.00000000000E+00  0.00000000000E+00  0.45593999997E+02  0.45594000000E+02  0.51100000000E-03 0.  1.
         11   -1    0    0    0    0 -0.00000000000E+00 -0.00000000000E+00 -0.45593999997E+02  0.45594000000E+02  0.51100000000E-03 0. -1.
    9900012    2    1    2    0    0 -0.22515611607E+02 -0.29226837083E+02  0.17088011674E+02  0.50528918420E+02  0.30000178030E+02 0.  0.
         12    1    1    2    0    0  0.22515611607E+02  0.29226837083E+02 -0.17088011674E+02  0.40659081580E+02  0.00000000000E+00 0. -1.
         11    1    3    3    0    0 -0.77089716447E+00 -0.17219455678E+02  0.17559309486E+02  0.24605553970E+02  0.51100000000E-03 0. -1.
        -11    1    3    3    0    0 -0.15128956757E+02 -0.67137287839E+01  0.29008922884E+01  0.16804007351E+02  0.51100000000E-03 0.  1.
         12    1    3    3    0    0 -0.66157576863E+01 -0.52936526212E+01 -0.33721901002E+01  0.91193570996E+01  0.00000000000E+00 0. -1.
</event>
<event>
 7    1  0.3041451E-011  0.5052885E+02  0.7816164E-02  0.1300439E+00
        -11   -1    0    0    0    0  0.00000000000E+00  0.00000000000E+00  0.45593999997E+02  0.45594000000E+02  0.51100000000E-03 0.  1.
         11   -1    0    0    0    0 -0.00000000000E+00 -0.00000000000E+00 -0.45593999997E+02  0.45594000000E+02  0.51100000000E-03 0. -1.
    9900012    2    1    2    0    0  0.16135559680E+01 -0.30949132474E+01  0.40509061551E+02  0.50528854428E+02  0.29999983520E+02 0.  0.
         12    1    1    2    0    0 -0.16135559680E+01  0.30949132474E+01 -0.40509061551E+02  0.40659145572E+02  0.00000000000E+00 0. -1.
         11    1    3    3    0    0 -0.22641985010E+01 -0.56625196367E+01 -0.61849639321E+00  0.61297032178E+01  0.51100000000E-03 0. -1.
        -11    1    3    3    0    0  0.10423643951E+01 -0.61949050966E+01  0.25474848679E+02  0.26237974162E+02  0.51100000000E-03 0.  1.
         12    1    3    3    0    0  0.28353900739E+01  0.87625114859E+01  0.15652709266E+02  0.18161177048E+02  0.00000000000E+00 0. -1.
</event>
<event>
 7    1  0.3041451E-011  0.5052886E+02  0.7816164E-02  0.1300439E+00
        -11   -1    0    0    0    0  0.00000000000E+00  0.00000000000E+00  0.45593999997E+02  0.45594000000E+02  0.51100000000E-03 0. -1.
         11   -1    0    0    0    0 -0.00000000000E+00 -0.00000000000E+00 -0.45593999997E+02  0.45594000000E+02  0.51100000000E-03 0.  1.
    9900012    2    1    2    0    0 -0.12843373673E+01 -0.40566796412E+02  0.24189997134E+01  0.50528855232E+02  0.29999985964E+02 0.  0.
         12    1    1    2    0    0  0.12843373673E+01  0.40566796412E+02 -0.24189997134E+01  0.40659144768E+02  0.00000000000E+00 0. -1.
         11    1    3    3    0    0  0.44713020950E+01 -0.66724780034E+01  0.56703258066E+01  0.98319428469E+01  0.51100000000E-03 0.  1.
        -11    1    3    3    0    0 -0.16127589954E+01 -0.13232899506E+02 -0.11946722980E+02  0.17900693035E+02  0.51100000000E-03 0. -1.
         12    1    3    3    0    0 -0.41428804669E+01 -0.20661418903E+02  0.86953968866E+01  0.22796219351E+02  0.00000000000E+00 0. -1.
</event>
<event>
 7    1  0.3041451E-011  0.5052884E+02  0.7816164E-02  0.1300439E+00
        -11   -1    0    0    0    0  0.00000000000E+00  0.00000000000E+00  0.45593999997E+02  0.45594000000E+02  0.51100000000E-03 0.  1.
         11   -1    0    0    0    0 -0.00000000000E+00 -0.00000000000E+00 -0.45593999997E+02  0.45594000000E+02  0.51100000000E-03 0. -1.
    9900012    2    1    2    0    0 -0.15452147316E+02 -0.30776680401E+02  0.21614672568E+02  0.50528843794E+02  0.29999951195E+02 0.  0.
         12    1    1    2    0    0  0.15452147316E+02  0.30776680401E+02 -0.21614672568E+02  0.40659156206E+02  0.00000000000E+00 0. -1.
         11    1    3    3    0    0 -0.86620993239E+00 -0.11681011163E+01 -0.12411755305E+01  0.19118830569E+01  0.51100000000E-03 0. -1.
        -11    1    3    3    0    0 -0.14532156592E+02 -0.30437038373E+01  0.14539075211E+02  0.20780577868E+02  0.51100000000E-03 0.  1.
        -12    1    3    3    0    0 -0.53780790744E-01 -0.26564875448E+02  0.83167728874E+01  0.27836382868E+02  0.00000000000E+00 0.  1.
</event>
<event>
 7    1  0.3041451E-011  0.5052885E+02  0.7816164E-02  0.1300439E+00
        -11   -1    0    0    0    0  0.00000000000E+00  0.00000000000E+00  0.45593999997E+02  0.45594000000E+02  0.51100000000E-03 0. -1.
         11   -1    0    0    0    0 -0.00000000000E+00 -0.00000000000E+00 -0.45593999997E+02  0.45594000000E+02  0.51100000000E-03 0.  1.
    9900012    2    1    2    0    0 -0.39153122782E+02  0.96809737659E+01 -0.51456817884E+01  0.50528851980E+02  0.29999976078E+02 0.  0.
         12    1    1    2    0    0  0.39153122782E+02 -0.96809737659E+01  0.51456817884E+01  0.40659148020E+02  0.00000000000E+00 0. -1.
         11    1    3    3    0    0  0.17363660963E+01  0.18846424638E+01  0.39317373708E+01  0.46931229955E+01  0.51100000000E-03 0. -1.
        -11    1    3    3    0    0 -0.34495993209E+02  0.70966105362E+01 -0.13832180589E+02  0.37837344630E+02  0.51100000000E-03 0.  1.
         12    1    3    3    0    0 -0.63934956695E+01  0.69972076589E+00  0.47547614293E+01  0.79983843541E+01  0.00000000000E+00 0. -1.
</event>
<event>
 7    1  0.3041451E-011  0.5052879E+02  0.7816164E-02  0.1300439E+00
        -11   -1    0    0    0    0  0.00000000000E+00  0.00000000000E+00  0.45593999997E+02  0.45594000000E+02  0.51100000000E-03 0. -1.
         11   -1    0    0    0    0 -0.00000000000E+00 -0.00000000000E+00 -0.45593999997E+02  0.45594000000E+02  0.51100000000E-03 0.  1.
    9900012    2    1    2    0    0  0.28130137107E+02  0.49605042187E+01 -0.28935454418E+02  0.50528785324E+02  0.29999773469E+02 0.  0.
         12    1    1    2    0    0 -0.28130137107E+02 -0.49605042187E+01  0.28935454418E+02  0.40659214676E+02  0.00000000000E+00 0. -1.
         11    1    3    3    0    0  0.14211268376E+02 -0.10094045079E+02 -0.75320028386E+01  0.18988969481E+02  0.51100000000E-03 0. -1.
        -11    1    3    3    0    0  0.33849713409E+01  0.63531136748E+01 -0.14283833938E+01  0.73389620331E+01  0.51100000000E-03 0.  1.
        -12    1    3    3    0    0  0.10533897390E+02  0.87014356229E+01 -0.19975068185E+02  0.24200853810E+02  0.00000000000E+00 0.  1.
</event>
<event>
 7    1  0.3041451E-011  0.5052886E+02  0.7816164E-02  0.1300439E+00
        -11   -1    0    0    0    0  0.00000000000E+00  0.00000000000E+00  0.45593999997E+02  0.45594000000E+02  0.51100000000E-03 0. -1.
         11   -1    0    0    0    0 -0.00000000000E+00 -0.00000000000E+00 -0.45593999997E+02  0.45594000000E+02  0.51100000000E-03 0.  1.
    9900012    2    1    2    0    0  0.24104834366E+02  0.32733944199E+02  0.78201679076E+00  0.50528859664E+02  0.29999999434E+02 0.  0.
         12    1    1    2    0    0 -0.24104834366E+02 -0.32733944199E+02 -0.78201679076E+00  0.40659140336E+02  0.00000000000E+00 0. -1.
         11    1    3    3    0    0  0.25524741412E+01 -0.39103530238E+01  0.57725292077E+01  0.74248285319E+01  0.51100000000E-03 0. -1.
        -11    1    3    3    0    0  0.85207895425E+01  0.13517861424E+02  0.54143816103E+00  0.15988420417E+02  0.51100000000E-03 0.  1.
         12    1    3    3    0    0  0.13031570682E+02  0.23126435800E+02 -0.55319505780E+01  0.27115610715E+02  0.00000000000E+00 0. -1.
</event>
<event>
 7    1  0.3041451E-011  0.5052886E+02  0.7816164E-02  0.1300439E+00
        -11   -1    0    0    0    0  0.00000000000E+00  0.00000000000E+00  0.45593999997E+02  0.45594000000E+02  0.51100000000E-03 0.  1.
         11   -1    0    0    0    0 -0.00000000000E+00 -0.00000000000E+00 -0.45593999997E+02  0.45594000000E+02  0.51100000000E-03 0. -1.
    9900012    2    1    2    0    0 -0.36650211877E+02  0.16987720416E+02  0.46200420709E+01  0.50528862475E+02  0.30000007978E+02 0.  0.
         12    1    1    2    0    0  0.36650211877E+02 -0.16987720416E+02 -0.46200420709E+01  0.40659137525E+02  0.00000000000E+00 0. -1.
         11    1    3    3    0    0 -0.46386681244E+01  0.21105536797E+01 -0.58560541888E+01  0.77630567257E+01  0.51100000000E-03 0. -1.
        -11    1    3    3    0    0 -0.27684796124E+01  0.28632177070E+00  0.96830967559E+01  0.10075158687E+02  0.51100000000E-03 0.  1.
        -12    1    3    3    0    0 -0.29243064140E+02  0.14590844966E+02  0.79299950381E+00  0.32690647062E+02  0.00000000000E+00 0.  1.
</event>
<event>
 7    1  0.3041451E-011  0.5052886E+02  0.7816164E-02  0.1300439E+00
        -11   -1    0    0    0    0  0.00000000000E+00  0.00000000000E+00  0.45593999997E+02  0.45594000000E+02  0.51100000000E-03 0.  1.
         11   -1    0    0    0    0 -0.00000000000E+00 -0.00000000000E+00 -0.45593999997E+02  0.45594000000E+02  0.51100000000E-03 0. -1.
    9900012    2    1    2    0    0 -0.66508307467E+01 -0.30681178397E+02  0.25837901834E+02  0.50528862914E+02  0.30000009312E+02 0.  0.
         12    1    1    2    0    0  0.66508307467E+01  0.30681178397E+02 -0.25837901834E+02  0.40659137086E+02  0.00000000000E+00 0. -1.
         11    1    3    3    0    0  0.78654810877E+01 -0.11941776873E+02  0.42652407025E+01  0.14921933726E+02  0.51100000000E-03 0. -1.
        -11    1    3    3    0    0 -0.11835857368E+02 -0.35092228599E+01  0.62500549443E+01  0.13837100556E+02  0.51100000000E-03 0.  1.
        -12    1    3    3    0    0 -0.26804544661E+01 -0.15230178664E+02  0.15322606187E+02  0.21769828632E+02  0.00000000000E+00 0.  1.
</event>
<event>
 7    1  0.3041451E-011  0.5052886E+02  0.7816164E-02  0.1300439E+00
        -11   -1    0    0    0    0  0.00000000000E+00  0.00000000000E+00  0.45593999997E+02  0.45594000000E+02  0.51100000000E-03 0.  1.
         11   -1    0    0    0    0 -0.00000000000E+00 -0.00000000000E+00 -0.45593999997E+02  0.45594000000E+02  0.51100000000E-03 0. -1.
    9900012    2    1    2    0    0  0.14403450761E+02  0.26825398552E+02  0.26946323133E+02  0.50528859187E+02  0.29999997985E+02 0.  0.
         12    1    1    2    0    0 -0.14403450761E+02 -0.26825398552E+02 -0.26946323133E+02  0.40659140813E+02  0.00000000000E+00 0. -1.
         11    1    3    3    0    0 -0.24457562669E+01  0.12088801804E+02 -0.20288933645E+01  0.12499490442E+02  0.51100000000E-03 0.  1.
        -11    1    3    3    0    0  0.46051215136E+01  0.95457697247E+01  0.17523587789E+02  0.20479379704E+02  0.51100000000E-03 0. -1.
         12    1    3    3    0    0  0.12244085514E+02  0.51908270233E+01  0.11451628708E+02  0.17549989041E+02  0.00000000000E+00 0. -1.
</event>
<event>
 7    1  0.3041451E-011  0.5052886E+02  0.7816164E-02  0.1300439E+00
        -11   -1    0    0    0    0  0.00000000000E+00  0.00000000000E+00  0.45593999997E+02  0.45594000000E+02  0.51100000000E-03 0. -1.
         11   -1    0    0    0    0 -0.00000000000E+00 -0.00000000000E+00 -0.45593999997E+02  0.45594000000E+02  0.51100000000E-03 0.  1.
    9900012    2    1    2    0    0  0.28415079702E+02 -0.20971875013E+02 -0.20147687235E+02  0.50528860843E+02  0.30000003019E+02 0.  0.
         12    1    1    2    0    0 -0.28415079702E+02  0.20971875013E+02  0.20147687235E+02  0.40659139157E+02  0.00000000000E+00 0. -1.
         11    1    3    3    0    0  0.17677579294E+02  0.29283310157E+01 -0.81728015461E+01  0.19694329580E+02  0.51100000000E-03 0. -1.
        -11    1    3    3    0    0  0.41114758337E+01 -0.20609689835E+02 -0.89272912306E+01  0.22833310702E+02  0.51100000000E-03 0.  1.
         12    1    3    3    0    0  0.66260245750E+01 -0.32905161934E+01 -0.30475944584E+01  0.80012205613E+01  0.00000000000E+00 0. -1.
</event>
<event>
 7    1  0.3041451E-011  0.5052884E+02  0.7816164E-02  0.1300439E+00
        -11   -1    0    0    0    0  0.00000000000E+00  0.00000000000E+00  0.45593999997E+02  0.45594000000E+02  0.51100000000E-03 0. -1.
         11   -1    0    0    0    0 -0.00000000000E+00 -0.00000000000E+00 -0.45593999997E+02  0.45594000000E+02  0.51100000000E-03 0.  1.
    9900012    2    1    2    0    0  0.33896769873E+02 -0.22363400199E+02  0.20136685962E+01  0.50528836980E+02  0.29999930484E+02 0.  0.
         12    1    1    2    0    0 -0.33896769873E+02  0.22363400199E+02 -0.20136685962E+01  0.40659163020E+02  0.00000000000E+00 0. -1.
         11    1    3    3    0    0  0.57992557712E+01 -0.59102637880E+01 -0.12369602653E+02  0.14885216008E+02  0.51100000000E-03 0. -1.
        -11    1    3    3    0    0  0.79989207366E+01 -0.44465578908E+01  0.31719009621E+01  0.96858435875E+01  0.51100000000E-03 0.  1.
         12    1    3    3    0    0  0.20098593365E+02 -0.12006578520E+02  0.11211370287E+02  0.25957777384E+02  0.00000000000E+00 0. -1.
</event>
<event>
 7    1  0.3041451E-011  0.5052886E+02  0.7816164E-02  0.1300439E+00
        -11   -1    0    0    0    0  0.00000000000E+00  0.00000000000E+00  0.45593999997E+02  0.45594000000E+02  0.51100000000E-03 0.  1.
         11   -1    0    0    0    0 -0.00000000000E+00 -0.00000000000E+00 -0.45593999997E+02  0.45594000000E+02  0.51100000000E-03 0. -1.
    9900012    2    1    2    0    0  0.31335025239E+02  0.22173741825E+02  0.13401761714E+02  0.50528857728E+02  0.29999993552E+02 0.  0.
         12    1    1    2    0    0 -0.31335025239E+02 -0.22173741825E+02 -0.13401761714E+02  0.40659142272E+02  0.00000000000E+00 0. -1.
         11    1    3    3    0    0  0.12387463791E+02  0.95593824760E+01 -0.73855621796E+01  0.17302531071E+02  0.51100000000E-03 0. -1.
        -11    1    3    3    0    0  0.12796910739E+02  0.11563277771E+02  0.80305436286E+01  0.19025245032E+02  0.51100000000E-03 0.  1.
         12    1    3    3    0    0  0.61506507084E+01  0.10510815776E+01  0.12756780265E+02  0.14201081626E+02  0.00000000000E+00 0. -1.
</event>
<event>
 7    1  0.3041451E-011  0.5052886E+02  0.7816164E-02  0.1300439E+00
        -11   -1    0    0    0    0  0.00000000000E+00  0.00000000000E+00  0.45593999997E+02  0.45594000000E+02  0.51100000000E-03 0. -1.
         11   -1    0    0    0    0 -0.00000000000E+00 -0.00000000000E+00 -0.45593999997E+02  0.45594000000E+02  0.51100000000E-03 0.  1.
    9900012    2    1    2    0    0  0.29999219792E+02 -0.70161206576E+01 -0.26532742505E+02  0.50528861272E+02  0.30000004323E+02 0.  0.
         12    1    1    2    0    0 -0.29999219792E+02  0.70161206576E+01  0.26532742505E+02  0.40659138728E+02  0.00000000000E+00 0. -1.
         11    1    3    3    0    0  0.97999554259E+01 -0.78718556424E+01 -0.11295054647E+02  0.16899215879E+02  0.51100000000E-03 0. -1.
        -11    1    3    3    0    0  0.11414411909E+02  0.88175168563E+01 -0.12840609544E+00  0.14424073320E+02  0.51100000000E-03 0.  1.
        -12    1    3    3    0    0  0.87848524570E+01 -0.79617818716E+01 -0.15109281763E+02  0.19205572073E+02  0.00000000000E+00 0.  1.
</event>
<event>
 7    1  0.3041451E-011  0.5052888E+02  0.7816164E-02  0.1300439E+00
        -11   -1    0    0    0    0  0.00000000000E+00  0.00000000000E+00  0.45593999997E+02  0.45594000000E+02  0.51100000000E-03 0. -1.
         11   -1    0    0    0    0 -0.00000000000E+00 -0.00000000000E+00 -0.45593999997E+02  0.45594000000E+02  0.51100000000E-03 0.  1.
    9900012    2    1    2    0    0  0.82073074419E+00 -0.29411338700E+02 -0.28061788145E+02  0.50528875600E+02  0.30000047874E+02 0.  0.
         12    1    1    2    0    0 -0.82073074419E+00  0.29411338700E+02  0.28061788145E+02  0.40659124400E+02  0.00000000000E+00 0. -1.
         11    1    3    3    0    0 -0.27091882426E+01 -0.17037704300E+02  0.31529261059E+00  0.17254636433E+02  0.51100000000E-03 0. -1.
        -11    1    3    3    0    0  0.73992683265E+01 -0.92262377593E+01 -0.15737151389E+02  0.19685796125E+02  0.51100000000E-03 0.  1.
        -12    1    3    3    0    0 -0.38693493397E+01 -0.31473966404E+01 -0.12639929366E+02  0.13588443042E+02  0.00000000000E+00 0.  1.
</event>
<event>
 7    1  0.3041451E-011  0.5052888E+02  0.7816164E-02  0.1300439E+00
        -11   -1    0    0    0    0  0.00000000000E+00  0.00000000000E+00  0.45593999997E+02  0.45594000000E+02  0.51100000000E-03 0. -1.
         11   -1    0    0    0    0 -0.00000000000E+00 -0.00000000000E+00 -0.45593999997E+02  0.45594000000E+02  0.51100000000E-03 0.  1.
    9900012    2    1    2    0    0  0.37167570890E+02  0.49927805120E+01  0.15710124318E+02  0.50528878155E+02  0.30000055640E+02 0.  0.
         12    1    1    2    0    0 -0.37167570890E+02 -0.49927805120E+01 -0.15710124318E+02  0.40659121845E+02  0.00000000000E+00 0. -1.
         11    1    3    3    0    0  0.11268567201E+02 -0.43716421297E+01  0.11013407059E+02  0.16351972266E+02  0.51100000000E-03 0. -1.
        -11    1    3    3    0    0  0.14803428490E+02  0.62924069284E+01 -0.71985381231E+01  0.17622565970E+02  0.51100000000E-03 0.  1.
        -12    1    3    3    0    0  0.11095575199E+02  0.30720157133E+01  0.11895255382E+02  0.16554339919E+02  0.00000000000E+00 0.  1.
</event>
<event>
 7    1  0.3041451E-011  0.5052886E+02  0.7816164E-02  0.1300439E+00
        -11   -1    0    0    0    0  0.00000000000E+00  0.00000000000E+00  0.45593999997E+02  0.45594000000E+02  0.51100000000E-03 0.  1.
         11   -1    0    0    0    0 -0.00000000000E+00 -0.00000000000E+00 -0.45593999997E+02  0.45594000000E+02  0.51100000000E-03 0. -1.
    9900012    2    1    2    0    0 -0.37698230145E+02 -0.14886942212E+02  0.32230036982E+01  0.50528863790E+02  0.30000011976E+02 0.  0.
         12    1    1    2    0    0  0.37698230145E+02  0.14886942212E+02 -0.32230036982E+01  0.40659136210E+02  0.00000000000E+00 0. -1.
         11    1    3    3    0    0 -0.25310409574E+02  0.14043464695E+01 -0.41028370670E+00  0.25352659718E+02  0.51100000000E-03 0. -1.
        -11    1    3    3    0    0 -0.13298794215E+02 -0.16918088331E+02  0.61889474575E+01  0.22391576792E+02  0.51100000000E-03 0.  1.
         12    1    3    3    0    0  0.91097364382E+00  0.62679964966E+00 -0.25556600526E+01  0.27846272794E+01  0.00000000000E+00 0. -1.
</event>
<event>
 7    1  0.3041451E-011  0.5052885E+02  0.7816164E-02  0.1300439E+00
        -11   -1    0    0    0    0  0.00000000000E+00  0.00000000000E+00  0.45593999997E+02  0.45594000000E+02  0.51100000000E-03 0.  1.
         11   -1    0    0    0    0 -0.00000000000E+00 -0.00000000000E+00 -0.45593999997E+02  0.45594000000E+02  0.51100000000E-03 0. -1.
    9900012    2    1    2    0    0  0.34101832876E+02 -0.21342474309E+02  0.58932395336E+01  0.50528849894E+02  0.29999969738E+02 0.  0.
         12    1    1    2    0    0 -0.34101832876E+02  0.21342474309E+02 -0.58932395336E+01  0.40659150106E+02  0.00000000000E+00 0. -1.
         11    1    3    3    0    0  0.51670802894E+01  0.52768923964E+01 -0.39673162972E+01  0.83835500203E+01  0.51100000000E-03 0. -1.
        -11    1    3    3    0    0  0.12330422514E+02 -0.10600380445E+02  0.99688625633E+01  0.19073164551E+02  0.51100000000E-03 0.  1.
         12    1    3    3    0    0  0.16604330073E+02 -0.16018986260E+02 -0.10830673245E+00  0.23072135322E+02  0.00000000000E+00 0. -1.
</event>
<event>
 7    1  0.3041451E-011  0.5052887E+02  0.7816164E-02  0.1300439E+00
        -11   -1    0    0    0    0  0.00000000000E+00  0.00000000000E+00  0.45593999997E+02  0.45594000000E+02  0.51100000000E-03 0.  1.
         11   -1    0    0    0    0 -0.00000000000E+00 -0.00000000000E+00 -0.45593999997E+02  0.45594000000E+02  0.51100000000E-03 0. -1.
    9900012    2    1    2    0    0 -0.19340041908E+01 -0.16462749830E+02  0.37126845678E+02  0.50528866043E+02  0.30000018823E+02 0.  0.
         12    1    1    2    0    0  0.19340041908E+01  0.16462749830E+02 -0.37126845678E+02  0.40659133957E+02  0.00000000000E+00 0. -1.
         11    1    3    3    0    0 -0.53669620615E+01 -0.38668803505E+01 -0.22636800472E+01  0.69915157893E+01  0.51100000000E-03 0. -1.
        -11    1    3    3    0    0  0.51029620992E+01 -0.46516635407E+01  0.31386960798E+02  0.32137509304E+02  0.51100000000E-03 0.  1.
        -12    1    3    3    0    0 -0.16700042285E+01 -0.79442059392E+01  0.80035649268E+01  0.11399840949E+02  0.00000000000E+00 0.  1.
</event>
<event>
 7    1  0.3041451E-011  0.5052886E+02  0.7816164E-02  0.1300439E+00
        -11   -1    0    0    0    0  0.00000000000E+00  0.00000000000E+00  0.45593999997E+02  0.45594000000E+02  0.51100000000E-03 0. -1.
         11   -1    0    0    0    0 -0.00000000000E+00 -0.00000000000E+00 -0.45593999997E+02  0.45594000000E+02  0.51100000000E-03 0.  1.
    9900012    2    1    2    0    0 -0.13351638989E+02 -0.26036855178E+02 -0.28230863543E+02  0.50528858990E+02  0.29999997387E+02 0.  0.
         12    1    1    2    0    0  0.13351638989E+02  0.26036855178E+02  0.28230863543E+02  0.40659141010E+02  0.00000000000E+00 0. -1.
         11    1    3    3    0    0 -0.58968317720E+01 -0.25285042199E+02 -0.18546414057E+02  0.31907294755E+02  0.51100000000E-03 0.  1.
        -11    1    3    3    0    0 -0.63188620880E+01  0.41556577880E+01  0.15849769171E+00  0.75645641988E+01  0.51100000000E-03 0. -1.
        -12    1    3    3    0    0 -0.11359451289E+01 -0.49074707674E+01 -0.98429471773E+01  0.11057000036E+02  0.00000000000E+00 0.  1.
</event>
<event>
 7    1  0.3041451E-011  0.5052887E+02  0.7816164E-02  0.1300439E+00
        -11   -1    0    0    0    0  0.00000000000E+00  0.00000000000E+00  0.45593999997E+02  0.45594000000E+02  0.51100000000E-03 0.  1.
         11   -1    0    0    0    0 -0.00000000000E+00 -0.00000000000E+00 -0.45593999997E+02  0.45594000000E+02  0.51100000000E-03 0. -1.
    9900012    2    1    2    0    0  0.10789004454E+02  0.14469635968E+02  0.36433384602E+02  0.50528874386E+02  0.30000044184E+02 0.  0.
         12    1    1    2    0    0 -0.10789004454E+02 -0.14469635968E+02 -0.36433384602E+02  0.40659125614E+02  0.00000000000E+00 0. -1.
         11    1    3    3    0    0  0.94046588616E+01  0.17288733888E+01  0.10220101554E+02  0.13995966831E+02  0.51100000000E-03 0. -1.
        -11    1    3    3    0    0 -0.31853866230E+01  0.13459699985E+02  0.48232031598E+01  0.14648327570E+02  0.51100000000E-03 0.  1.
        -12    1    3    3    0    0  0.45697322158E+01 -0.71893740550E+00  0.21390079888E+02  0.21884579985E+02  0.00000000000E+00 0.  1.
</event>
<event>
 7    1  0.3041451E-011  0.5052886E+02  0.7816164E-02  0.1300439E+00
        -11   -1    0    0    0    0  0.00000000000E+00  0.00000000000E+00  0.45593999997E+02  0.45594000000E+02  0.51100000000E-03 0. -1.
         11   -1    0    0    0    0 -0.00000000000E+00 -0.00000000000E+00 -0.45593999997E+02  0.45594000000E+02  0.51100000000E-03 0.  1.
    9900012    2    1    2    0    0  0.93001204976E+01  0.33961862742E+02 -0.20328925609E+02  0.50528861069E+02  0.30000003705E+02 0.  0.
         12    1    1    2    0    0 -0.93001204976E+01 -0.33961862742E+02  0.20328925609E+02  0.40659138931E+02  0.00000000000E+00 0. -1.
         11    1    3    3    0    0  0.15521690618E+02  0.12807997931E+02 -0.74669487458E+01  0.21464459333E+02  0.51100000000E-03 0. -1.
        -11    1    3    3    0    0 -0.48255314341E+01  0.18250282503E+02 -0.15865976204E+02  0.24659435643E+02  0.51100000000E-03 0.  1.
         12    1    3    3    0    0 -0.13960386862E+01  0.29035823088E+01  0.30039993408E+01  0.44049660926E+01  0.00000000000E+00 0. -1.
</event>
<event>
 7    1  0.3041451E-011  0.5052886E+02  0.7816164E-02  0.1300439E+00
        -11   -1    0    0    0    0  0.00000000000E+00  0.00000000000E+00  0.45593999997E+02  0.45594000000E+02  0.51100000000E-03 0.  1.
         11   -1    0    0    0    0 -0.00000000000E+00 -0.00000000000E+00 -0.45593999997E+02  0.45594000000E+02  0.51100000000E-03 0. -1.
    9900012    2    1    2    0    0  0.22494439642E+00  0.29830348730E+01  0.40548944685E+02  0.50528855738E+02  0.29999987501E+02 0.  0.
         12    1    1    2    0    0 -0.22494439642E+00 -0.29830348730E+01 -0.40548944685E+02  0.40659144262E+02  0.00000000000E+00 0. -1.
         11    1    3    3    0    0 -0.18535677853E+01 -0.34143668727E+01 -0.11861555349E+01  0.40620905813E+01  0.51100000000E-03 0. -1.
        -11    1    3    3    0    0  0.87530727157E+01  0.87093451452E+01  0.19001910608E+02  0.22661455863E+02  0.51100000000E-03 0.  1.
        -12    1    3    3    0    0 -0.66745605339E+01 -0.23119433996E+01  0.22733189612E+02  0.23805309293E+02  0.00000000000E+00 0.  1.
</event>
<event>
 7    1  0.3041451E-011  0.5052886E+02  0.7816164E-02  0.1300439E+00
        -11   -1    0    0    0    0  0.00000000000E+00  0.00000000000E+00  0.45593999997E+02  0.45594000000E+02  0.51100000000E-03 0.  1.
         11   -1    0    0    0    0 -0.00000000000E+00 -0.00000000000E+00 -0.45593999997E+02  0.45594000000E+02  0.51100000000E-03 0. -1.
    9900012    2    1    2    0    0  0.69200430521E+01  0.16900279836E+02  0.36327119087E+02  0.50528855450E+02  0.29999986625E+02 0.  0.
         12    1    1    2    0    0 -0.69200430521E+01 -0.16900279836E+02 -0.36327119087E+02  0.40659144550E+02  0.00000000000E+00 0. -1.
         11    1    3    3    0    0  0.45627532900E+01 -0.25885595170E+01  0.49997225775E+01  0.72468326924E+01  0.51100000000E-03 0. -1.
        -11    1    3    3    0    0 -0.95619839101E+01  0.12653223645E+02  0.19634934821E+02  0.25240171762E+02  0.51100000000E-03 0.  1.
        -12    1    3    3    0    0  0.11919273672E+02  0.68356157083E+01  0.11692461689E+02  0.18041850995E+02  0.00000000000E+00 0.  1.
</event>
<event>
 7    1  0.3041451E-011  0.5052888E+02  0.7816164E-02  0.1300439E+00
        -11   -1    0    0    0    0  0.00000000000E+00  0.00000000000E+00  0.45593999997E+02  0.45594000000E+02  0.51100000000E-03 0. -1.
         11   -1    0    0    0    0 -0.00000000000E+00 -0.00000000000E+00 -0.45593999997E+02  0.45594000000E+02  0.51100000000E-03 0.  1.
    9900012    2    1    2    0    0 -0.19816205263E+02 -0.35117214683E+02 -0.52214140497E+01  0.50528881431E+02  0.30000065599E+02 0.  0.
         12    1    1    2    0    0  0.19816205263E+02  0.35117214683E+02  0.52214140497E+01  0.40659118569E+02  0.00000000000E+00 0. -1.
         11    1    3    3    0    0 -0.65725659404E+01 -0.25183332074E+02  0.27888788064E+01  0.26175879788E+02  0.51100000000E-03 0. -1.
        -11    1    3    3    0    0 -0.12801355344E+02 -0.11642183085E+02 -0.11267313554E+02  0.20648667769E+02  0.51100000000E-03 0.  1.
        -12    1    3    3    0    0 -0.44228397817E+00  0.17083004767E+01  0.32570206973E+01  0.37043338752E+01  0.00000000000E+00 0.  1.
</event>
<event>
 7    1  0.3041451E-011  0.5052886E+02  0.7816164E-02  0.1300439E+00
        -11   -1    0    0    0    0  0.00000000000E+00  0.00000000000E+00  0.45593999997E+02  0.45594000000E+02  0.51100000000E-03 0. -1.
         11   -1    0    0    0    0 -0.00000000000E+00 -0.00000000000E+00 -0.45593999997E+02  0.45594000000E+02  0.51100000000E-03 0.  1.
    9900012    2    1    2    0    0  0.23384054134E+02  0.22091717082E+02 -0.24865795151E+02  0.50528859332E+02  0.29999998425E+02 0.  0.
         12    1    1    2    0    0 -0.23384054134E+02 -0.22091717082E+02  0.24865795151E+02  0.40659140668E+02  0.00000000000E+00 0. -1.
         11    1    3    3    0    0 -0.16672178587E+01 -0.49629392437E-01  0.39479298737E+01  0.42858171932E+01  0.51100000000E-03 0. -1.
        -11    1    3    3    0    0  0.73946575917E+01  0.14294669285E+02 -0.84727764029E+01  0.18188085966E+02  0.51100000000E-03 0.  1.
         12    1    3    3    0    0  0.17656614401E+02  0.78466771894E+01 -0.20340948622E+02  0.28054956173E+02  0.00000000000E+00 0. -1.
</event>
<event>
 7    1  0.3041451E-011  0.5052885E+02  0.7816164E-02  0.1300439E+00
        -11   -1    0    0    0    0  0.00000000000E+00  0.00000000000E+00  0.45593999997E+02  0.45594000000E+02  0.51100000000E-03 0. -1.
         11   -1    0    0    0    0 -0.00000000000E+00 -0.00000000000E+00 -0.45593999997E+02  0.45594000000E+02  0.51100000000E-03 0.  1.
    9900012    2    1    2    0    0 -0.38337284552E+02  0.11780464953E+02 -0.66812878102E+01  0.50528851606E+02  0.29999974942E+02 0.  0.
         12    1    1    2    0    0  0.38337284552E+02 -0.11780464953E+02  0.66812878102E+01  0.40659148394E+02  0.00000000000E+00 0. -1.
         11    1    3    3    0    0 -0.26484323939E+02 -0.14019273840E+01  0.10357538413E+01  0.26541620169E+02  0.51100000000E-03 0. -1.
        -11    1    3    3    0    0  0.19947735469E+00  0.40171526787E+01 -0.78775541281E+01  0.88449514505E+01  0.51100000000E-03 0.  1.
         12    1    3    3    0    0 -0.12052437967E+02  0.91652396583E+01  0.16051247656E+00  0.15142279987E+02  0.00000000000E+00 0. -1.
</event>
<event>
 7    1  0.3041451E-011  0.5052884E+02  0.7816164E-02  0.1300439E+00
        -11   -1    0    0    0    0  0.00000000000E+00  0.00000000000E+00  0.45593999997E+02  0.45594000000E+02  0.51100000000E-03 0.  1.
         11   -1    0    0    0    0 -0.00000000000E+00 -0.00000000000E+00 -0.45593999997E+02  0.45594000000E+02  0.51100000000E-03 0. -1.
    9900012    2    1    2    0    0 -0.49986598361E+01  0.85039924124E+01  0.39444425913E+02  0.50528840851E+02  0.29999942251E+02 0.  0.
         12    1    1    2    0    0  0.49986598361E+01 -0.85039924124E+01 -0.39444425913E+02  0.40659159149E+02  0.00000000000E+00 0. -1.
         11    1    3    3    0    0  0.72019004169E+01 -0.71433934130E+01  0.14656963261E+02  0.17824758382E+02  0.51100000000E-03 0. -1.
        -11    1    3    3    0    0 -0.40853842795E+01  0.28587722519E+01  0.20664688551E+01  0.53975214024E+01  0.51100000000E-03 0.  1.
         12    1    3    3    0    0 -0.81151759735E+01  0.12788613573E+02  0.22720993797E+02  0.27306561067E+02  0.00000000000E+00 0. -1.
</event>
<event>
 7    1  0.3041451E-011  0.5052886E+02  0.7816164E-02  0.1300439E+00
        -11   -1    0    0    0    0  0.00000000000E+00  0.00000000000E+00  0.45593999997E+02  0.45594000000E+02  0.51100000000E-03 0. -1.
         11   -1    0    0    0    0 -0.00000000000E+00 -0.00000000000E+00 -0.45593999997E+02  0.45594000000E+02  0.51100000000E-03 0.  1.
    9900012    2    1    2    0    0  0.24815533335E+02 -0.99273630055E+01 -0.30639877613E+02  0.50528864113E+02  0.30000012957E+02 0.  0.
         12    1    1    2    0    0 -0.24815533335E+02  0.99273630055E+01  0.30639877613E+02  0.40659135887E+02  0.00000000000E+00 0. -1.
         11    1    3    3    0    0  0.15281438966E+02 -0.26775080739E+00 -0.14376710833E+02  0.20982942644E+02  0.51100000000E-03 0. -1.
        -11    1    3    3    0    0  0.17398779358E+01  0.21857427422E+01 -0.15058218332E+02  0.15315175029E+02  0.51100000000E-03 0.  1.
         12    1    3    3    0    0  0.77942164332E+01 -0.11845354940E+02 -0.12049484480E+01  0.14230746440E+02  0.00000000000E+00 0. -1.
</event>
<event>
 7    1  0.3041451E-011  0.5052888E+02  0.7816164E-02  0.1300439E+00
        -11   -1    0    0    0    0  0.00000000000E+00  0.00000000000E+00  0.45593999997E+02  0.45594000000E+02  0.51100000000E-03 0. -1.
         11   -1    0    0    0    0 -0.00000000000E+00 -0.00000000000E+00 -0.45593999997E+02  0.45594000000E+02  0.51100000000E-03 0.  1.
    9900012    2    1    2    0    0 -0.16575763617E+02 -0.30532762518E+02 -0.21122468927E+02  0.50528877776E+02  0.30000054488E+02 0.  0.
         12    1    1    2    0    0  0.16575763617E+02  0.30532762518E+02  0.21122468927E+02  0.40659122224E+02  0.00000000000E+00 0. -1.
         11    1    3    3    0    0 -0.70446625259E-01 -0.49955172074E+01 -0.14295322615E+02  0.15143196619E+02  0.51100000000E-03 0. -1.
        -11    1    3    3    0    0 -0.57019628060E+01 -0.22363497251E+02 -0.21018417084E+01  0.23174471471E+02  0.51100000000E-03 0.  1.
        -12    1    3    3    0    0 -0.10803354186E+02 -0.31737480596E+01 -0.47253046026E+01  0.12211209686E+02  0.00000000000E+00 0.  1.
</event>
<event>
 7    1  0.3041451E-011  0.5052886E+02  0.7816164E-02  0.1300439E+00
        -11   -1    0    0    0    0  0.00000000000E+00  0.00000000000E+00  0.45593999997E+02  0.45594000000E+02  0.51100000000E-03 0.  1.
         11   -1    0    0    0    0 -0.00000000000E+00 -0.00000000000E+00 -0.45593999997E+02  0.45594000000E+02  0.51100000000E-03 0. -1.
    9900012    2    1    2    0    0  0.33350684896E+01 -0.31196818517E+02  0.25861200265E+02  0.50528857774E+02  0.29999993690E+02 0.  0.
         12    1    1    2    0    0 -0.33350684896E+01  0.31196818517E+02 -0.25861200265E+02  0.40659142226E+02  0.00000000000E+00 0. -1.
         11    1    3    3    0    0 -0.84972168919E+01 -0.14590068995E+02  0.14057950556E+02  0.21970406966E+02  0.51100000000E-03 0. -1.
        -11    1    3    3    0    0  0.86951760583E+01 -0.18904324131E+02  0.61518055364E+01  0.21698485412E+02  0.51100000000E-03 0.  1.
         12    1    3    3    0    0  0.31371093231E+01  0.22975746092E+01  0.56514441732E+01  0.68599653959E+01  0.00000000000E+00 0. -1.
</event>
<event>
 7    1  0.3041451E-011  0.5052884E+02  0.7816164E-02  0.1300439E+00
        -11   -1    0    0    0    0  0.00000000000E+00  0.00000000000E+00  0.45593999997E+02  0.45594000000E+02  0.51100000000E-03 0.  1.
         11   -1    0    0    0    0 -0.00000000000E+00 -0.00000000000E+00 -0.45593999997E+02  0.45594000000E+02  0.51100000000E-03 0. -1.
    9900012    2    1    2    0    0 -0.21314594204E+02  0.29710993440E+02 -0.17779544734E+02  0.50528840291E+02  0.29999940548E+02 0.  0.
         12    1    1    2    0    0  0.21314594204E+02 -0.29710993440E+02  0.17779544734E+02  0.40659159709E+02  0.00000000000E+00 0. -1.
         11    1    3    3    0    0 -0.71575489985E+01  0.31326860193E+02 -0.15619092788E+02  0.35728962160E+02  0.51100000000E-03 0. -1.
        -11    1    3    3    0    0 -0.11002711033E+02  0.19428402628E+00 -0.16465262408E+01  0.11126924341E+02  0.51100000000E-03 0.  1.
         12    1    3    3    0    0 -0.31543341726E+01 -0.18101507789E+01 -0.51392570487E+00  0.36729537902E+01  0.00000000000E+00 0. -1.
</event>
<event>
 7    1  0.3041451E-011  0.5052886E+02  0.7816164E-02  0.1300439E+00
        -11   -1    0    0    0    0  0.00000000000E+00  0.00000000000E+00  0.45593999997E+02  0.45594000000E+02  0.51100000000E-03 0.  1.
         11   -1    0    0    0    0 -0.00000000000E+00 -0.00000000000E+00 -0.45593999997E+02  0.45594000000E+02  0.51100000000E-03 0. -1.
    9900012    2    1    2    0    0  0.24614646130E+02 -0.32361075813E+02 -0.21445519735E+00  0.50528855605E+02  0.29999987096E+02 0.  0.
         12    1    1    2    0    0 -0.24614646130E+02  0.32361075813E+02  0.21445519735E+00  0.40659144395E+02  0.00000000000E+00 0. -1.
         11    1    3    3    0    0  0.14358079577E+01  0.15848611861E+01 -0.46789214919E+01  0.51444762668E+01  0.51100000000E-03 0. -1.
        -11    1    3    3    0    0  0.23204220158E+02 -0.25649096707E+02 -0.23218632255E+01  0.34665588760E+02  0.51100000000E-03 0.  1.
        -12    1    3    3    0    0 -0.25381985525E-01 -0.82968402929E+01  0.67863295201E+01  0.10718790578E+02  0.00000000000E+00 0.  1.
</event>
<event>
 7    1  0.3041451E-011  0.5052887E+02  0.7816164E-02  0.1300439E+00
        -11   -1    0    0    0    0  0.00000000000E+00  0.00000000000E+00  0.45593999997E+02  0.45594000000E+02  0.51100000000E-03 0.  1.
         11   -1    0    0    0    0 -0.00000000000E+00 -0.00000000000E+00 -0.45593999997E+02  0.45594000000E+02  0.51100000000E-03 0. -1.
    9900012    2    1    2    0    0  0.24941186330E+02 -0.25226393771E+02 -0.19867849742E+02  0.50528866074E+02  0.30000018918E+02 0.  0.
         12    1    1    2    0    0 -0.24941186330E+02  0.25226393771E+02  0.19867849742E+02  0.40659133926E+02  0.00000000000E+00 0. -1.
         11    1    3    3    0    0  0.22319317240E+02 -0.53895110717E+01 -0.15395331810E+02  0.27644438744E+02  0.51100000000E-03 0. -1.
        -11    1    3    3    0    0  0.44112188583E+01 -0.12781575286E+02  0.13151313053E+01  0.13585179028E+02  0.51100000000E-03 0.  1.
         12    1    3    3    0    0 -0.17893497680E+01 -0.70553074141E+01 -0.57876492373E+01  0.92992483026E+01  0.00000000000E+00 0. -1.
</event>
<event>
 7    1  0.3041451E-011  0.5052886E+02  0.7816164E-02  0.1300439E+00
        -11   -1    0    0    0    0  0.00000000000E+00  0.00000000000E+00  0.45593999997E+02  0.45594000000E+02  0.51100000000E-03 0.  1.
         11   -1    0    0    0    0 -0.00000000000E+00 -0.00000000000E+00 -0.45593999997E+02  0.45594000000E+02  0.51100000000E-03 0. -1.
    9900012    2    1    2    0    0 -0.25314291987E+02  0.23543592708E+02  0.21402140412E+02  0.50528858954E+02  0.29999997275E+02 0.  0.
         12    1    1    2    0    0  0.25314291987E+02 -0.23543592708E+02 -0.21402140412E+02  0.40659141046E+02  0.00000000000E+00 0. -1.
         11    1    3    3    0    0 -0.26625165474E+02  0.15549797377E+02  0.20092214634E+02  0.36802074998E+02  0.51100000000E-03 0. -1.
        -11    1    3    3    0    0  0.21122991731E+01  0.28591891775E+01  0.58372779922E+01  0.68345142599E+01  0.51100000000E-03 0.  1.
         12    1    3    3    0    0 -0.80142568597E+00  0.51346061537E+01 -0.45273522145E+01  0.68922696957E+01  0.00000000000E+00 0. -1.
</event>
<event>
 7    1  0.3041451E-011  0.5052888E+02  0.7816164E-02  0.1300439E+00
        -11   -1    0    0    0    0  0.00000000000E+00  0.00000000000E+00  0.45593999997E+02  0.45594000000E+02  0.51100000000E-03 0.  1.
         11   -1    0    0    0    0 -0.00000000000E+00 -0.00000000000E+00 -0.45593999997E+02  0.45594000000E+02  0.51100000000E-03 0. -1.
    9900012    2    1    2    0    0 -0.16849317447E+02 -0.21594957708E+02  0.30048663991E+02  0.50528881656E+02  0.30000066281E+02 0.  0.
         12    1    1    2    0    0  0.16849317447E+02  0.21594957708E+02 -0.30048663991E+02  0.40659118344E+02  0.00000000000E+00 0. -1.
         11    1    3    3    0    0 -0.44686750033E+01  0.37263138573E+01  0.13619078103E+02  0.14809920995E+02  0.51100000000E-03 0.  1.
        -11    1    3    3    0    0 -0.80683546557E+01 -0.70302250340E+01 -0.83981835226E-01  0.10701843957E+02  0.51100000000E-03 0. -1.
        -12    1    3    3    0    0 -0.43122877883E+01 -0.18291046531E+02  0.16513567724E+02  0.25017116703E+02  0.00000000000E+00 0.  1.
</event>
<event>
 7    1  0.3041451E-011  0.5052886E+02  0.7816164E-02  0.1300439E+00
        -11   -1    0    0    0    0  0.00000000000E+00  0.00000000000E+00  0.45593999997E+02  0.45594000000E+02  0.51100000000E-03 0.  1.
         11   -1    0    0    0    0 -0.00000000000E+00 -0.00000000000E+00 -0.45593999997E+02  0.45594000000E+02  0.51100000000E-03 0. -1.
    9900012    2    1    2    0    0  0.17655942723E+02 -0.35197316729E+02 -0.10128290660E+02  0.50528859699E+02  0.29999999540E+02 0.  0.
         12    1    1    2    0    0 -0.17655942723E+02  0.35197316729E+02  0.10128290660E+02  0.40659140301E+02  0.00000000000E+00 0. -1.
         11    1    3    3    0    0 -0.14858234579E+01  0.28065099364E+01 -0.62424426623E+01  0.70037318641E+01  0.51100000000E-03 0. -1.
        -11    1    3    3    0    0  0.19889465474E+02 -0.37193228080E+02 -0.33820210887E+01  0.42312706351E+02  0.51100000000E-03 0.  1.
         12    1    3    3    0    0 -0.74769929298E+00 -0.81059858523E+00 -0.50382690921E+00  0.12124214835E+01  0.00000000000E+00 0. -1.
</event>
<event>
 7    1  0.3041451E-011  0.5052884E+02  0.7816164E-02  0.1300439E+00
        -11   -1    0    0    0    0  0.00000000000E+00  0.00000000000E+00  0.45593999997E+02  0.45594000000E+02  0.51100000000E-03 0.  1.
         11   -1    0    0    0    0 -0.00000000000E+00 -0.00000000000E+00 -0.45593999997E+02  0.45594000000E+02  0.51100000000E-03 0. -1.
    9900012    2    1    2    0    0  0.27342133914E+02  0.98625080802E+01  0.28430724978E+02  0.50528837744E+02  0.29999932808E+02 0.  0.
         12    1    1    2    0    0 -0.27342133914E+02 -0.98625080802E+01 -0.28430724978E+02  0.40659162256E+02  0.00000000000E+00 0. -1.
         11    1    3    3    0    0  0.10251855667E+02  0.91371742904E+01  0.19130001756E+02  0.23548789058E+02  0.51100000000E-03 0. -1.
        -11    1    3    3    0    0  0.20094734835E+02  0.55940941661E+00  0.34437820654E+01  0.20395365703E+02  0.51100000000E-03 0.  1.
        -12    1    3    3    0    0 -0.30044565886E+01  0.16592437319E+00  0.58569411563E+01  0.65846829839E+01  0.00000000000E+00 0.  1.
</event>
<event>
 7    1  0.3041451E-011  0.5052891E+02  0.7816164E-02  0.1300439E+00
        -11   -1    0    0    0    0  0.00000000000E+00  0.00000000000E+00  0.45593999997E+02  0.45594000000E+02  0.51100000000E-03 0.  1.
         11   -1    0    0    0    0 -0.00000000000E+00 -0.00000000000E+00 -0.45593999997E+02  0.45594000000E+02  0.51100000000E-03 0. -1.
    9900012    2    1    2    0    0 -0.52042549067E+01  0.10096367703E+02  0.39040246661E+02  0.50528907914E+02  0.30000146095E+02 0.  0.
         12    1    1    2    0    0  0.52042549067E+01 -0.10096367703E+02 -0.39040246661E+02  0.40659092086E+02  0.00000000000E+00 0. -1.
         11    1    3    3    0    0 -0.88215610703E+01  0.82934914330E+00  0.19517912059E+02  0.21434939960E+02  0.51100000000E-03 0. -1.
        -11    1    3    3    0    0  0.79490205009E+01 -0.15024563815E+01  0.24565323646E+01  0.84545167586E+01  0.51100000000E-03 0.  1.
        -12    1    3    3    0    0 -0.43317143373E+01  0.10769474941E+02  0.17065802238E+02  0.20639451195E+02  0.00000000000E+00 0.  1.
</event>
<event>
 7    1  0.3041451E-011  0.5052886E+02  0.7816164E-02  0.1300439E+00
        -11   -1    0    0    0    0  0.00000000000E+00  0.00000000000E+00  0.45593999997E+02  0.45594000000E+02  0.51100000000E-03 0.  1.
         11   -1    0    0    0    0 -0.00000000000E+00 -0.00000000000E+00 -0.45593999997E+02  0.45594000000E+02  0.51100000000E-03 0. -1.
    9900012    2    1    2    0    0 -0.35045876679E+01 -0.23873048333E+02  0.32725538029E+02  0.50528863134E+02  0.30000009981E+02 0.  0.
         12    1    1    2    0    0  0.35045876679E+01  0.23873048333E+02 -0.32725538029E+02  0.40659136866E+02  0.00000000000E+00 0. -1.
         11    1    3    3    0    0 -0.93851375432E+01 -0.66463401999E+01  0.32497411564E+01  0.11950542356E+02  0.51100000000E-03 0. -1.
        -11    1    3    3    0    0 -0.10245920360E+00  0.22939035212E+01  0.10352888808E+02  0.10604470670E+02  0.51100000000E-03 0.  1.
         12    1    3    3    0    0  0.59830090789E+01 -0.19520611654E+02  0.19122908064E+02  0.27973850107E+02  0.00000000000E+00 0. -1.
</event>
<event>
 7    1  0.3041451E-011  0.5052886E+02  0.7816164E-02  0.1300439E+00
        -11   -1    0    0    0    0  0.00000000000E+00  0.00000000000E+00  0.45593999997E+02  0.45594000000E+02  0.51100000000E-03 0.  1.
         11   -1    0    0    0    0 -0.00000000000E+00 -0.00000000000E+00 -0.45593999997E+02  0.45594000000E+02  0.51100000000E-03 0. -1.
    9900012    2    1    2    0    0 -0.17026270607E+02 -0.10939345875E+02  0.35264751460E+02  0.50528857430E+02  0.29999992646E+02 0.  0.
         12    1    1    2    0    0  0.17026270607E+02  0.10939345875E+02 -0.35264751460E+02  0.40659142570E+02  0.00000000000E+00 0. -1.
         11    1    3    3    0    0 -0.10112643083E+02 -0.47586103244E+01  0.59491747812E+01  0.12661066431E+02  0.51100000000E-03 0. -1.
        -11    1    3    3    0    0  0.28726007707E+01 -0.84977104688E+00  0.26096870196E+02  0.26268242810E+02  0.51100000000E-03 0.  1.
        -12    1    3    3    0    0 -0.97862282946E+01 -0.53309645039E+01  0.32187064829E+01  0.11599548189E+02  0.00000000000E+00 0.  1.
</event>
<event>
 7    1  0.3041451E-011  0.5052886E+02  0.7816164E-02  0.1300439E+00
        -11   -1    0    0    0    0  0.00000000000E+00  0.00000000000E+00  0.45593999997E+02  0.45594000000E+02  0.51100000000E-03 0.  1.
         11   -1    0    0    0    0 -0.00000000000E+00 -0.00000000000E+00 -0.45593999997E+02  0.45594000000E+02  0.51100000000E-03 0. -1.
    9900012    2    1    2    0    0  0.11174044450E+02  0.20191670822E+01  0.39041384207E+02  0.50528856061E+02  0.29999988482E+02 0.  0.
         12    1    1    2    0    0 -0.11174044450E+02 -0.20191670822E+01 -0.39041384207E+02  0.40659143939E+02  0.00000000000E+00 0. -1.
         11    1    3    3    0    0 -0.88701829454E+01  0.22062397493E+01  0.88238394987E+01  0.12704636283E+02  0.51100000000E-03 0. -1.
        -11    1    3    3    0    0  0.10528963125E+02 -0.41298927708E+01  0.98391309215E+01  0.14990783046E+02  0.51100000000E-03 0.  1.
        -12    1    3    3    0    0  0.95152642704E+01  0.39428201037E+01  0.20378413787E+02  0.22833436732E+02  0.00000000000E+00 0.  1.
</event>
<event>
 7    1  0.3041451E-011  0.5052886E+02  0.7816164E-02  0.1300439E+00
        -11   -1    0    0    0    0  0.00000000000E+00  0.00000000000E+00  0.45593999997E+02  0.45594000000E+02  0.51100000000E-03 0. -1.
         11   -1    0    0    0    0 -0.00000000000E+00 -0.00000000000E+00 -0.45593999997E+02  0.45594000000E+02  0.51100000000E-03 0.  1.
    9900012    2    1    2    0    0 -0.22144894335E+02  0.33030804189E+02  0.84696529086E+01  0.50528863377E+02  0.30000010722E+02 0.  0.
         12    1    1    2    0    0  0.22144894335E+02 -0.33030804189E+02 -0.84696529086E+01  0.40659136623E+02  0.00000000000E+00 0. -1.
         11    1    3    3    0    0 -0.10259073989E+02  0.27879568148E+02  0.14329997079E+02  0.32982840020E+02  0.51100000000E-03 0. -1.
        -11    1    3    3    0    0 -0.66356138742E+01  0.56599555942E+01 -0.80178584335E+01  0.11847047013E+02  0.51100000000E-03 0.  1.
         12    1    3    3    0    0 -0.52502064715E+01 -0.50871955267E+00  0.21575142634E+01  0.56989763444E+01  0.00000000000E+00 0. -1.
</event>
<event>
 7    1  0.3041451E-011  0.5052885E+02  0.7816164E-02  0.1300439E+00
        -11   -1    0    0    0    0  0.00000000000E+00  0.00000000000E+00  0.45593999997E+02  0.45594000000E+02  0.51100000000E-03 0.  1.
         11   -1    0    0    0    0 -0.00000000000E+00 -0.00000000000E+00 -0.45593999997E+02  0.45594000000E+02  0.51100000000E-03 0. -1.
    9900012    2    1    2    0    0 -0.41410227627E+01 -0.40252519718E+02 -0.39690234468E+01  0.50528848997E+02  0.29999967012E+02 0.  0.
         12    1    1    2    0    0  0.41410227627E+01  0.40252519718E+02  0.39690234468E+01  0.40659151003E+02  0.00000000000E+00 0. -1.
         11    1    3    3    0    0 -0.95694298576E+01 -0.99829954209E+01 -0.97483031972E+01  0.16919326253E+02  0.51100000000E-03 0. -1.
        -11    1    3    3    0    0  0.71858794550E+01 -0.88645249054E+01  0.38621032526E+01  0.12047095382E+02  0.51100000000E-03 0.  1.
         12    1    3    3    0    0 -0.17574723600E+01 -0.21404999391E+02  0.19171764978E+01  0.21562427363E+02  0.00000000000E+00 0. -1.
</event>
<event>
 7    1  0.3041451E-011  0.5052886E+02  0.7816164E-02  0.1300439E+00
        -11   -1    0    0    0    0  0.00000000000E+00  0.00000000000E+00  0.45593999997E+02  0.45594000000E+02  0.51100000000E-03 0.  1.
         11   -1    0    0    0    0 -0.00000000000E+00 -0.00000000000E+00 -0.45593999997E+02  0.45594000000E+02  0.51100000000E-03 0. -1.
    9900012    2    1    2    0    0  0.56675858152E+01  0.21427520326E+02  0.34086731247E+02  0.50528863223E+02  0.30000010254E+02 0.  0.
         12    1    1    2    0    0 -0.56675858152E+01 -0.21427520326E+02 -0.34086731247E+02  0.40659136777E+02  0.00000000000E+00 0. -1.
         11    1    3    3    0    0  0.24242082690E+01  0.37546138417E+01 -0.50447681804E+01  0.67397030414E+01  0.51100000000E-03 0. -1.
        -11    1    3    3    0    0  0.16287784501E-01  0.11195120638E+02  0.30700576889E+02  0.32678072357E+02  0.51100000000E-03 0.  1.
         12    1    3    3    0    0  0.32270897617E+01  0.64777858466E+01  0.84309225379E+01  0.11111087825E+02  0.00000000000E+00 0. -1.
</event>
<event>
 7    1  0.3041451E-011  0.5052886E+02  0.7816164E-02  0.1300439E+00
        -11   -1    0    0    0    0  0.00000000000E+00  0.00000000000E+00  0.45593999997E+02  0.45594000000E+02  0.51100000000E-03 0.  1.
         11   -1    0    0    0    0 -0.00000000000E+00 -0.00000000000E+00 -0.45593999997E+02  0.45594000000E+02  0.51100000000E-03 0. -1.
    9900012    2    1    2    0    0 -0.24159205099E+02 -0.24555257215E+02  0.21599488807E+02  0.50528858781E+02  0.29999996751E+02 0.  0.
         12    1    1    2    0    0  0.24159205099E+02  0.24555257215E+02 -0.21599488807E+02  0.40659141219E+02  0.00000000000E+00 0. -1.
         11    1    3    3    0    0 -0.18632527356E+01  0.71620127398E+00  0.72714926836E+01  0.75405080154E+01  0.51100000000E-03 0. -1.
        -11    1    3    3    0    0 -0.24935149960E+02 -0.23526577832E+02  0.17515305016E+02  0.38497369755E+02  0.51100000000E-03 0.  1.
        -12    1    3    3    0    0  0.26391975957E+01 -0.17448806573E+01 -0.31873088931E+01  0.44909810106E+01  0.00000000000E+00 0.  1.
</event>
<event>
 7    1  0.3041451E-011  0.5052885E+02  0.7816164E-02  0.1300439E+00
        -11   -1    0    0    0    0  0.00000000000E+00  0.00000000000E+00  0.45593999997E+02  0.45594000000E+02  0.51100000000E-03 0.  1.
         11   -1    0    0    0    0 -0.00000000000E+00 -0.00000000000E+00 -0.45593999997E+02  0.45594000000E+02  0.51100000000E-03 0. -1.
    9900012    2    1    2    0    0 -0.30789409121E+02  0.25811572841E+02  0.62402889242E+01  0.50528853275E+02  0.29999980014E+02 0.  0.
         12    1    1    2    0    0  0.30789409121E+02 -0.25811572841E+02 -0.62402889242E+01  0.40659146725E+02  0.00000000000E+00 0. -1.
         11    1    3    3    0    0 -0.39284450847E+01 -0.57933063388E+01 -0.15173419268E+01  0.71622207382E+01  0.51100000000E-03 0. -1.
        -11    1    3    3    0    0 -0.19235308417E+02  0.15370922513E+02  0.60146468578E+01  0.25346367114E+02  0.51100000000E-03 0.  1.
         12    1    3    3    0    0 -0.76256556195E+01  0.16233956667E+02  0.17429839933E+01  0.18020265422E+02  0.00000000000E+00 0. -1.
</event>
<event>
 7    1  0.3041451E-011  0.5052886E+02  0.7816164E-02  0.1300439E+00
        -11   -1    0    0    0    0  0.00000000000E+00  0.00000000000E+00  0.45593999997E+02  0.45594000000E+02  0.51100000000E-03 0. -1.
         11   -1    0    0    0    0 -0.00000000000E+00 -0.00000000000E+00 -0.45593999997E+02  0.45594000000E+02  0.51100000000E-03 0.  1.
    9900012    2    1    2    0    0 -0.24912034684E+02 -0.20289682911E+02 -0.24917558420E+02  0.50528862990E+02  0.30000009545E+02 0.  0.
         12    1    1    2    0    0  0.24912034684E+02  0.20289682911E+02  0.24917558420E+02  0.40659137010E+02  0.00000000000E+00 0. -1.
         11    1    3    3    0    0 -0.38686739430E+01 -0.14293004977E+02 -0.21217865068E+02  0.25873817415E+02  0.51100000000E-03 0. -1.
        -11    1    3    3    0    0 -0.14810316860E+02 -0.69831685214E+01 -0.66698196555E+01  0.17680402218E+02  0.51100000000E-03 0.  1.
         12    1    3    3    0    0 -0.62330438816E+01  0.98649058726E+00  0.29701263028E+01  0.69746433574E+01  0.00000000000E+00 0. -1.
</event>
<event>
 7    1  0.3041451E-011  0.5052883E+02  0.7816164E-02  0.1300439E+00
        -11   -1    0    0    0    0  0.00000000000E+00  0.00000000000E+00  0.45593999997E+02  0.45594000000E+02  0.51100000000E-03 0. -1.
         11   -1    0    0    0    0 -0.00000000000E+00 -0.00000000000E+00 -0.45593999997E+02  0.45594000000E+02  0.51100000000E-03 0.  1.
    9900012    2    1    2    0    0  0.33654871305E+02 -0.67068259361E+01 -0.21806789167E+02  0.50528832147E+02  0.29999915794E+02 0.  0.
         12    1    1    2    0    0 -0.33654871305E+02  0.67068259361E+01  0.21806789167E+02  0.40659167853E+02  0.00000000000E+00 0. -1.
         11    1    3    3    0    0  0.20217645475E+01  0.26286219006E+01  0.15322480381E+01  0.36530766887E+01  0.51100000000E-03 0. -1.
        -11    1    3    3    0    0  0.74852394455E+01 -0.81351208713E+01 -0.19471342003E+02  0.22390671290E+02  0.51100000000E-03 0.  1.
        -12    1    3    3    0    0  0.24147867312E+02 -0.12003269654E+01 -0.38676952018E+01  0.24485084168E+02  0.00000000000E+00 0.  1.
</event>
<event>
 7    1  0.3041451E-011  0.5052886E+02  0.7816164E-02  0.1300439E+00
        -11   -1    0    0    0    0  0.00000000000E+00  0.00000000000E+00  0.45593999997E+02  0.45594000000E+02  0.51100000000E-03 0.  1.
         11   -1    0    0    0    0 -0.00000000000E+00 -0.00000000000E+00 -0.45593999997E+02  0.45594000000E+02  0.51100000000E-03 0. -1.
    9900012    2    1    2    0    0  0.33996389551E+01 -0.12517670175E+02  0.38534611145E+02  0.50528857514E+02  0.29999992898E+02 0.  0.
         12    1    1    2    0    0 -0.33996389551E+01  0.12517670175E+02 -0.38534611145E+02  0.40659142486E+02  0.00000000000E+00 0. -1.
         11    1    3    3    0    0  0.77460699651E+01 -0.38063115793E+01  0.27598505997E+02  0.28916554796E+02  0.51100000000E-03 0.  1.
        -11    1    3    3    0    0  0.25241284524E+01 -0.10770373312E+02  0.43891163410E+01  0.11901113740E+02  0.51100000000E-03 0. -1.
         12    1    3    3    0    0 -0.68705594624E+01  0.20590147162E+01  0.65469888070E+01  0.97111889781E+01  0.00000000000E+00 0. -1.
</event>
<event>
 7    1  0.3041451E-011  0.5052886E+02  0.7816164E-02  0.1300439E+00
        -11   -1    0    0    0    0  0.00000000000E+00  0.00000000000E+00  0.45593999997E+02  0.45594000000E+02  0.51100000000E-03 0.  1.
         11   -1    0    0    0    0 -0.00000000000E+00 -0.00000000000E+00 -0.45593999997E+02  0.45594000000E+02  0.51100000000E-03 0. -1.
    9900012    2    1    2    0    0  0.13754916654E+02 -0.18527427071E+02  0.33476890167E+02  0.50528862512E+02  0.30000008092E+02 0.  0.
         12    1    1    2    0    0 -0.13754916654E+02  0.18527427071E+02 -0.33476890167E+02  0.40659137488E+02  0.00000000000E+00 0. -1.
         11    1    3    3    0    0 -0.91321576681E+00 -0.56417761395E+01  0.27689092036E+02  0.28272768154E+02  0.51100000000E-03 0. -1.
        -11    1    3    3    0    0  0.12473788129E+02 -0.14222305233E+02  0.52256856296E+01  0.19625930475E+02  0.51100000000E-03 0.  1.
        -12    1    3    3    0    0  0.21943442911E+01  0.13366543020E+01  0.56211250129E+00  0.26301638837E+01  0.00000000000E+00 0.  1.
</event>
<event>
 7    1  0.3041451E-011  0.5052887E+02  0.7816164E-02  0.1300439E+00
        -11   -1    0    0    0    0  0.00000000000E+00  0.00000000000E+00  0.45593999997E+02  0.45594000000E+02  0.51100000000E-03 0.  1.
         11   -1    0    0    0    0 -0.00000000000E+00 -0.00000000000E+00 -0.45593999997E+02  0.45594000000E+02  0.51100000000E-03 0. -1.
    9900012    2    1    2    0    0  0.20851270225E+02  0.16734967796E+02  0.30632179232E+02  0.50528867919E+02  0.30000024525E+02 0.  0.
         12    1    1    2    0    0 -0.20851270225E+02 -0.16734967796E+02 -0.30632179232E+02  0.40659132081E+02  0.00000000000E+00 0. -1.
         11    1    3    3    0    0  0.15940361545E+01 -0.38632455787E+00 -0.49945812154E+01  0.52569991159E+01  0.51100000000E-03 0. -1.
        -11    1    3    3    0    0  0.60080459895E+01  0.41170802735E+01  0.19006948997E+02  0.20354632814E+02  0.51100000000E-03 0.  1.
        -12    1    3    3    0    0  0.13249188081E+02  0.13004212081E+02  0.16619811451E+02  0.24917235988E+02  0.00000000000E+00 0.  1.
</event>
<event>
 7    1  0.3041451E-011  0.5052885E+02  0.7816164E-02  0.1300439E+00
        -11   -1    0    0    0    0  0.00000000000E+00  0.00000000000E+00  0.45593999997E+02  0.45594000000E+02  0.51100000000E-03 0.  1.
         11   -1    0    0    0    0 -0.00000000000E+00 -0.00000000000E+00 -0.45593999997E+02  0.45594000000E+02  0.51100000000E-03 0. -1.
    9900012    2    1    2    0    0  0.10983479956E+02 -0.13246882453E+01  0.39125118944E+02  0.50528848960E+02  0.29999966900E+02 0.  0.
         12    1    1    2    0    0 -0.10983479956E+02  0.13246882453E+01 -0.39125118944E+02  0.40659151040E+02  0.00000000000E+00 0. -1.
         11    1    3    3    0    0 -0.67129447098E+01 -0.48424202190E+01  0.62089411538E+01  0.10347154718E+02  0.51100000000E-03 0. -1.
        -11    1    3    3    0    0  0.16205306996E+02  0.40317065541E+01  0.34257706078E+02  0.38111114633E+02  0.51100000000E-03 0.  1.
         12    1    3    3    0    0  0.14911176693E+01 -0.51397458043E+00 -0.13415282873E+01  0.20705796093E+01  0.00000000000E+00 0. -1.
</event>
<event>
 7    1  0.3041451E-011  0.5052886E+02  0.7816164E-02  0.1300439E+00
        -11   -1    0    0    0    0  0.00000000000E+00  0.00000000000E+00  0.45593999997E+02  0.45594000000E+02  0.51100000000E-03 0.  1.
         11   -1    0    0    0    0 -0.00000000000E+00 -0.00000000000E+00 -0.45593999997E+02  0.45594000000E+02  0.51100000000E-03 0. -1.
    9900012    2    1    2    0    0 -0.56717038530E+01 -0.48543137796E+01  0.39967903130E+02  0.50528857516E+02  0.29999992906E+02 0.  0.
         12    1    1    2    0    0  0.56717038530E+01  0.48543137796E+01 -0.39967903130E+02  0.40659142484E+02  0.00000000000E+00 0. -1.
         11    1    3    3    0    0  0.38331209866E+01 -0.43912061090E+01  0.65590831825E+01  0.87747980059E+01  0.51100000000E-03 0. -1.
        -11    1    3    3    0    0 -0.62616326991E+01  0.53478825461E+01  0.34084484151E+02  0.35065081661E+02  0.51100000000E-03 0.  1.
        -12    1    3    3    0    0 -0.32431921405E+01 -0.58109902167E+01 -0.67566420271E+00  0.66889778497E+01  0.00000000000E+00 0.  1.
</event>
<event>
 7    1  0.3041451E-011  0.5052886E+02  0.7816164E-02  0.1300439E+00
        -11   -1    0    0    0    0  0.00000000000E+00  0.00000000000E+00  0.45593999997E+02  0.45594000000E+02  0.51100000000E-03 0. -1.
         11   -1    0    0    0    0 -0.00000000000E+00 -0.00000000000E+00 -0.45593999997E+02  0.45594000000E+02  0.51100000000E-03 0.  1.
    9900012    2    1    2    0    0 -0.52231331574E+01 -0.13144487862E+02 -0.38119639143E+02  0.50528861181E+02  0.30000004046E+02 0.  0.
         12    1    1    2    0    0  0.52231331574E+01  0.13144487862E+02  0.38119639143E+02  0.40659138819E+02  0.00000000000E+00 0. -1.
         11    1    3    3    0    0 -0.10657134860E+02  0.40451872580E+01 -0.15228428726E+02  0.19022174037E+02  0.51100000000E-03 0. -1.
        -11    1    3    3    0    0 -0.25981310508E+01 -0.11254949811E+02 -0.13856735928E+02  0.18039770261E+02  0.51100000000E-03 0.  1.
         12    1    3    3    0    0  0.80321327536E+01 -0.59347253091E+01 -0.90344744885E+01  0.13466916884E+02  0.00000000000E+00 0. -1.
</event>
<event>
 7    1  0.3041451E-011  0.5052885E+02  0.7816164E-02  0.1300439E+00
        -11   -1    0    0    0    0  0.00000000000E+00  0.00000000000E+00  0.45593999997E+02  0.45594000000E+02  0.51100000000E-03 0.  1.
         11   -1    0    0    0    0 -0.00000000000E+00 -0.00000000000E+00 -0.45593999997E+02  0.45594000000E+02  0.51100000000E-03 0. -1.
    9900012    2    1    2    0    0 -0.18051541915E+02  0.32948851422E+02  0.15546100301E+02  0.50528853303E+02  0.29999980101E+02 0.  0.
         12    1    1    2    0    0  0.18051541915E+02 -0.32948851422E+02 -0.15546100301E+02  0.40659146697E+02  0.00000000000E+00 0. -1.
         11    1    3    3    0    0  0.42524672632E+01  0.25713284761E+01  0.71341093135E+01  0.86942926058E+01  0.51100000000E-03 0. -1.
        -11    1    3    3    0    0 -0.17149432475E+02  0.30924274434E+02  0.93278283345E+01  0.36570782945E+02  0.51100000000E-03 0.  1.
         12    1    3    3    0    0 -0.51545767037E+01 -0.54675148869E+00 -0.91583734676E+00  0.52637777527E+01  0.00000000000E+00 0. -1.
</event>
<event>
 7    1  0.3041451E-011  0.5052886E+02  0.7816164E-02  0.1300439E+00
        -11   -1    0    0    0    0  0.00000000000E+00  0.00000000000E+00  0.45593999997E+02  0.45594000000E+02  0.51100000000E-03 0.  1.
         11   -1    0    0    0    0 -0.00000000000E+00 -0.00000000000E+00 -0.45593999997E+02  0.45594000000E+02  0.51100000000E-03 0. -1.
    9900012    2    1    2    0    0 -0.79084334171E+01 -0.39328171862E+02  0.66270219022E+01  0.50528857850E+02  0.29999993920E+02 0.  0.
         12    1    1    2    0    0  0.79084334171E+01  0.39328171862E+02 -0.66270219022E+01  0.40659142150E+02  0.00000000000E+00 0. -1.
         11    1    3    3    0    0 -0.16263346320E+02 -0.24499854695E+02  0.62701749784E+01  0.30067497537E+02  0.51100000000E-03 0.  1.
        -11    1    3    3    0    0  0.10976169672E+02 -0.13534564203E+02  0.10489218656E+01  0.17457404337E+02  0.51100000000E-03 0. -1.
         12    1    3    3    0    0 -0.26212567693E+01 -0.12937529633E+01 -0.69207494181E+00  0.30039559760E+01  0.00000000000E+00 0. -1.
</event>
<event>
 7    1  0.3041451E-011  0.5052886E+02  0.7816164E-02  0.1300439E+00
        -11   -1    0    0    0    0  0.00000000000E+00  0.00000000000E+00  0.45593999997E+02  0.45594000000E+02  0.51100000000E-03 0. -1.
         11   -1    0    0    0    0 -0.00000000000E+00 -0.00000000000E+00 -0.45593999997E+02  0.45594000000E+02  0.51100000000E-03 0.  1.
    9900012    2    1    2    0    0 -0.13434462323E+02  0.38042929357E+02  0.50414611158E+01  0.50528861026E+02  0.30000003574E+02 0.  0.
         12    1    1    2    0    0  0.13434462323E+02 -0.38042929357E+02 -0.50414611158E+01  0.40659138974E+02  0.00000000000E+00 0. -1.
         11    1    3    3    0    0 -0.26238209380E+01  0.58397016597E+01 -0.50834479466E+01  0.81748391468E+01  0.51100000000E-03 0. -1.
        -11    1    3    3    0    0  0.70258025293E+01  0.65184963098E+01  0.44748262230E+01  0.10577181350E+02  0.51100000000E-03 0.  1.
        -12    1    3    3    0    0 -0.17836443914E+02  0.25684731387E+02  0.56500828394E+01  0.31776840529E+02  0.00000000000E+00 0.  1.
</event>
<event>
 7    1  0.3041451E-011  0.5052892E+02  0.7816164E-02  0.1300439E+00
        -11   -1    0    0    0    0  0.00000000000E+00  0.00000000000E+00  0.45593999997E+02  0.45594000000E+02  0.51100000000E-03 0. -1.
         11   -1    0    0    0    0 -0.00000000000E+00 -0.00000000000E+00 -0.45593999997E+02  0.45594000000E+02  0.51100000000E-03 0.  1.
    9900012    2    1    2    0    0  0.14409338027E+02 -0.36371673716E+02 -0.11073968036E+02  0.50528924269E+02  0.30000195806E+02 0.  0.
         12    1    1    2    0    0 -0.14409338027E+02  0.36371673716E+02  0.11073968036E+02  0.40659075731E+02  0.00000000000E+00 0. -1.
         11    1    3    3    0    0  0.42725766729E+01 -0.21728295387E+01 -0.12128368165E+02  0.13041219814E+02  0.51100000000E-03 0. -1.
        -11    1    3    3    0    0  0.85760910693E+01 -0.14195685131E+02 -0.34123977046E+01  0.16932550685E+02  0.51100000000E-03 0.  1.
         12    1    3    3    0    0  0.15606702844E+01 -0.20003159047E+02  0.44667978338E+01  0.20555153769E+02  0.00000000000E+00 0. -1.
</event>
<event>
 7    1  0.3041451E-011  0.5052887E+02  0.7816164E-02  0.1300439E+00
        -11   -1    0    0    0    0  0.00000000000E+00  0.00000000000E+00  0.45593999997E+02  0.45594000000E+02  0.51100000000E-03 0.  1.
         11   -1    0    0    0    0 -0.00000000000E+00 -0.00000000000E+00 -0.45593999997E+02  0.45594000000E+02  0.51100000000E-03 0. -1.
    9900012    2    1    2    0    0  0.29568767909E+02 -0.27295271886E+02  0.58155983695E+01  0.50528867109E+02  0.30000022066E+02 0.  0.
         12    1    1    2    0    0 -0.29568767909E+02  0.27295271886E+02 -0.58155983695E+01  0.40659132891E+02  0.00000000000E+00 0. -1.
         11    1    3    3    0    0  0.46063209085E+01  0.14510486971E+01 -0.49596384225E+01  0.69225535878E+01  0.51100000000E-03 0. -1.
        -11    1    3    3    0    0  0.25576418547E+02 -0.30740877768E+02  0.93171677911E+01  0.41060496436E+02  0.51100000000E-03 0.  1.
        -12    1    3    3    0    0 -0.61397154644E+00  0.19945571848E+01  0.14580690009E+01  0.25458170858E+01  0.00000000000E+00 0.  1.
</event>
<event>
 7    1  0.3041451E-011  0.5052886E+02  0.7816164E-02  0.1300439E+00
        -11   -1    0    0    0    0  0.00000000000E+00  0.00000000000E+00  0.45593999997E+02  0.45594000000E+02  0.51100000000E-03 0. -1.
         11   -1    0    0    0    0 -0.00000000000E+00 -0.00000000000E+00 -0.45593999997E+02  0.45594000000E+02  0.51100000000E-03 0.  1.
    9900012    2    1    2    0    0 -0.75372292069E+01  0.28660823577E+02 -0.27837259005E+02  0.50528860546E+02  0.30000002115E+02 0.  0.
         12    1    1    2    0    0  0.75372292069E+01 -0.28660823577E+02  0.27837259005E+02  0.40659139454E+02  0.00000000000E+00 0. -1.
         11    1    3    3    0    0 -0.10094577561E+02  0.19330640622E+02 -0.13361273079E+01  0.21848556004E+02  0.51100000000E-03 0. -1.
        -11    1    3    3    0    0  0.35616615843E+01  0.84359830514E+01 -0.19394388554E+02  0.21447460245E+02  0.51100000000E-03 0.  1.
         12    1    3    3    0    0 -0.10043132297E+01  0.89419990371E+00 -0.71067431430E+01  0.72328442975E+01  0.00000000000E+00 0. -1.
</event>
<event>
 7    1  0.3041451E-011  0.5052886E+02  0.7816164E-02  0.1300439E+00
        -11   -1    0    0    0    0  0.00000000000E+00  0.00000000000E+00  0.45593999997E+02  0.45594000000E+02  0.51100000000E-03 0.  1.
         11   -1    0    0    0    0 -0.00000000000E+00 -0.00000000000E+00 -0.45593999997E+02  0.45594000000E+02  0.51100000000E-03 0. -1.
    9900012    2    1    2    0    0 -0.12667020362E+02 -0.14977219035E+02  0.35614540467E+02  0.50528856041E+02  0.29999988421E+02 0.  0.
         12    1    1    2    0    0  0.12667020362E+02  0.14977219035E+02 -0.35614540467E+02  0.40659143959E+02  0.00000000000E+00 0. -1.
         11    1    3    3    0    0  0.79931659531E+01 -0.59856887690E+00  0.12037727649E+02  0.14462222301E+02  0.51100000000E-03 0. -1.
        -11    1    3    3    0    0 -0.88491134977E+01 -0.27896810005E+01  0.14441681052E+02  0.17165409452E+02  0.51100000000E-03 0.  1.
         12    1    3    3    0    0 -0.11811072817E+02 -0.11588969157E+02  0.91351317655E+01  0.18901224288E+02  0.00000000000E+00 0. -1.
</event>
<event>
 7    1  0.3041451E-011  0.5052887E+02  0.7816164E-02  0.1300439E+00
        -11   -1    0    0    0    0  0.00000000000E+00  0.00000000000E+00  0.45593999997E+02  0.45594000000E+02  0.51100000000E-03 0.  1.
         11   -1    0    0    0    0 -0.00000000000E+00 -0.00000000000E+00 -0.45593999997E+02  0.45594000000E+02  0.51100000000E-03 0. -1.
    9900012    2    1    2    0    0 -0.21697483265E+02  0.55081991867E+01  0.33941774817E+02  0.50528866757E+02  0.30000020994E+02 0.  0.
         12    1    1    2    0    0  0.21697483265E+02 -0.55081991867E+01 -0.33941774817E+02  0.40659133243E+02  0.00000000000E+00 0. -1.
         11    1    3    3    0    0 -0.46137618598E+01  0.78778569120E+01  0.50121821348E+00  0.91432296255E+01  0.51100000000E-03 0. -1.
        -11    1    3    3    0    0 -0.80485835107E+01 -0.92689679974E+00  0.30821533996E+02  0.31868570604E+02  0.51100000000E-03 0.  1.
         12    1    3    3    0    0 -0.90351378948E+01 -0.14427609256E+01  0.26190226075E+01  0.95170665273E+01  0.00000000000E+00 0. -1.
</event>
<event>
 7    1  0.3041451E-011  0.5052886E+02  0.7816164E-02  0.1300439E+00
        -11   -1    0    0    0    0  0.00000000000E+00  0.00000000000E+00  0.45593999997E+02  0.45594000000E+02  0.51100000000E-03 0.  1.
         11   -1    0    0    0    0 -0.00000000000E+00 -0.00000000000E+00 -0.45593999997E+02  0.45594000000E+02  0.51100000000E-03 0. -1.
    9900012    2    1    2    0    0 -0.99092921721E+01 -0.45020320938E+01  0.39175284659E+02  0.50528864588E+02  0.30000014402E+02 0.  0.
         12    1    1    2    0    0  0.99092921721E+01  0.45020320938E+01 -0.39175284659E+02  0.40659135412E+02  0.00000000000E+00 0. -1.
         11    1    3    3    0    0 -0.92443353018E+01  0.79049039036E+01  0.18664779307E+02  0.22278223173E+02  0.51100000000E-03 0. -1.
        -11    1    3    3    0    0  0.59791985264E+01 -0.90642162752E+01  0.16630895659E+02  0.19861961695E+02  0.51100000000E-03 0.  1.
        -12    1    3    3    0    0 -0.66441553966E+01 -0.33427197222E+01  0.38796096931E+01  0.83886797201E+01  0.00000000000E+00 0.  1.
</event>
<event>
 7    1  0.3041451E-011  0.5052886E+02  0.7816164E-02  0.1300439E+00
        -11   -1    0    0    0    0  0.00000000000E+00  0.00000000000E+00  0.45593999997E+02  0.45594000000E+02  0.51100000000E-03 0.  1.
         11   -1    0    0    0    0 -0.00000000000E+00 -0.00000000000E+00 -0.45593999997E+02  0.45594000000E+02  0.51100000000E-03 0. -1.
    9900012    2    1    2    0    0  0.39050265464E+02 -0.11295984871E+02  0.80181940239E+00  0.50528863002E+02  0.30000009582E+02 0.  0.
         12    1    1    2    0    0 -0.39050265464E+02  0.11295984871E+02 -0.80181940239E+00  0.40659136998E+02  0.00000000000E+00 0. -1.
         11    1    3    3    0    0  0.17217840652E+02 -0.16440649711E+02  0.62255453659E+00  0.23814629412E+02  0.51100000000E-03 0. -1.
        -11    1    3    3    0    0  0.23976658367E+02  0.51935704348E+01 -0.21428513087E+00  0.24533634844E+02  0.51100000000E-03 0.  1.
        -12    1    3    3    0    0 -0.21442335539E+01 -0.48905594929E-01  0.39354999667E+00  0.21805987460E+01  0.00000000000E+00 0.  1.
</event>
<event>
 7    1  0.3041451E-011  0.5052886E+02  0.7816164E-02  0.1300439E+00
        -11   -1    0    0    0    0  0.00000000000E+00  0.00000000000E+00  0.45593999997E+02  0.45594000000E+02  0.51100000000E-03 0. -1.
         11   -1    0    0    0    0 -0.00000000000E+00 -0.00000000000E+00 -0.45593999997E+02  0.45594000000E+02  0.51100000000E-03 0.  1.
    9900012    2    1    2    0    0 -0.38488444748E+02  0.10968805071E+00 -0.13106993281E+02  0.50528859779E+02  0.29999999786E+02 0.  0.
         12    1    1    2    0    0  0.38488444748E+02 -0.10968805071E+00  0.13106993281E+02  0.40659140221E+02  0.00000000000E+00 0. -1.
         11    1    3    3    0    0 -0.40482160584E+01  0.34897146093E+00  0.18443056282E+00  0.40674130881E+01  0.51100000000E-03 0. -1.
        -11    1    3    3    0    0 -0.34911225562E+02 -0.29369988820E+01 -0.22734428353E+01  0.35108235149E+02  0.51100000000E-03 0.  1.
        -12    1    3    3    0    0  0.47099687223E+00  0.26977154717E+01 -0.11017981009E+02  0.11353211543E+02  0.00000000000E+00 0.  1.
</event>
<event>
 7    1  0.3041451E-011  0.5052886E+02  0.7816164E-02  0.1300439E+00
        -11   -1    0    0    0    0  0.00000000000E+00  0.00000000000E+00  0.45593999997E+02  0.45594000000E+02  0.51100000000E-03 0. -1.
         11   -1    0    0    0    0 -0.00000000000E+00 -0.00000000000E+00 -0.45593999997E+02  0.45594000000E+02  0.51100000000E-03 0.  1.
    9900012    2    1    2    0    0 -0.19534328173E+02 -0.20408562753E+02 -0.29241521626E+02  0.50528855914E+02  0.29999988035E+02 0.  0.
         12    1    1    2    0    0  0.19534328173E+02  0.20408562753E+02  0.29241521626E+02  0.40659144086E+02  0.00000000000E+00 0. -1.
         11    1    3    3    0    0 -0.20581003524E+02 -0.12625777722E+02 -0.83310090598E+01  0.25541998382E+02  0.51100000000E-03 0. -1.
        -11    1    3    3    0    0 -0.54756951364E+00 -0.96576872499E+01 -0.20245198526E+02  0.22437442345E+02  0.51100000000E-03 0.  1.
         12    1    3    3    0    0  0.15942448650E+01  0.18749022184E+01 -0.66531404072E+00  0.25494151861E+01  0.00000000000E+00 0. -1.
</event>
<event>
 7    1  0.3041451E-011  0.5052886E+02  0.7816164E-02  0.1300439E+00
        -11   -1    0    0    0    0  0.00000000000E+00  0.00000000000E+00  0.45593999997E+02  0.45594000000E+02  0.51100000000E-03 0.  1.
         11   -1    0    0    0    0 -0.00000000000E+00 -0.00000000000E+00 -0.45593999997E+02  0.45594000000E+02  0.51100000000E-03 0. -1.
    9900012    2    1    2    0    0  0.11071462353E+01 -0.23399313239E+02  0.33232694212E+02  0.50528860837E+02  0.30000003001E+02 0.  0.
         12    1    1    2    0    0 -0.11071462353E+01  0.23399313239E+02 -0.33232694212E+02  0.40659139163E+02  0.00000000000E+00 0. -1.
         11    1    3    3    0    0 -0.38992188008E+01 -0.48990777332E+01  0.11779142887E+02  0.13339905446E+02  0.51100000000E-03 0.  1.
        -11    1    3    3    0    0  0.14293017578E+02 -0.13803614795E+02  0.12625393047E+02  0.23542104467E+02  0.51100000000E-03 0. -1.
        -12    1    3    3    0    0 -0.92866525423E+01 -0.46966207112E+01  0.88281582783E+01  0.13646850924E+02  0.00000000000E+00 0.  1.
</event>
<event>
 7    1  0.3041451E-011  0.5052885E+02  0.7816164E-02  0.1300439E+00
        -11   -1    0    0    0    0  0.00000000000E+00  0.00000000000E+00  0.45593999997E+02  0.45594000000E+02  0.51100000000E-03 0. -1.
         11   -1    0    0    0    0 -0.00000000000E+00 -0.00000000000E+00 -0.45593999997E+02  0.45594000000E+02  0.51100000000E-03 0.  1.
    9900012    2    1    2    0    0 -0.33410249387E+02  0.11831511550E+02 -0.19923275561E+02  0.50528851721E+02  0.29999975292E+02 0.  0.
         12    1    1    2    0    0  0.33410249387E+02 -0.11831511550E+02  0.19923275561E+02  0.40659148279E+02  0.00000000000E+00 0. -1.
         11    1    3    3    0    0 -0.27850324419E+02  0.88500479356E+01 -0.21191423187E+02  0.36097650002E+02  0.51100000000E-03 0. -1.
        -11    1    3    3    0    0  0.10507771605E+01 -0.42029274886E+01 -0.91309574694E+00  0.44274683759E+01  0.51100000000E-03 0.  1.
         12    1    3    3    0    0 -0.66107021286E+01  0.71843911026E+01  0.21812433731E+01  0.10003733343E+02  0.00000000000E+00 0. -1.
</event>
<event>
 7    1  0.3041451E-011  0.5052886E+02  0.7816164E-02  0.1300439E+00
        -11   -1    0    0    0    0  0.00000000000E+00  0.00000000000E+00  0.45593999997E+02  0.45594000000E+02  0.51100000000E-03 0.  1.
         11   -1    0    0    0    0 -0.00000000000E+00 -0.00000000000E+00 -0.45593999997E+02  0.45594000000E+02  0.51100000000E-03 0. -1.
    9900012    2    1    2    0    0  0.11277812098E+02 -0.38534927391E+02  0.64059263313E+01  0.50528861213E+02  0.30000004142E+02 0.  0.
         12    1    1    2    0    0 -0.11277812098E+02  0.38534927391E+02 -0.64059263313E+01  0.40659138787E+02  0.00000000000E+00 0. -1.
         11    1    3    3    0    0 -0.44069972030E+01 -0.22812084173E+02 -0.60835203630E+01  0.24017119497E+02  0.51100000000E-03 0. -1.
        -11    1    3    3    0    0  0.89570514306E+01 -0.13072875209E+02  0.65227151839E+01  0.17136938180E+02  0.51100000000E-03 0.  1.
         12    1    3    3    0    0  0.67277578703E+01 -0.26499680095E+01  0.59667315103E+01  0.93748035355E+01  0.00000000000E+00 0. -1.
</event>
<event>
 7    1  0.3041451E-011  0.5052886E+02  0.7816164E-02  0.1300439E+00
        -11   -1    0    0    0    0  0.00000000000E+00  0.00000000000E+00  0.45593999997E+02  0.45594000000E+02  0.51100000000E-03 0.  1.
         11   -1    0    0    0    0 -0.00000000000E+00 -0.00000000000E+00 -0.45593999997E+02  0.45594000000E+02  0.51100000000E-03 0. -1.
    9900012    2    1    2    0    0 -0.39628772035E+02 -0.89771033219E+01 -0.14619811587E+01  0.50528863930E+02  0.30000012403E+02 0.  0.
         12    1    1    2    0    0  0.39628772035E+02  0.89771033219E+01  0.14619811587E+01  0.40659136070E+02  0.00000000000E+00 0. -1.
         11    1    3    3    0    0 -0.18496995814E+01  0.40577171033E+01  0.11465142743E+00  0.44608969774E+01  0.51100000000E-03 0. -1.
        -11    1    3    3    0    0 -0.30973451323E+02 -0.16104132871E+02  0.60106637339E+01  0.35423521298E+02  0.51100000000E-03 0.  1.
        -12    1    3    3    0    0 -0.68056211304E+01  0.30693124454E+01 -0.75872963201E+01  0.10644445655E+02  0.00000000000E+00 0.  1.
</event>
<event>
 7    1  0.3041451E-011  0.5052887E+02  0.7816164E-02  0.1300439E+00
        -11   -1    0    0    0    0  0.00000000000E+00  0.00000000000E+00  0.45593999997E+02  0.45594000000E+02  0.51100000000E-03 0.  1.
         11   -1    0    0    0    0 -0.00000000000E+00 -0.00000000000E+00 -0.45593999997E+02  0.45594000000E+02  0.51100000000E-03 0. -1.
    9900012    2    1    2    0    0 -0.47993386577E+00  0.13874581009E+02  0.38215579852E+02  0.50528869683E+02  0.30000029890E+02 0.  0.
         12    1    1    2    0    0  0.47993386577E+00 -0.13874581009E+02 -0.38215579852E+02  0.40659130317E+02  0.00000000000E+00 0. -1.
         11    1    3    3    0    0 -0.88638406129E+00 -0.61612804638E+01  0.17380483717E+02  0.18461534827E+02  0.51100000000E-03 0. -1.
        -11    1    3    3    0    0  0.66253163463E+00  0.67270441266E+01  0.16876528169E+02  0.18179914030E+02  0.51100000000E-03 0.  1.
         12    1    3    3    0    0 -0.25608143911E+00  0.13308817346E+02  0.39585679652E+01  0.13887420826E+02  0.00000000000E+00 0. -1.
</event>
<event>
 7    1  0.3041451E-011  0.5052874E+02  0.7816164E-02  0.1300439E+00
        -11   -1    0    0    0    0  0.00000000000E+00  0.00000000000E+00  0.45593999997E+02  0.45594000000E+02  0.51100000000E-03 0.  1.
         11   -1    0    0    0    0 -0.00000000000E+00 -0.00000000000E+00 -0.45593999997E+02  0.45594000000E+02  0.51100000000E-03 0. -1.
    9900012    2    1    2    0    0  0.30628731966E+02 -0.58910616585E+01  0.26083544443E+02  0.50528743736E+02  0.29999647056E+02 0.  0.
         12    1    1    2    0    0 -0.30628731966E+02  0.58910616585E+01 -0.26083544443E+02  0.40659256264E+02  0.00000000000E+00 0. -1.
         11    1    3    3    0    0 -0.32280739924E+01  0.88302804194E+00  0.22571655037E+01  0.40367061567E+01  0.51100000000E-03 0. -1.
        -11    1    3    3    0    0  0.23950035982E+02  0.43303397760E+01  0.18905000321E+02  0.30818097013E+02  0.51100000000E-03 0.  1.
        -12    1    3    3    0    0  0.99067699761E+01 -0.11104429477E+02  0.49213786184E+01  0.15673940566E+02  0.00000000000E+00 0.  1.
</event>
<event>
 7    1  0.3041451E-011  0.5052884E+02  0.7816164E-02  0.1300439E+00
        -11   -1    0    0    0    0  0.00000000000E+00  0.00000000000E+00  0.45593999997E+02  0.45594000000E+02  0.51100000000E-03 0. -1.
         11   -1    0    0    0    0 -0.00000000000E+00 -0.00000000000E+00 -0.45593999997E+02  0.45594000000E+02  0.51100000000E-03 0.  1.
    9900012    2    1    2    0    0 -0.78134970404E+01 -0.36954266336E+01 -0.39729845937E+02  0.50528836554E+02  0.29999929188E+02 0.  0.
         12    1    1    2    0    0  0.78134970404E+01  0.36954266336E+01  0.39729845937E+02  0.40659163446E+02  0.00000000000E+00 0. -1.
         11    1    3    3    0    0 -0.56151169460E+01 -0.65690864414E+01 -0.13613376406E+02  0.16124715577E+02  0.51100000000E-03 0. -1.
        -11    1    3    3    0    0  0.82829420686E+01  0.62534196174E+01 -0.17797269389E+02  0.20602310166E+02  0.51100000000E-03 0.  1.
        -12    1    3    3    0    0 -0.10481322163E+02 -0.33797598095E+01 -0.83192001416E+01  0.13801810811E+02  0.00000000000E+00 0.  1.
</event>
<event>
 7    1  0.3041451E-011  0.5052889E+02  0.7816164E-02  0.1300439E+00
        -11   -1    0    0    0    0  0.00000000000E+00  0.00000000000E+00  0.45593999997E+02  0.45594000000E+02  0.51100000000E-03 0. -1.
         11   -1    0    0    0    0 -0.00000000000E+00 -0.00000000000E+00 -0.45593999997E+02  0.45594000000E+02  0.51100000000E-03 0.  1.
    9900012    2    1    2    0    0 -0.51624151754E+01  0.13759728801E+02 -0.37910194699E+02  0.50528886271E+02  0.30000080310E+02 0.  0.
         12    1    1    2    0    0  0.51624151754E+01 -0.13759728801E+02  0.37910194699E+02  0.40659113729E+02  0.00000000000E+00 0. -1.
         11    1    3    3    0    0 -0.16451244921E+01 -0.53737622312E+00  0.22023859512E+01  0.28010198033E+01  0.51100000000E-03 0. -1.
        -11    1    3    3    0    0 -0.68440844061E+01 -0.59343323613E+00 -0.26178903349E+02  0.27065266213E+02  0.51100000000E-03 0.  1.
        -12    1    3    3    0    0  0.33267937227E+01  0.14890538261E+02 -0.13933677301E+02  0.20662600255E+02  0.00000000000E+00 0.  1.
</event>
<event>
 7    1  0.3041451E-011  0.5052886E+02  0.7816164E-02  0.1300439E+00
        -11   -1    0    0    0    0  0.00000000000E+00  0.00000000000E+00  0.45593999997E+02  0.45594000000E+02  0.51100000000E-03 0.  1.
         11   -1    0    0    0    0 -0.00000000000E+00 -0.00000000000E+00 -0.45593999997E+02  0.45594000000E+02  0.51100000000E-03 0. -1.
    9900012    2    1    2    0    0 -0.25969798714E+02  0.15871257167E+02  0.26959941095E+02  0.50528859907E+02  0.30000000172E+02 0.  0.
         12    1    1    2    0    0  0.25969798714E+02 -0.15871257167E+02 -0.26959941095E+02  0.40659140093E+02  0.00000000000E+00 0. -1.
         11    1    3    3    0    0 -0.17964733031E+02  0.23975504275E+02  0.16176672970E+02  0.34047631147E+02  0.51100000000E-03 0. -1.
        -11    1    3    3    0    0 -0.42560919701E+01 -0.61064328820E+01  0.39273041866E+01  0.84158517000E+01  0.51100000000E-03 0.  1.
        -12    1    3    3    0    0 -0.37489737130E+01 -0.19978142264E+01  0.68559639385E+01  0.80653770594E+01  0.00000000000E+00 0.  1.
</event>
<event>
 7    1  0.3041451E-011  0.5052886E+02  0.7816164E-02  0.1300439E+00
        -11   -1    0    0    0    0  0.00000000000E+00  0.00000000000E+00  0.45593999997E+02  0.45594000000E+02  0.51100000000E-03 0. -1.
         11   -1    0    0    0    0 -0.00000000000E+00 -0.00000000000E+00 -0.45593999997E+02  0.45594000000E+02  0.51100000000E-03 0.  1.
    9900012    2    1    2    0    0  0.12932604714E+02  0.28980572775E+02 -0.25417306765E+02  0.50528863927E+02  0.30000012392E+02 0.  0.
         12    1    1    2    0    0 -0.12932604714E+02 -0.28980572775E+02  0.25417306765E+02  0.40659136073E+02  0.00000000000E+00 0. -1.
         11    1    3    3    0    0 -0.47393451242E+01 -0.30214510275E+01  0.22865149422E+00  0.56251969108E+01  0.51100000000E-03 0. -1.
        -11    1    3    3    0    0  0.12406685065E+02  0.18702749328E+02 -0.17353562452E+02  0.28370139174E+02  0.51100000000E-03 0.  1.
         12    1    3    3    0    0  0.52652647738E+01  0.13299274475E+02 -0.82923958066E+01  0.16533527842E+02  0.00000000000E+00 0. -1.
</event>
<event>
 7    1  0.3041451E-011  0.5052886E+02  0.7816164E-02  0.1300439E+00
        -11   -1    0    0    0    0  0.00000000000E+00  0.00000000000E+00  0.45593999997E+02  0.45594000000E+02  0.51100000000E-03 0.  1.
         11   -1    0    0    0    0 -0.00000000000E+00 -0.00000000000E+00 -0.45593999997E+02  0.45594000000E+02  0.51100000000E-03 0. -1.
    9900012    2    1    2    0    0 -0.18694192081E+02 -0.29628042160E+02  0.20636667445E+02  0.50528859047E+02  0.29999997559E+02 0.  0.
         12    1    1    2    0    0  0.18694192081E+02  0.29628042160E+02 -0.20636667445E+02  0.40659140953E+02  0.00000000000E+00 0. -1.
         11    1    3    3    0    0 -0.11966261046E+02 -0.23360288584E+02 -0.17216994229E+01  0.26303207700E+02  0.51100000000E-03 0. -1.
        -11    1    3    3    0    0 -0.46359880675E+01 -0.33091408340E+01  0.14127444449E+02  0.15232448435E+02  0.51100000000E-03 0.  1.
         12    1    3    3    0    0 -0.20919429682E+01 -0.29586127416E+01  0.82309224193E+01  0.89932029117E+01  0.00000000000E+00 0. -1.
</event>
<event>
 7    1  0.3041451E-011  0.5052886E+02  0.7816164E-02  0.1300439E+00
        -11   -1    0    0    0    0  0.00000000000E+00  0.00000000000E+00  0.45593999997E+02  0.45594000000E+02  0.51100000000E-03 0.  1.
         11   -1    0    0    0    0 -0.00000000000E+00 -0.00000000000E+00 -0.45593999997E+02  0.45594000000E+02  0.51100000000E-03 0. -1.
    9900012    2    1    2    0    0  0.19132443165E+02  0.35149114905E+02  0.71871651876E+01  0.50528855844E+02  0.29999987823E+02 0.  0.
         12    1    1    2    0    0 -0.19132443165E+02 -0.35149114905E+02 -0.71871651876E+01  0.40659144156E+02  0.00000000000E+00 0. -1.
         11    1    3    3    0    0  0.56994598676E+01  0.19201063139E+01  0.20271348810E+01  0.63466469199E+01  0.51100000000E-03 0. -1.
        -11    1    3    3    0    0  0.10112584057E+02  0.31240581274E+02 -0.50873748793E+01  0.33228296045E+02  0.51100000000E-03 0.  1.
        -12    1    3    3    0    0  0.33203992405E+01  0.19884273176E+01  0.10247405186E+02  0.10953912879E+02  0.00000000000E+00 0.  1.
</event>
<event>
 7    1  0.3041451E-011  0.5052886E+02  0.7816164E-02  0.1300439E+00
        -11   -1    0    0    0    0  0.00000000000E+00  0.00000000000E+00  0.45593999997E+02  0.45594000000E+02  0.51100000000E-03 0.  1.
         11   -1    0    0    0    0 -0.00000000000E+00 -0.00000000000E+00 -0.45593999997E+02  0.45594000000E+02  0.51100000000E-03 0. -1.
    9900012    2    1    2    0    0 -0.33725989588E+02  0.70315723605E+01  0.21593519429E+02  0.50528862468E+02  0.30000007956E+02 0.  0.
         12    1    1    2    0    0  0.33725989588E+02 -0.70315723605E+01 -0.21593519429E+02  0.40659137532E+02  0.00000000000E+00 0. -1.
         11    1    3    3    0    0  0.25152052030E+01  0.15830121487E+01  0.92896411100E+00  0.31137050690E+01  0.51100000000E-03 0. -1.
        -11    1    3    3    0    0 -0.33457302337E+02 -0.77748391667E+00  0.22531293185E+02  0.40344203224E+02  0.51100000000E-03 0.  1.
        -12    1    3    3    0    0 -0.27838924538E+01  0.62260441284E+01 -0.18667378663E+01  0.70709541750E+01  0.00000000000E+00 0.  1.
</event>
<event>
 7    1  0.3041451E-011  0.5052886E+02  0.7816164E-02  0.1300439E+00
        -11   -1    0    0    0    0  0.00000000000E+00  0.00000000000E+00  0.45593999997E+02  0.45594000000E+02  0.51100000000E-03 0.  1.
         11   -1    0    0    0    0 -0.00000000000E+00 -0.00000000000E+00 -0.45593999997E+02  0.45594000000E+02  0.51100000000E-03 0. -1.
    9900012    2    1    2    0    0 -0.37513156791E+01 -0.45349494506E+01  0.40230930353E+02  0.50528857204E+02  0.29999991957E+02 0.  0.
         12    1    1    2    0    0  0.37513156791E+01  0.45349494506E+01 -0.40230930353E+02  0.40659142796E+02  0.00000000000E+00 0. -1.
         11    1    3    3    0    0 -0.10750306216E+02 -0.81382565920E+01  0.92963736211E+01  0.16377511009E+02  0.51100000000E-03 0. -1.
        -11    1    3    3    0    0  0.94757135591E+01  0.43653270668E+00  0.26593589083E+02  0.28234707167E+02  0.51100000000E-03 0.  1.
         12    1    3    3    0    0 -0.24767230223E+01  0.31667744347E+01  0.43409676492E+01  0.59166390274E+01  0.00000000000E+00 0. -1.
</event>
<event>
 7    1  0.3041451E-011  0.5052887E+02  0.7816164E-02  0.1300439E+00
        -11   -1    0    0    0    0  0.00000000000E+00  0.00000000000E+00  0.45593999997E+02  0.45594000000E+02  0.51100000000E-03 0.  1.
         11   -1    0    0    0    0 -0.00000000000E+00 -0.00000000000E+00 -0.45593999997E+02  0.45594000000E+02  0.51100000000E-03 0. -1.
    9900012    2    1    2    0    0  0.27902200628E+02 -0.25870225324E+02  0.14330510550E+02  0.50528869527E+02  0.30000029414E+02 0.  0.
         12    1    1    2    0    0 -0.27902200628E+02  0.25870225324E+02 -0.14330510550E+02  0.40659130473E+02  0.00000000000E+00 0. -1.
         11    1    3    3    0    0  0.22302168078E+02 -0.76036612625E+01 -0.95563411650E+00  0.23582103435E+02  0.51100000000E-03 0. -1.
        -11    1    3    3    0    0  0.84507780421E+01 -0.83788042977E+01  0.81023752526E+01  0.14396822426E+02  0.51100000000E-03 0.  1.
         12    1    3    3    0    0 -0.28507454927E+01 -0.98877597642E+01  0.71837694140E+01  0.12549943666E+02  0.00000000000E+00 0. -1.
</event>
<event>
 7    1  0.3041451E-011  0.5052885E+02  0.7816164E-02  0.1300439E+00
        -11   -1    0    0    0    0  0.00000000000E+00  0.00000000000E+00  0.45593999997E+02  0.45594000000E+02  0.51100000000E-03 0.  1.
         11   -1    0    0    0    0 -0.00000000000E+00 -0.00000000000E+00 -0.45593999997E+02  0.45594000000E+02  0.51100000000E-03 0. -1.
    9900012    2    1    2    0    0  0.15079265509E+02  0.20823703799E+02  0.31498496921E+02  0.50528853471E+02  0.29999980610E+02 0.  0.
         12    1    1    2    0    0 -0.15079265509E+02 -0.20823703799E+02 -0.31498496921E+02  0.40659146529E+02  0.00000000000E+00 0. -1.
         11    1    3    3    0    0  0.33534102869E+00  0.97237209354E+00  0.81282645777E+01  0.81930852797E+01  0.51100000000E-03 0. -1.
        -11    1    3    3    0    0  0.16764682685E+02  0.12323188099E+02  0.36412722077E+01  0.21122841050E+02  0.51100000000E-03 0.  1.
        -12    1    3    3    0    0 -0.20207582045E+01  0.75281436065E+01  0.19728960135E+02  0.21212927141E+02  0.00000000000E+00 0.  1.
</event>
<event>
 7    1  0.3041451E-011  0.5052886E+02  0.7816164E-02  0.1300439E+00
        -11   -1    0    0    0    0  0.00000000000E+00  0.00000000000E+00  0.45593999997E+02  0.45594000000E+02  0.51100000000E-03 0.  1.
         11   -1    0    0    0    0 -0.00000000000E+00 -0.00000000000E+00 -0.45593999997E+02  0.45594000000E+02  0.51100000000E-03 0. -1.
    9900012    2    1    2    0    0  0.22209545458E+02  0.73113370012E+01  0.33263284375E+02  0.50528860245E+02  0.30000001202E+02 0.  0.
         12    1    1    2    0    0 -0.22209545458E+02 -0.73113370012E+01 -0.33263284375E+02  0.40659139755E+02  0.00000000000E+00 0. -1.
         11    1    3    3    0    0 -0.36466749593E+01 -0.44292553697E+01 -0.16243367921E+00  0.57395928732E+01  0.51100000000E-03 0. -1.
        -11    1    3    3    0    0  0.21419317847E+02  0.98500208674E+01  0.21428452918E+02  0.31858887031E+02  0.51100000000E-03 0.  1.
         12    1    3    3    0    0  0.44369025699E+01  0.18905715035E+01  0.11997265136E+02  0.12930380341E+02  0.00000000000E+00 0. -1.
</event>
<event>
 7    1  0.3041451E-011  0.5052886E+02  0.7816164E-02  0.1300439E+00
        -11   -1    0    0    0    0  0.00000000000E+00  0.00000000000E+00  0.45593999997E+02  0.45594000000E+02  0.51100000000E-03 0.  1.
         11   -1    0    0    0    0 -0.00000000000E+00 -0.00000000000E+00 -0.45593999997E+02  0.45594000000E+02  0.51100000000E-03 0. -1.
    9900012    2    1    2    0    0 -0.99371740589E+01  0.10164605309E+02  0.38093295522E+02  0.50528858431E+02  0.29999995688E+02 0.  0.
         12    1    1    2    0    0  0.99371740589E+01 -0.10164605309E+02 -0.38093295522E+02  0.40659141569E+02  0.00000000000E+00 0. -1.
         11    1    3    3    0    0 -0.17267450821E+02  0.10717417359E+02  0.16178453917E+02  0.25976340468E+02  0.51100000000E-03 0. -1.
        -11    1    3    3    0    0  0.50162308530E+01 -0.43302772414E+01  0.12517842293E+02  0.14163694747E+02  0.51100000000E-03 0.  1.
         12    1    3    3    0    0  0.23140459092E+01  0.37774651920E+01  0.93969993130E+01  0.10388823217E+02  0.00000000000E+00 0. -1.
</event>
<event>
 7    1  0.3041451E-011  0.5052886E+02  0.7816164E-02  0.1300439E+00
        -11   -1    0    0    0    0  0.00000000000E+00  0.00000000000E+00  0.45593999997E+02  0.45594000000E+02  0.51100000000E-03 0.  1.
         11   -1    0    0    0    0 -0.00000000000E+00 -0.00000000000E+00 -0.45593999997E+02  0.45594000000E+02  0.51100000000E-03 0. -1.
    9900012    2    1    2    0    0 -0.21324579356E+02  0.47231822771E+01  0.34294604873E+02  0.50528855162E+02  0.29999985751E+02 0.  0.
         12    1    1    2    0    0  0.21324579356E+02 -0.47231822771E+01 -0.34294604873E+02  0.40659144838E+02  0.00000000000E+00 0. -1.
         11    1    3    3    0    0  0.33204984977E+01  0.27627479010E+01 -0.31982268420E+00  0.43313708047E+01  0.51100000000E-03 0. -1.
        -11    1    3    3    0    0 -0.22914674063E+02  0.67702929864E+01  0.21579751495E+02  0.32196348075E+02  0.51100000000E-03 0.  1.
        -12    1    3    3    0    0 -0.17304037899E+01 -0.48098586104E+01  0.13034676063E+02  0.14001136282E+02  0.00000000000E+00 0.  1.
</event>
<event>
 7    1  0.3041451E-011  0.5052886E+02  0.7816164E-02  0.1300439E+00
        -11   -1    0    0    0    0  0.00000000000E+00  0.00000000000E+00  0.45593999997E+02  0.45594000000E+02  0.51100000000E-03 0.  1.
         11   -1    0    0    0    0 -0.00000000000E+00 -0.00000000000E+00 -0.45593999997E+02  0.45594000000E+02  0.51100000000E-03 0. -1.
    9900012    2    1    2    0    0  0.29096080451E+02 -0.16961249187E+02  0.22779374702E+02  0.50528858550E+02  0.29999996048E+02 0.  0.
         12    1    1    2    0    0 -0.29096080451E+02  0.16961249187E+02 -0.22779374702E+02  0.40659141450E+02  0.00000000000E+00 0. -1.
         11    1    3    3    0    0  0.98254753366E+01  0.31267848524E+01  0.33219327467E+01  0.10832912191E+02  0.51100000000E-03 0. -1.
        -11    1    3    3    0    0  0.14274494196E+02 -0.20166091608E+02  0.61205422943E+01  0.25453751659E+02  0.51100000000E-03 0.  1.
         12    1    3    3    0    0  0.49961109191E+01  0.78057567952E-01  0.13336899661E+02  0.14242194700E+02  0.00000000000E+00 0. -1.
</event>
<event>
 7    1  0.3041451E-011  0.5052885E+02  0.7816164E-02  0.1300439E+00
        -11   -1    0    0    0    0  0.00000000000E+00  0.00000000000E+00  0.45593999997E+02  0.45594000000E+02  0.51100000000E-03 0.  1.
         11   -1    0    0    0    0 -0.00000000000E+00 -0.00000000000E+00 -0.45593999997E+02  0.45594000000E+02  0.51100000000E-03 0. -1.
    9900012    2    1    2    0    0 -0.26835167301E+02  0.25985769381E+02  0.16055537328E+02  0.50528847361E+02  0.29999962039E+02 0.  0.
         12    1    1    2    0    0  0.26835167301E+02 -0.25985769381E+02 -0.16055537328E+02  0.40659152639E+02  0.00000000000E+00 0. -1.
         11    1    3    3    0    0 -0.17574450939E+02  0.13457482934E+01  0.50536812449E+01  0.18336086241E+02  0.51100000000E-03 0.  1.
        -11    1    3    3    0    0 -0.28236386693E+01  0.20323861186E+02  0.24713435635E+01  0.20667360937E+02  0.51100000000E-03 0. -1.
         12    1    3    3    0    0 -0.64370776928E+01  0.43161599023E+01  0.85305125199E+01  0.11525400183E+02  0.00000000000E+00 0. -1.
</event>
<event>
 7    1  0.3041451E-011  0.5052886E+02  0.7816164E-02  0.1300439E+00
        -11   -1    0    0    0    0  0.00000000000E+00  0.00000000000E+00  0.45593999997E+02  0.45594000000E+02  0.51100000000E-03 0.  1.
         11   -1    0    0    0    0 -0.00000000000E+00 -0.00000000000E+00 -0.45593999997E+02  0.45594000000E+02  0.51100000000E-03 0. -1.
    9900012    2    1    2    0    0 -0.33713139377E+02 -0.12149326918E+02 -0.19208942538E+02  0.50528863454E+02  0.30000010955E+02 0.  0.
         12    1    1    2    0    0  0.33713139377E+02  0.12149326918E+02  0.19208942538E+02  0.40659136546E+02  0.00000000000E+00 0. -1.
         11    1    3    3    0    0 -0.22713849999E+02  0.39440577195E+01 -0.35679860229E+01  0.23328203908E+02  0.51100000000E-03 0. -1.
        -11    1    3    3    0    0 -0.99017032053E+01 -0.62761176713E+01 -0.51923453788E+01  0.12821615740E+02  0.51100000000E-03 0.  1.
         12    1    3    3    0    0 -0.10975861733E+01 -0.98172669659E+01 -0.10448611137E+02  0.14379043806E+02  0.00000000000E+00 0. -1.
</event>
<event>
 7    1  0.3041451E-011  0.5052885E+02  0.7816164E-02  0.1300439E+00
        -11   -1    0    0    0    0  0.00000000000E+00  0.00000000000E+00  0.45593999997E+02  0.45594000000E+02  0.51100000000E-03 0.  1.
         11   -1    0    0    0    0 -0.00000000000E+00 -0.00000000000E+00 -0.45593999997E+02  0.45594000000E+02  0.51100000000E-03 0. -1.
    9900012    2    1    2    0    0  0.39301452558E+02 -0.36953442827E+01  0.97419958377E+01  0.50528853115E+02  0.29999979529E+02 0.  0.
         12    1    1    2    0    0 -0.39301452558E+02  0.36953442827E+01 -0.97419958377E+01  0.40659146885E+02  0.00000000000E+00 0. -1.
         11    1    3    3    0    0  0.25054571465E+02 -0.11511393311E+02  0.45669661024E+01  0.27948182533E+02  0.51100000000E-03 0. -1.
        -11    1    3    3    0    0  0.15352862941E+02  0.87847283395E+01  0.51688595748E+00  0.17696017175E+02  0.51100000000E-03 0.  1.
         12    1    3    3    0    0 -0.11059818485E+01 -0.96867931081E+00  0.46581437779E+01  0.48846534075E+01  0.00000000000E+00 0. -1.
</event>
<event>
 7    1  0.3041451E-011  0.5052886E+02  0.7816164E-02  0.1300439E+00
        -11   -1    0    0    0    0  0.00000000000E+00  0.00000000000E+00  0.45593999997E+02  0.45594000000E+02  0.51100000000E-03 0. -1.
         11   -1    0    0    0    0 -0.00000000000E+00 -0.00000000000E+00 -0.45593999997E+02  0.45594000000E+02  0.51100000000E-03 0.  1.
    9900012    2    1    2    0    0 -0.13298291113E+02  0.27013764939E+02 -0.27323576420E+02  0.50528857473E+02  0.29999992774E+02 0.  0.
         12    1    1    2    0    0  0.13298291113E+02 -0.27013764939E+02  0.27323576420E+02  0.40659142527E+02  0.00000000000E+00 0. -1.
         11    1    3    3    0    0 -0.21655191278E+01 -0.46368959627E+01 -0.28139515018E+01  0.58402568931E+01  0.51100000000E-03 0. -1.
        -11    1    3    3    0    0 -0.82192482239E+01  0.26486888494E+02 -0.10817561493E+02  0.29767951565E+02  0.51100000000E-03 0.  1.
        -12    1    3    3    0    0 -0.29135237609E+01  0.51637724080E+01 -0.13692063425E+02  0.14920649015E+02  0.00000000000E+00 0.  1.
</event>
<event>
 7    1  0.3041451E-011  0.5052885E+02  0.7816164E-02  0.1300439E+00
        -11   -1    0    0    0    0  0.00000000000E+00  0.00000000000E+00  0.45593999997E+02  0.45594000000E+02  0.51100000000E-03 0. -1.
         11   -1    0    0    0    0 -0.00000000000E+00 -0.00000000000E+00 -0.45593999997E+02  0.45594000000E+02  0.51100000000E-03 0.  1.
    9900012    2    1    2    0    0 -0.33059890253E+02 -0.28738311836E+01  0.23493634436E+02  0.50528854556E+02  0.29999983909E+02 0.  0.
         12    1    1    2    0    0  0.33059890253E+02  0.28738311836E+01 -0.23493634436E+02  0.40659145444E+02  0.00000000000E+00 0. -1.
         11    1    3    3    0    0 -0.15614446393E+02  0.58986623529E+00  0.17178772140E+02  0.23222168091E+02  0.51100000000E-03 0. -1.
        -11    1    3    3    0    0 -0.37982321934E+00  0.28729625167E+01 -0.50670709250E+01  0.58372414136E+01  0.51100000000E-03 0.  1.
        -12    1    3    3    0    0 -0.17065620640E+02 -0.63366599356E+01  0.11381933221E+02  0.21469445052E+02  0.00000000000E+00 0.  1.
</event>
<event>
 7    1  0.3041451E-011  0.5052886E+02  0.7816164E-02  0.1300439E+00
        -11   -1    0    0    0    0  0.00000000000E+00  0.00000000000E+00  0.45593999997E+02  0.45594000000E+02  0.51100000000E-03 0. -1.
         11   -1    0    0    0    0 -0.00000000000E+00 -0.00000000000E+00 -0.45593999997E+02  0.45594000000E+02  0.51100000000E-03 0.  1.
    9900012    2    1    2    0    0  0.24314551645E+02  0.20659596278E+02 -0.25202173068E+02  0.50528857517E+02  0.29999992910E+02 0.  0.
         12    1    1    2    0    0 -0.24314551645E+02 -0.20659596278E+02  0.25202173068E+02  0.40659142483E+02  0.00000000000E+00 0. -1.
         11    1    3    3    0    0  0.13194838524E+01  0.10433886793E+02  0.45326174489E+01  0.11452146194E+02  0.51100000000E-03 0. -1.
        -11    1    3    3    0    0  0.13589771658E+02  0.68930193962E+01 -0.15944370916E+02  0.22054899100E+02  0.51100000000E-03 0.  1.
         12    1    3    3    0    0  0.94052961343E+01  0.33326900884E+01 -0.13790419601E+02  0.17021812224E+02  0.00000000000E+00 0. -1.
</event>
<event>
 7    1  0.3041451E-011  0.5052886E+02  0.7816164E-02  0.1300439E+00
        -11   -1    0    0    0    0  0.00000000000E+00  0.00000000000E+00  0.45593999997E+02  0.45594000000E+02  0.51100000000E-03 0.  1.
         11   -1    0    0    0    0 -0.00000000000E+00 -0.00000000000E+00 -0.45593999997E+02  0.45594000000E+02  0.51100000000E-03 0. -1.
    9900012    2    1    2    0    0  0.19102007781E+02 -0.77380071713E+01  0.35048565507E+02  0.50528863261E+02  0.30000010369E+02 0.  0.
         12    1    1    2    0    0 -0.19102007781E+02  0.77380071713E+01 -0.35048565507E+02  0.40659136739E+02  0.00000000000E+00 0. -1.
         11    1    3    3    0    0  0.22747484678E+01  0.20154142220E+01 -0.35141121456E+01  0.46460046826E+01  0.51100000000E-03 0. -1.
        -11    1    3    3    0    0 -0.11918076065E-01 -0.34489645919E+01  0.19006660724E+02  0.19317055959E+02  0.51100000000E-03 0.  1.
         12    1    3    3    0    0  0.16839177390E+02 -0.63044568014E+01  0.19556016928E+02  0.26565802619E+02  0.00000000000E+00 0. -1.
</event>
<event>
 7    1  0.3041451E-011  0.5052886E+02  0.7816164E-02  0.1300439E+00
        -11   -1    0    0    0    0  0.00000000000E+00  0.00000000000E+00  0.45593999997E+02  0.45594000000E+02  0.51100000000E-03 0. -1.
         11   -1    0    0    0    0 -0.00000000000E+00 -0.00000000000E+00 -0.45593999997E+02  0.45594000000E+02  0.51100000000E-03 0.  1.
    9900012    2    1    2    0    0  0.30205683814E+02 -0.21417591662E+02 -0.16794902274E+02  0.50528864377E+02  0.30000013759E+02 0.  0.
         12    1    1    2    0    0 -0.30205683814E+02  0.21417591662E+02  0.16794902274E+02  0.40659135623E+02  0.00000000000E+00 0. -1.
         11    1    3    3    0    0 -0.34328108345E+01  0.45799239961E-02  0.30049306552E+01  0.45622165342E+01  0.51100000000E-03 0. -1.
        -11    1    3    3    0    0  0.20431735906E+02 -0.14990963557E+02 -0.65256469281E+01  0.26168089128E+02  0.51100000000E-03 0.  1.
         12    1    3    3    0    0  0.13206758742E+02 -0.64312080291E+01 -0.13274186001E+02  0.19798558715E+02  0.00000000000E+00 0. -1.
</event>
<event>
 7    1  0.3041451E-011  0.5052894E+02  0.7816164E-02  0.1300439E+00
        -11   -1    0    0    0    0  0.00000000000E+00  0.00000000000E+00  0.45593999997E+02  0.45594000000E+02  0.51100000000E-03 0.  1.
         11   -1    0    0    0    0 -0.00000000000E+00 -0.00000000000E+00 -0.45593999997E+02  0.45594000000E+02  0.51100000000E-03 0. -1.
    9900012    2    1    2    0    0  0.13369440493E+01 -0.32229796374E+02  0.24751002628E+02  0.50528937974E+02  0.30000237466E+02 0.  0.
         12    1    1    2    0    0 -0.13369440493E+01  0.32229796374E+02 -0.24751002628E+02  0.40659062026E+02  0.00000000000E+00 0. -1.
         11    1    3    3    0    0  0.31915561367E+01 -0.34120267838E+00 -0.38581555358E+01  0.50187462818E+01  0.51100000000E-03 0. -1.
        -11    1    3    3    0    0 -0.88528000929E+00 -0.32563974976E+02  0.29563961371E+02  0.43991180924E+02  0.51100000000E-03 0.  1.
        -12    1    3    3    0    0 -0.96933207811E+00  0.67538127999E+00 -0.95480320670E+00  0.15190107684E+01  0.00000000000E+00 0.  1.
</event>
<event>
 7    1  0.3041451E-011  0.5052886E+02  0.7816164E-02  0.1300439E+00
        -11   -1    0    0    0    0  0.00000000000E+00  0.00000000000E+00  0.45593999997E+02  0.45594000000E+02  0.51100000000E-03 0.  1.
         11   -1    0    0    0    0 -0.00000000000E+00 -0.00000000000E+00 -0.45593999997E+02  0.45594000000E+02  0.51100000000E-03 0. -1.
    9900012    2    1    2    0    0 -0.21378082303E+02  0.93633823381E+01  0.33293694374E+02  0.50528863059E+02  0.30000009754E+02 0.  0.
         12    1    1    2    0    0  0.21378082303E+02 -0.93633823381E+01 -0.33293694374E+02  0.40659136941E+02  0.00000000000E+00 0. -1.
         11    1    3    3    0    0 -0.12703405182E+02  0.11027483065E+01  0.35498355574E+02  0.37719037710E+02  0.51100000000E-03 0.  1.
        -11    1    3    3    0    0 -0.42396378122E+01  0.65582646482E+01 -0.76897644148E+00  0.78470815596E+01  0.51100000000E-03 0. -1.
        -12    1    3    3    0    0 -0.44350393088E+01  0.17023693834E+01 -0.14356847592E+01  0.49627437891E+01  0.00000000000E+00 0.  1.
</event>
<event>
 7    1  0.3041451E-011  0.5052891E+02  0.7816164E-02  0.1300439E+00
        -11   -1    0    0    0    0  0.00000000000E+00  0.00000000000E+00  0.45593999997E+02  0.45594000000E+02  0.51100000000E-03 0. -1.
         11   -1    0    0    0    0 -0.00000000000E+00 -0.00000000000E+00 -0.45593999997E+02  0.45594000000E+02  0.51100000000E-03 0.  1.
    9900012    2    1    2    0    0 -0.35683379557E+02 -0.18939214242E+02 -0.46004879402E+01  0.50528906282E+02  0.30000141134E+02 0.  0.
         12    1    1    2    0    0  0.35683379557E+02  0.18939214242E+02  0.46004879402E+01  0.40659093718E+02  0.00000000000E+00 0. -1.
         11    1    3    3    0    0 -0.30841944903E+02 -0.49824357778E+01  0.49790552673E+01  0.31636074714E+02  0.51100000000E-03 0. -1.
        -11    1    3    3    0    0 -0.45425786986E+01 -0.10863800093E+02 -0.38743335992E+01  0.12396275037E+02  0.51100000000E-03 0.  1.
         12    1    3    3    0    0 -0.29885595521E+00 -0.30929783707E+01 -0.57052096083E+01  0.64965565309E+01  0.00000000000E+00 0. -1.
</event>
<event>
 7    1  0.3041451E-011  0.5052880E+02  0.7816164E-02  0.1300439E+00
        -11   -1    0    0    0    0  0.00000000000E+00  0.00000000000E+00  0.45593999997E+02  0.45594000000E+02  0.51100000000E-03 0. -1.
         11   -1    0    0    0    0 -0.00000000000E+00 -0.00000000000E+00 -0.45593999997E+02  0.45594000000E+02  0.51100000000E-03 0.  1.
    9900012    2    1    2    0    0  0.18026359411E+02 -0.21624599920E+02 -0.29335942903E+02  0.50528800532E+02  0.29999819698E+02 0.  0.
         12    1    1    2    0    0 -0.18026359411E+02  0.21624599920E+02  0.29335942903E+02  0.40659199468E+02  0.00000000000E+00 0. -1.
         11    1    3    3    0    0  0.61265296285E+01 -0.32764038202E+01 -0.12129254463E+02  0.13978125818E+02  0.51100000000E-03 0. -1.
        -11    1    3    3    0    0 -0.93250674051E+00 -0.18518560019E+02 -0.59313323028E+01  0.19467597108E+02  0.51100000000E-03 0.  1.
        -12    1    3    3    0    0  0.12832336523E+02  0.17036391904E+00 -0.11275356137E+02  0.17083077607E+02  0.00000000000E+00 0.  1.
</event>
<event>
 7    1  0.3041451E-011  0.5052885E+02  0.7816164E-02  0.1300439E+00
        -11   -1    0    0    0    0  0.00000000000E+00  0.00000000000E+00  0.45593999997E+02  0.45594000000E+02  0.51100000000E-03 0.  1.
         11   -1    0    0    0    0 -0.00000000000E+00 -0.00000000000E+00 -0.45593999997E+02  0.45594000000E+02  0.51100000000E-03 0. -1.
    9900012    2    1    2    0    0 -0.15971571180E+02  0.13683739633E+02  0.34796988170E+02  0.50528853403E+02  0.29999980404E+02 0.  0.
         12    1    1    2    0    0  0.15971571180E+02 -0.13683739633E+02 -0.34796988170E+02  0.40659146597E+02  0.00000000000E+00 0. -1.
         11    1    3    3    0    0 -0.89886011413E+01  0.85484464974E+01  0.47603690078E+01  0.13286534588E+02  0.51100000000E-03 0. -1.
        -11    1    3    3    0    0  0.32482211875E+00 -0.67383499499E+01  0.43835276266E+01  0.80452584900E+01  0.51100000000E-03 0.  1.
        -12    1    3    3    0    0 -0.73077921572E+01  0.11873643086E+02  0.25653091535E+02  0.29197060326E+02  0.00000000000E+00 0.  1.
</event>
<event>
 7    1  0.3041451E-011  0.5052885E+02  0.7816164E-02  0.1300439E+00
        -11   -1    0    0    0    0  0.00000000000E+00  0.00000000000E+00  0.45593999997E+02  0.45594000000E+02  0.51100000000E-03 0. -1.
         11   -1    0    0    0    0 -0.00000000000E+00 -0.00000000000E+00 -0.45593999997E+02  0.45594000000E+02  0.51100000000E-03 0.  1.
    9900012    2    1    2    0    0  0.31893751868E+02 -0.16331540783E+02 -0.19215502606E+02  0.50528853760E+02  0.29999981489E+02 0.  0.
         12    1    1    2    0    0 -0.31893751868E+02  0.16331540783E+02  0.19215502606E+02  0.40659146240E+02  0.00000000000E+00 0. -1.
         11    1    3    3    0    0  0.28850175605E+01 -0.30127179242E+00 -0.15174771798E+02  0.15449523954E+02  0.51100000000E-03 0. -1.
        -11    1    3    3    0    0  0.22451751498E+02 -0.13200375735E+02  0.14286944358E+01  0.26083945885E+02  0.51100000000E-03 0.  1.
         12    1    3    3    0    0  0.65569828090E+01 -0.28298932561E+01 -0.54694252436E+01  0.89953839214E+01  0.00000000000E+00 0. -1.
</event>
<event>
 7    1  0.3041451E-011  0.5052891E+02  0.7816164E-02  0.1300439E+00
        -11   -1    0    0    0    0  0.00000000000E+00  0.00000000000E+00  0.45593999997E+02  0.45594000000E+02  0.51100000000E-03 0.  1.
         11   -1    0    0    0    0 -0.00000000000E+00 -0.00000000000E+00 -0.45593999997E+02  0.45594000000E+02  0.51100000000E-03 0. -1.
    9900012    2    1    2    0    0 -0.27349635603E+02  0.21383793529E+01  0.30009773226E+02  0.50528908484E+02  0.30000147826E+02 0.  0.
         12    1    1    2    0    0  0.27349635603E+02 -0.21383793529E+01 -0.30009773226E+02  0.40659091516E+02  0.00000000000E+00 0. -1.
         11    1    3    3    0    0 -0.22685186855E+02 -0.40381856983E+01  0.83553556370E+01  0.24509928895E+02  0.51100000000E-03 0.  1.
        -11    1    3    3    0    0 -0.62353352207E+01  0.30616813648E+01  0.21424887828E+02  0.22522857652E+02  0.51100000000E-03 0. -1.
         12    1    3    3    0    0  0.15708864719E+01  0.31148836864E+01  0.22952976075E+00  0.34961219370E+01  0.00000000000E+00 0. -1.
</event>
<event>
 7    1  0.3041451E-011  0.5052885E+02  0.7816164E-02  0.1300439E+00
        -11   -1    0    0    0    0  0.00000000000E+00  0.00000000000E+00  0.45593999997E+02  0.45594000000E+02  0.51100000000E-03 0.  1.
         11   -1    0    0    0    0 -0.00000000000E+00 -0.00000000000E+00 -0.45593999997E+02  0.45594000000E+02  0.51100000000E-03 0. -1.
    9900012    2    1    2    0    0  0.21847620845E+02  0.32572638206E+02  0.10717792828E+02  0.50528851222E+02  0.29999973775E+02 0.  0.
         12    1    1    2    0    0 -0.21847620845E+02 -0.32572638206E+02 -0.10717792828E+02  0.40659148778E+02  0.00000000000E+00 0. -1.
         11    1    3    3    0    0  0.16604960424E+02  0.90323275615E+01  0.73549989447E+01  0.20283088068E+02  0.51100000000E-03 0.  1.
        -11    1    3    3    0    0 -0.60137109274E+01  0.13277386528E+02  0.35901308592E+01  0.15011420718E+02  0.51100000000E-03 0. -1.
        -12    1    3    3    0    0  0.11256371348E+02  0.10262924116E+02 -0.22733697620E+00  0.15234342436E+02  0.00000000000E+00 0.  1.
</event>
<event>
 7    1  0.3041451E-011  0.5052887E+02  0.7816164E-02  0.1300439E+00
        -11   -1    0    0    0    0  0.00000000000E+00  0.00000000000E+00  0.45593999997E+02  0.45594000000E+02  0.51100000000E-03 0. -1.
         11   -1    0    0    0    0 -0.00000000000E+00 -0.00000000000E+00 -0.45593999997E+02  0.45594000000E+02  0.51100000000E-03 0.  1.
    9900012    2    1    2    0    0  0.27313428960E+02  0.87696193881E+01  0.28813807618E+02  0.50528866521E+02  0.30000020278E+02 0.  0.
         12    1    1    2    0    0 -0.27313428960E+02 -0.87696193881E+01 -0.28813807618E+02  0.40659133479E+02  0.00000000000E+00 0. -1.
         11    1    3    3    0    0  0.42025218346E+01  0.12500746082E+02  0.18912685611E+02  0.23056875757E+02  0.51100000000E-03 0. -1.
        -11    1    3    3    0    0  0.14617087797E+02 -0.27908908317E+01  0.67533988451E+00  0.14896456341E+02  0.51100000000E-03 0.  1.
        -12    1    3    3    0    0  0.84938193292E+01 -0.94023586187E+00  0.92257821226E+01  0.12575534424E+02  0.00000000000E+00 0.  1.
</event>
<event>
 7    1  0.3041451E-011  0.5052885E+02  0.7816164E-02  0.1300439E+00
        -11   -1    0    0    0    0  0.00000000000E+00  0.00000000000E+00  0.45593999997E+02  0.45594000000E+02  0.51100000000E-03 0.  1.
         11   -1    0    0    0    0 -0.00000000000E+00 -0.00000000000E+00 -0.45593999997E+02  0.45594000000E+02  0.51100000000E-03 0. -1.
    9900012    2    1    2    0    0 -0.31126184710E+02 -0.25994482807E+02  0.29348899643E+01  0.50528854779E+02  0.29999984586E+02 0.  0.
         12    1    1    2    0    0  0.31126184710E+02  0.25994482807E+02 -0.29348899643E+01  0.40659145221E+02  0.00000000000E+00 0. -1.
         11    1    3    3    0    0 -0.71117392133E+01  0.54421243677E+01  0.41641300012E+01  0.98759066014E+01  0.51100000000E-03 0. -1.
        -11    1    3    3    0    0 -0.59025265970E+01 -0.14987675233E+02 -0.15670988675E+01  0.16184128899E+02  0.51100000000E-03 0.  1.
        -12    1    3    3    0    0 -0.18111918900E+02 -0.16448931942E+02  0.33785883062E+00  0.24468819278E+02  0.00000000000E+00 0.  1.
</event>
<event>
 7    1  0.3041451E-011  0.5052886E+02  0.7816164E-02  0.1300439E+00
        -11   -1    0    0    0    0  0.00000000000E+00  0.00000000000E+00  0.45593999997E+02  0.45594000000E+02  0.51100000000E-03 0. -1.
         11   -1    0    0    0    0 -0.00000000000E+00 -0.00000000000E+00 -0.45593999997E+02  0.45594000000E+02  0.51100000000E-03 0.  1.
    9900012    2    1    2    0    0 -0.39692130632E+02  0.41809064501E+01  0.77601994835E+01  0.50528857008E+02  0.29999991362E+02 0.  0.
         12    1    1    2    0    0  0.39692130632E+02 -0.41809064501E+01 -0.77601994835E+01  0.40659142992E+02  0.00000000000E+00 0. -1.
         11    1    3    3    0    0  0.10250220601E+01 -0.35131851922E+01  0.76201697955E+00  0.37381560369E+01  0.51100000000E-03 0. -1.
        -11    1    3    3    0    0 -0.41356780558E+02  0.10888038927E+02  0.52307404547E+01  0.43084722765E+02  0.51100000000E-03 0.  1.
        -12    1    3    3    0    0  0.63962786652E+00 -0.31939472845E+01  0.17674420492E+01  0.37059782057E+01  0.00000000000E+00 0.  1.
</event>
<event>
 7    1  0.3041451E-011  0.5052886E+02  0.7816164E-02  0.1300439E+00
        -11   -1    0    0    0    0  0.00000000000E+00  0.00000000000E+00  0.45593999997E+02  0.45594000000E+02  0.51100000000E-03 0.  1.
         11   -1    0    0    0    0 -0.00000000000E+00 -0.00000000000E+00 -0.45593999997E+02  0.45594000000E+02  0.51100000000E-03 0. -1.
    9900012    2    1    2    0    0 -0.42084626987E+01  0.34795837704E+02  0.20608347061E+02  0.50528862670E+02  0.30000008572E+02 0.  0.
         12    1    1    2    0    0  0.42084626987E+01 -0.34795837704E+02 -0.20608347061E+02  0.40659137330E+02  0.00000000000E+00 0. -1.
         11    1    3    3    0    0  0.85318217333E+01  0.92589786826E+01  0.34546708483E+01  0.13055857661E+02  0.51100000000E-03 0.  1.
        -11    1    3    3    0    0 -0.12289368658E+02  0.18973348768E+02  0.42680955273E+01  0.23005068685E+02  0.51100000000E-03 0. -1.
         12    1    3    3    0    0 -0.45091577382E+00  0.65635102531E+01  0.12885580686E+02  0.14467936324E+02  0.00000000000E+00 0. -1.
</event>
<event>
 7    1  0.3041451E-011  0.5052888E+02  0.7816164E-02  0.1300439E+00
        -11   -1    0    0    0    0  0.00000000000E+00  0.00000000000E+00  0.45593999997E+02  0.45594000000E+02  0.51100000000E-03 0.  1.
         11   -1    0    0    0    0 -0.00000000000E+00 -0.00000000000E+00 -0.45593999997E+02  0.45594000000E+02  0.51100000000E-03 0. -1.
    9900012    2    1    2    0    0  0.16899743146E+02  0.14641376910E+01  0.36951578946E+02  0.50528877971E+02  0.30000055079E+02 0.  0.
         12    1    1    2    0    0 -0.16899743146E+02 -0.14641376910E+01 -0.36951578946E+02  0.40659122029E+02  0.00000000000E+00 0. -1.
         11    1    3    3    0    0  0.12076136772E+02 -0.83741942218E+01  0.57096641334E+01  0.15765800740E+02  0.51100000000E-03 0. -1.
        -11    1    3    3    0    0  0.72540950525E+01  0.94741450421E+01  0.20288170285E+02  0.23537017081E+02  0.51100000000E-03 0.  1.
        -12    1    3    3    0    0 -0.24304886783E+01  0.36418687076E+00  0.10953744528E+02  0.11226060149E+02  0.00000000000E+00 0.  1.
</event>
<event>
 7    1  0.3041451E-011  0.5052885E+02  0.7816164E-02  0.1300439E+00
        -11   -1    0    0    0    0  0.00000000000E+00  0.00000000000E+00  0.45593999997E+02  0.45594000000E+02  0.51100000000E-03 0.  1.
         11   -1    0    0    0    0 -0.00000000000E+00 -0.00000000000E+00 -0.45593999997E+02  0.45594000000E+02  0.51100000000E-03 0. -1.
    9900012    2    1    2    0    0 -0.21414935840E+02 -0.68084523846E+01  0.33885282207E+02  0.50528845420E+02  0.29999956138E+02 0.  0.
         12    1    1    2    0    0  0.21414935840E+02  0.68084523846E+01 -0.33885282207E+02  0.40659154580E+02  0.00000000000E+00 0. -1.
         11    1    3    3    0    0 -0.40218686382E+01  0.17301484724E+01  0.26986550371E+02  0.27339399084E+02  0.51100000000E-03 0. -1.
        -11    1    3    3    0    0 -0.16124606819E+02 -0.99918325209E+01  0.83990722039E+01  0.20745700189E+02  0.51100000000E-03 0.  1.
         12    1    3    3    0    0 -0.12684603828E+01  0.14532316639E+01 -0.15003403675E+01  0.24437461468E+01  0.00000000000E+00 0. -1.
</event>
<event>
 7    1  0.3041451E-011  0.5052885E+02  0.7816164E-02  0.1300439E+00
        -11   -1    0    0    0    0  0.00000000000E+00  0.00000000000E+00  0.45593999997E+02  0.45594000000E+02  0.51100000000E-03 0.  1.
         11   -1    0    0    0    0 -0.00000000000E+00 -0.00000000000E+00 -0.45593999997E+02  0.45594000000E+02  0.51100000000E-03 0. -1.
    9900012    2    1    2    0    0  0.11511790163E+02 -0.20813576471E+01  0.38939866806E+02  0.50528848640E+02  0.29999965927E+02 0.  0.
         12    1    1    2    0    0 -0.11511790163E+02  0.20813576471E+01 -0.38939866806E+02  0.40659151360E+02  0.00000000000E+00 0. -1.
         11    1    3    3    0    0 -0.32843464974E+01  0.51063975074E+01  0.68826661745E+01  0.91778712863E+01  0.51100000000E-03 0. -1.
        -11    1    3    3    0    0  0.16229469991E+02 -0.99112919848E+01  0.15565811582E+02  0.24574863082E+02  0.51100000000E-03 0.  1.
        -12    1    3    3    0    0 -0.14333333308E+01  0.27235368304E+01  0.16491389049E+02  0.16776114272E+02  0.00000000000E+00 0.  1.
</event>
<event>
 7    1  0.3041451E-011  0.5052887E+02  0.7816164E-02  0.1300439E+00
        -11   -1    0    0    0    0  0.00000000000E+00  0.00000000000E+00  0.45593999997E+02  0.45594000000E+02  0.51100000000E-03 0.  1.
         11   -1    0    0    0    0 -0.00000000000E+00 -0.00000000000E+00 -0.45593999997E+02  0.45594000000E+02  0.51100000000E-03 0. -1.
    9900012    2    1    2    0    0 -0.48750789970E+00 -0.20408143215E+02  0.35162972488E+02  0.50528873010E+02  0.30000040001E+02 0.  0.
         12    1    1    2    0    0  0.48750789970E+00  0.20408143215E+02 -0.35162972488E+02  0.40659126990E+02  0.00000000000E+00 0. -1.
         11    1    3    3    0    0  0.62382804066E+00  0.39997299017E+01  0.80163444328E+01  0.89804665268E+01  0.51100000000E-03 0. -1.
        -11    1    3    3    0    0 -0.23046962589E+01 -0.10448714351E+02 -0.33124717014E+00  0.10704997963E+02  0.51100000000E-03 0.  1.
        -12    1    3    3    0    0  0.11933603185E+01 -0.13959158766E+02  0.27477875225E+02  0.30843408521E+02  0.00000000000E+00 0.  1.
</event>
<event>
 7    1  0.3041451E-011  0.5052886E+02  0.7816164E-02  0.1300439E+00
        -11   -1    0    0    0    0  0.00000000000E+00  0.00000000000E+00  0.45593999997E+02  0.45594000000E+02  0.51100000000E-03 0. -1.
         11   -1    0    0    0    0 -0.00000000000E+00 -0.00000000000E+00 -0.45593999997E+02  0.45594000000E+02  0.51100000000E-03 0.  1.
    9900012    2    1    2    0    0 -0.39455366935E+02  0.73072772112E+01  0.65607267221E+01  0.50528863076E+02  0.30000009807E+02 0.  0.
         12    1    1    2    0    0  0.39455366935E+02 -0.73072772112E+01 -0.65607267221E+01  0.40659136924E+02  0.00000000000E+00 0. -1.
         11    1    3    3    0    0 -0.18289607872E+02  0.45547374001E+01  0.15024262918E+02  0.24103606896E+02  0.51100000000E-03 0. -1.
        -11    1    3    3    0    0 -0.20521222991E+02 -0.13468015678E+01 -0.53861864801E+01  0.21259009210E+02  0.51100000000E-03 0.  1.
         12    1    3    3    0    0 -0.64453607226E+00  0.40993413788E+01 -0.30773497161E+01  0.51662469709E+01  0.00000000000E+00 0. -1.
</event>
<event>
 7    1  0.3041451E-011  0.5052884E+02  0.7816164E-02  0.1300439E+00
        -11   -1    0    0    0    0  0.00000000000E+00  0.00000000000E+00  0.45593999997E+02  0.45594000000E+02  0.51100000000E-03 0. -1.
         11   -1    0    0    0    0 -0.00000000000E+00 -0.00000000000E+00 -0.45593999997E+02  0.45594000000E+02  0.51100000000E-03 0.  1.
    9900012    2    1    2    0    0 -0.84554397500E+01  0.19106911867E+02 -0.34879774554E+02  0.50528840941E+02  0.29999942524E+02 0.  0.
         12    1    1    2    0    0  0.84554397500E+01 -0.19106911867E+02  0.34879774554E+02  0.40659159059E+02  0.00000000000E+00 0. -1.
         11    1    3    3    0    0 -0.56987250163E+01  0.22302260508E+01 -0.39540852439E+01  0.72858881014E+01  0.51100000000E-03 0. -1.
        -11    1    3    3    0    0  0.91026864177E+01  0.12903809062E+02 -0.24586724961E+02  0.29221126482E+02  0.51100000000E-03 0.  1.
        -12    1    3    3    0    0 -0.11859401151E+02  0.39728767543E+01 -0.63389643490E+01  0.14021826357E+02  0.00000000000E+00 0.  1.
</event>
<event>
 7    1  0.3041451E-011  0.5052886E+02  0.7816164E-02  0.1300439E+00
        -11   -1    0    0    0    0  0.00000000000E+00  0.00000000000E+00  0.45593999997E+02  0.45594000000E+02  0.51100000000E-03 0.  1.
         11   -1    0    0    0    0 -0.00000000000E+00 -0.00000000000E+00 -0.45593999997E+02  0.45594000000E+02  0.51100000000E-03 0. -1.
    9900012    2    1    2    0    0 -0.13467211074E+02  0.34026298574E+02  0.17720353957E+02  0.50528859415E+02  0.29999998677E+02 0.  0.
         12    1    1    2    0    0  0.13467211074E+02 -0.34026298574E+02 -0.17720353957E+02  0.40659140585E+02  0.00000000000E+00 0. -1.
         11    1    3    3    0    0 -0.46268922993E+01 -0.14012002617E+01  0.12007092773E+01  0.49812847291E+01  0.51100000000E-03 0. -1.
        -11    1    3    3    0    0 -0.37317473181E+01  0.36827056338E+02  0.15613245426E+02  0.40173765688E+02  0.51100000000E-03 0.  1.
        -12    1    3    3    0    0 -0.51085714571E+01 -0.13995575021E+01  0.90639925311E+00  0.53738089973E+01  0.00000000000E+00 0.  1.
</event>
<event>
 7    1  0.3408089E-011  0.5052887E+02  0.7816164E-02  0.1300439E+00
        -11   -1    0    0    0    0  0.00000000000E+00  0.00000000000E+00  0.45593999997E+02  0.45594000000E+02  0.51100000000E-03 0.  1.
         11   -1    0    0    0    0 -0.00000000000E+00 -0.00000000000E+00 -0.45593999997E+02  0.45594000000E+02  0.51100000000E-03 0. -1.
    9900012    2    1    2    0    0  0.25272127795E+02  0.18475422119E+02  0.25945007374E+02  0.50528867282E+02  0.30000022590E+02 0.  0.
         12    1    1    2    0    0 -0.25272127795E+02 -0.18475422119E+02 -0.25945007374E+02  0.40659132718E+02  0.00000000000E+00 0. -1.
         11    1    3    3    0    0  0.21896812571E+02  0.16027147640E+02  0.89327991276E+01  0.28568072437E+02  0.51100000000E-03 0. -1.
        -11    1    3    3    0    0  0.64741185726E+01  0.49590878515E+01  0.15819663312E+02  0.17797991774E+02  0.51100000000E-03 0.  1.
         12    1    3    3    0    0 -0.30988033488E+01 -0.25108133730E+01  0.11925449345E+01  0.41628030712E+01  0.00000000000E+00 0. -1.
</event>
<event>
 7    1  0.3041451E-011  0.5052887E+02  0.7816164E-02  0.1300439E+00
        -11   -1    0    0    0    0  0.00000000000E+00  0.00000000000E+00  0.45593999997E+02  0.45594000000E+02  0.51100000000E-03 0.  1.
         11   -1    0    0    0    0 -0.00000000000E+00 -0.00000000000E+00 -0.45593999997E+02  0.45594000000E+02  0.51100000000E-03 0. -1.
    9900012    2    1    2    0    0  0.40032554338E+02  0.40623451275E+01  0.58358198318E+01  0.50528870055E+02  0.30000031019E+02 0.  0.
         12    1    1    2    0    0 -0.40032554338E+02 -0.40623451275E+01 -0.58358198318E+01  0.40659129945E+02  0.00000000000E+00 0. -1.
         11    1    3    3    0    0  0.12272112321E+02  0.95658485617E+01  0.25700437198E+01  0.15770710970E+02  0.51100000000E-03 0. -1.
        -11    1    3    3    0    0  0.35467328905E+01 -0.93166960099E+01 -0.38105992842E+00  0.99762390542E+01  0.51100000000E-03 0.  1.
        -12    1    3    3    0    0  0.24213709126E+02  0.38131925757E+01  0.36468360404E+01  0.24781920030E+02  0.00000000000E+00 0.  1.
</event>
<event>
 7    1  0.3041451E-011  0.5052887E+02  0.7816164E-02  0.1300439E+00
        -11   -1    0    0    0    0  0.00000000000E+00  0.00000000000E+00  0.45593999997E+02  0.45594000000E+02  0.51100000000E-03 0. -1.
         11   -1    0    0    0    0 -0.00000000000E+00 -0.00000000000E+00 -0.45593999997E+02  0.45594000000E+02  0.51100000000E-03 0.  1.
    9900012    2    1    2    0    0 -0.37373834087E+01  0.17979557743E+02 -0.36275783771E+02  0.50528867944E+02  0.30000024602E+02 0.  0.
         12    1    1    2    0    0  0.37373834087E+01 -0.17979557743E+02  0.36275783771E+02  0.40659132056E+02  0.00000000000E+00 0. -1.
         11    1    3    3    0    0  0.11254710793E+01  0.89929758681E+01  0.16405676679E+01  0.92104159867E+01  0.51100000000E-03 0. -1.
        -11    1    3    3    0    0 -0.63318636273E+01  0.11104583863E+02 -0.24267819645E+02  0.27428659288E+02  0.51100000000E-03 0.  1.
        -12    1    3    3    0    0  0.14690091393E+01 -0.21180019872E+01 -0.13648531794E+02  0.13889792669E+02  0.00000000000E+00 0.  1.
</event>
<event>
 7    1  0.3041451E-011  0.5052886E+02  0.7816164E-02  0.1300439E+00
        -11   -1    0    0    0    0  0.00000000000E+00  0.00000000000E+00  0.45593999997E+02  0.45594000000E+02  0.51100000000E-03 0.  1.
         11   -1    0    0    0    0 -0.00000000000E+00 -0.00000000000E+00 -0.45593999997E+02  0.45594000000E+02  0.51100000000E-03 0. -1.
    9900012    2    1    2    0    0 -0.39799166739E+02 -0.81368691090E+01 -0.17271942875E+01  0.50528861886E+02  0.30000006190E+02 0.  0.
         12    1    1    2    0    0  0.39799166739E+02  0.81368691090E+01  0.17271942875E+01  0.40659138114E+02  0.00000000000E+00 0. -1.
         11    1    3    3    0    0 -0.11037805429E+02  0.99351129304E+01 -0.56585506705E+01  0.15892099093E+02  0.51100000000E-03 0. -1.
        -11    1    3    3    0    0 -0.18348101228E+02 -0.10111953055E+02 -0.92175820784E-02  0.20950047696E+02  0.51100000000E-03 0.  1.
         12    1    3    3    0    0 -0.10413260083E+02 -0.79600289840E+01  0.39405739651E+01  0.13686715097E+02  0.00000000000E+00 0. -1.
</event>
<event>
 7    1  0.3041451E-011  0.5052889E+02  0.7816164E-02  0.1300439E+00
        -11   -1    0    0    0    0  0.00000000000E+00  0.00000000000E+00  0.45593999997E+02  0.45594000000E+02  0.51100000000E-03 0. -1.
         11   -1    0    0    0    0 -0.00000000000E+00 -0.00000000000E+00 -0.45593999997E+02  0.45594000000E+02  0.51100000000E-03 0.  1.
    9900012    2    1    2    0    0 -0.26475694978E+02  0.29132761022E+02  0.10172650480E+02  0.50528892691E+02  0.30000099823E+02 0.  0.
         12    1    1    2    0    0  0.26475694978E+02 -0.29132761022E+02 -0.10172650480E+02  0.40659107309E+02  0.00000000000E+00 0. -1.
         11    1    3    3    0    0 -0.18014555835E+02  0.12182750512E+02  0.16342001398E+02  0.27203026338E+02  0.51100000000E-03 0. -1.
        -11    1    3    3    0    0 -0.56325388425E+01  0.18048051821E+02 -0.33839643608E+01  0.19207000896E+02  0.51100000000E-03 0.  1.
        -12    1    3    3    0    0 -0.28286003013E+01 -0.10980413111E+01 -0.27853865573E+01  0.41188654577E+01  0.00000000000E+00 0.  1.
</event>
<event>
 7    1  0.3041451E-011  0.5052886E+02  0.7816164E-02  0.1300439E+00
        -11   -1    0    0    0    0  0.00000000000E+00  0.00000000000E+00  0.45593999997E+02  0.45594000000E+02  0.51100000000E-03 0. -1.
         11   -1    0    0    0    0 -0.00000000000E+00 -0.00000000000E+00 -0.45593999997E+02  0.45594000000E+02  0.51100000000E-03 0.  1.
    9900012    2    1    2    0    0  0.14794116090E+02  0.31288683186E+02 -0.21338178354E+02  0.50528862997E+02  0.30000009565E+02 0.  0.
         12    1    1    2    0    0 -0.14794116090E+02 -0.31288683186E+02  0.21338178354E+02  0.40659137003E+02  0.00000000000E+00 0. -1.
         11    1    3    3    0    0  0.14757369194E+02  0.24291692034E+01 -0.85244761184E+01  0.17214746641E+02  0.51100000000E-03 0. -1.
        -11    1    3    3    0    0 -0.43797582499E+01  0.15138421832E+02 -0.34715102226E+01  0.16137084042E+02  0.51100000000E-03 0.  1.
        -12    1    3    3    0    0  0.44165051455E+01  0.13721092151E+02 -0.93421920133E+01  0.17177032314E+02  0.00000000000E+00 0.  1.
</event>
<event>
 7    1  0.3041451E-011  0.5052886E+02  0.7816164E-02  0.1300439E+00
        -11   -1    0    0    0    0  0.00000000000E+00  0.00000000000E+00  0.45593999997E+02  0.45594000000E+02  0.51100000000E-03 0. -1.
         11   -1    0    0    0    0 -0.00000000000E+00 -0.00000000000E+00 -0.45593999997E+02  0.45594000000E+02  0.51100000000E-03 0.  1.
    9900012    2    1    2    0    0 -0.18776742332E+02 -0.26732550799E+02 -0.24206817159E+02  0.50528864227E+02  0.30000013305E+02 0.  0.
         12    1    1    2    0    0  0.18776742332E+02  0.26732550799E+02  0.24206817159E+02  0.40659135773E+02  0.00000000000E+00 0. -1.
         11    1    3    3    0    0 -0.20036330971E+02 -0.17243181680E+02 -0.38188091963E+01  0.26708896967E+02  0.51100000000E-03 0. -1.
        -11    1    3    3    0    0  0.20186860881E+01  0.67207207720E+00 -0.35559836579E+01  0.41438863927E+01  0.51100000000E-03 0.  1.
         12    1    3    3    0    0 -0.75909744872E+00 -0.10161441196E+02 -0.16832024305E+02  0.19676080868E+02  0.00000000000E+00 0. -1.
</event>
<event>
 7    1  0.3041451E-011  0.5052887E+02  0.7816164E-02  0.1300439E+00
        -11   -1    0    0    0    0  0.00000000000E+00  0.00000000000E+00  0.45593999997E+02  0.45594000000E+02  0.51100000000E-03 0.  1.
         11   -1    0    0    0    0 -0.00000000000E+00 -0.00000000000E+00 -0.45593999997E+02  0.45594000000E+02  0.51100000000E-03 0. -1.
    9900012    2    1    2    0    0 -0.58432680157E+01 -0.18175617280E+02  0.35898024333E+02  0.50528868238E+02  0.30000025497E+02 0.  0.
         12    1    1    2    0    0  0.58432680157E+01  0.18175617280E+02 -0.35898024333E+02  0.40659131762E+02  0.00000000000E+00 0. -1.
         11    1    3    3    0    0  0.33610318323E+01 -0.22909472803E+01 -0.42853771266E+01  0.59084204147E+01  0.51100000000E-03 0. -1.
        -11    1    3    3    0    0 -0.49824011846E+01 -0.57474529260E+01  0.10458795469E+02  0.12932282847E+02  0.51100000000E-03 0.  1.
         12    1    3    3    0    0 -0.42218986634E+01 -0.10137217074E+02  0.29724605990E+02  0.31688164977E+02  0.00000000000E+00 0. -1.
</event>
<event>
 7    1  0.3041451E-011  0.5052886E+02  0.7816164E-02  0.1300439E+00
        -11   -1    0    0    0    0  0.00000000000E+00  0.00000000000E+00  0.45593999997E+02  0.45594000000E+02  0.51100000000E-03 0. -1.
         11   -1    0    0    0    0 -0.00000000000E+00 -0.00000000000E+00 -0.45593999997E+02  0.45594000000E+02  0.51100000000E-03 0.  1.
    9900012    2    1    2    0    0  0.15946142306E+02  0.17069622368E+02 -0.33279332872E+02  0.50528862545E+02  0.30000008191E+02 0.  0.
         12    1    1    2    0    0 -0.15946142306E+02 -0.17069622368E+02  0.33279332872E+02  0.40659137455E+02  0.00000000000E+00 0. -1.
         11    1    3    3    0    0  0.20833513554E+02  0.63709342259E+01 -0.17394336389E+02  0.27878074335E+02  0.51100000000E-03 0. -1.
        -11    1    3    3    0    0 -0.21583493882E+01 -0.18215874994E+01 -0.53985329124E+01  0.60926850376E+01  0.51100000000E-03 0.  1.
         12    1    3    3    0    0 -0.27290218606E+01  0.12520275642E+02 -0.10486463570E+02  0.16558103172E+02  0.00000000000E+00 0. -1.
</event>
<event>
 7    1  0.3041451E-011  0.5052887E+02  0.7816164E-02  0.1300439E+00
        -11   -1    0    0    0    0  0.00000000000E+00  0.00000000000E+00  0.45593999997E+02  0.45594000000E+02  0.51100000000E-03 0. -1.
         11   -1    0    0    0    0 -0.00000000000E+00 -0.00000000000E+00 -0.45593999997E+02  0.45594000000E+02  0.51100000000E-03 0.  1.
    9900012    2    1    2    0    0  0.10767235412E+02  0.19475477448E+02 -0.34028482385E+02  0.50528865803E+02  0.30000018095E+02 0.  0.
         12    1    1    2    0    0 -0.10767235412E+02 -0.19475477448E+02  0.34028482385E+02  0.40659134197E+02  0.00000000000E+00 0. -1.
         11    1    3    3    0    0  0.95958053622E+01 -0.11210216162E+01 -0.27074673076E+02  0.28746723160E+02  0.51100000000E-03 0. -1.
        -11    1    3    3    0    0  0.86743969021E+00  0.91063679743E+01 -0.31642290963E+01  0.96793974675E+01  0.51100000000E-03 0.  1.
         12    1    3    3    0    0  0.30399035941E+00  0.11490131090E+02 -0.37895802126E+01  0.12102745176E+02  0.00000000000E+00 0. -1.
</event>
<event>
 7    1  0.3041451E-011  0.5052884E+02  0.7816164E-02  0.1300439E+00
        -11   -1    0    0    0    0  0.00000000000E+00  0.00000000000E+00  0.45593999997E+02  0.45594000000E+02  0.51100000000E-03 0.  1.
         11   -1    0    0    0    0 -0.00000000000E+00 -0.00000000000E+00 -0.45593999997E+02  0.45594000000E+02  0.51100000000E-03 0. -1.
    9900012    2    1    2    0    0 -0.16995934468E+01  0.18584538588E+02  0.36123312798E+02  0.50528838426E+02  0.29999934878E+02 0.  0.
         12    1    1    2    0    0  0.16995934468E+01 -0.18584538588E+02 -0.36123312798E+02  0.40659161574E+02  0.00000000000E+00 0. -1.
         11    1    3    3    0    0  0.31841928587E+01  0.46118506787E+01  0.51998315591E+01  0.76450310234E+01  0.51100000000E-03 0. -1.
        -11    1    3    3    0    0 -0.15832683543E+01 -0.32682109876E+00  0.27841262608E+02  0.27888159757E+02  0.51100000000E-03 0.  1.
        -12    1    3    3    0    0 -0.33005179513E+01  0.14299509008E+02  0.30822186305E+01  0.14995647646E+02  0.00000000000E+00 0.  1.
</event>
<event>
 7    1  0.3041451E-011  0.5052885E+02  0.7816164E-02  0.1300439E+00
        -11   -1    0    0    0    0  0.00000000000E+00  0.00000000000E+00  0.45593999997E+02  0.45594000000E+02  0.51100000000E-03 0.  1.
         11   -1    0    0    0    0 -0.00000000000E+00 -0.00000000000E+00 -0.45593999997E+02  0.45594000000E+02  0.51100000000E-03 0. -1.
    9900012    2    1    2    0    0  0.62904960587E+01 -0.18762637763E+01  0.40125749911E+02  0.50528849587E+02  0.29999968803E+02 0.  0.
         12    1    1    2    0    0 -0.62904960587E+01  0.18762637763E+01 -0.40125749911E+02  0.40659150413E+02  0.00000000000E+00 0. -1.
         11    1    3    3    0    0  0.20003793395E+01 -0.49570882119E+01  0.35139240309E+02  0.35543500823E+02  0.51100000000E-03 0. -1.
        -11    1    3    3    0    0 -0.25387553952E+01 -0.37020328248E+01  0.12414119374E+01  0.46574059144E+01  0.51100000000E-03 0.  1.
         12    1    3    3    0    0  0.68288721144E+01  0.67828572604E+01  0.37450976648E+01  0.10327942849E+02  0.00000000000E+00 0. -1.
</event>
<event>
 7    1  0.3041451E-011  0.5052883E+02  0.7816164E-02  0.1300439E+00
        -11   -1    0    0    0    0  0.00000000000E+00  0.00000000000E+00  0.45593999997E+02  0.45594000000E+02  0.51100000000E-03 0. -1.
         11   -1    0    0    0    0 -0.00000000000E+00 -0.00000000000E+00 -0.45593999997E+02  0.45594000000E+02  0.51100000000E-03 0.  1.
    9900012    2    1    2    0    0  0.38666378719E+02  0.84104195684E+01 -0.93457956284E+01  0.50528832565E+02  0.29999917065E+02 0.  0.
         12    1    1    2    0    0 -0.38666378719E+02 -0.84104195684E+01  0.93457956284E+01  0.40659167435E+02  0.00000000000E+00 0. -1.
         11    1    3    3    0    0  0.92500352936E+01 -0.48960177692E+01  0.22595245690E+01  0.10706988114E+02  0.51100000000E-03 0. -1.
        -11    1    3    3    0    0  0.31401047644E+02  0.87869419583E+01 -0.76402474160E+01  0.33490439277E+02  0.51100000000E-03 0.  1.
         12    1    3    3    0    0 -0.19847042188E+01  0.45194953792E+01 -0.39650727814E+01  0.63314051743E+01  0.00000000000E+00 0. -1.
</event>
<event>
 7    1  0.3041451E-011  0.5052884E+02  0.7816164E-02  0.1300439E+00
        -11   -1    0    0    0    0  0.00000000000E+00  0.00000000000E+00  0.45593999997E+02  0.45594000000E+02  0.51100000000E-03 0.  1.
         11   -1    0    0    0    0 -0.00000000000E+00 -0.00000000000E+00 -0.45593999997E+02  0.45594000000E+02  0.51100000000E-03 0. -1.
    9900012    2    1    2    0    0  0.12324895664E+02 -0.38603799749E+02  0.33182550781E+01  0.50528840823E+02  0.29999942166E+02 0.  0.
         12    1    1    2    0    0 -0.12324895664E+02  0.38603799749E+02 -0.33182550781E+01  0.40659159177E+02  0.00000000000E+00 0. -1.
         11    1    3    3    0    0  0.11296338518E+01 -0.12417379259E+02 -0.12098969011E+02  0.17373900877E+02  0.51100000000E-03 0. -1.
        -11    1    3    3    0    0  0.77431937691E+01 -0.19672890745E+02  0.77470193041E+01  0.22516571417E+02  0.51100000000E-03 0.  1.
         12    1    3    3    0    0  0.34520680433E+01 -0.65135297446E+01  0.76702047851E+01  0.10638368529E+02  0.00000000000E+00 0. -1.
</event>
<event>
 7    1  0.3041451E-011  0.5052886E+02  0.7816164E-02  0.1300439E+00
        -11   -1    0    0    0    0  0.00000000000E+00  0.00000000000E+00  0.45593999997E+02  0.45594000000E+02  0.51100000000E-03 0. -1.
         11   -1    0    0    0    0 -0.00000000000E+00 -0.00000000000E+00 -0.45593999997E+02  0.45594000000E+02  0.51100000000E-03 0.  1.
    9900012    2    1    2    0    0 -0.89666712596E+01 -0.12551198060E+02 -0.37619569369E+02  0.50528858768E+02  0.29999996712E+02 0.  0.
         12    1    1    2    0    0  0.89666712596E+01  0.12551198060E+02  0.37619569369E+02  0.40659141232E+02  0.00000000000E+00 0. -1.
         11    1    3    3    0    0  0.30604482686E+01 -0.14505563974E+02 -0.96646008799E+01  0.17696955677E+02  0.51100000000E-03 0. -1.
        -11    1    3    3    0    0 -0.21611976868E+01  0.60955980867E+01 -0.11770922448E+02  0.13430625712E+02  0.51100000000E-03 0.  1.
         12    1    3    3    0    0 -0.98659218414E+01 -0.41412321718E+01 -0.16184046041E+02  0.19401277379E+02  0.00000000000E+00 0. -1.
</event>
<event>
 7    1  0.3041451E-011  0.5052886E+02  0.7816164E-02  0.1300439E+00
        -11   -1    0    0    0    0  0.00000000000E+00  0.00000000000E+00  0.45593999997E+02  0.45594000000E+02  0.51100000000E-03 0.  1.
         11   -1    0    0    0    0 -0.00000000000E+00 -0.00000000000E+00 -0.45593999997E+02  0.45594000000E+02  0.51100000000E-03 0. -1.
    9900012    2    1    2    0    0  0.20296526785E+02  0.35107711377E+02 -0.29436442713E+01  0.50528862783E+02  0.30000008914E+02 0.  0.
         12    1    1    2    0    0 -0.20296526785E+02 -0.35107711377E+02  0.29436442713E+01  0.40659137217E+02  0.00000000000E+00 0. -1.
         11    1    3    3    0    0  0.10981829499E+01  0.96645308572E+01 -0.38312647506E+01  0.10454078263E+02  0.51100000000E-03 0. -1.
        -11    1    3    3    0    0  0.20115361935E+02  0.11731769429E+02  0.79730366873E+01  0.24613644874E+02  0.51100000000E-03 0.  1.
        -12    1    3    3    0    0 -0.91701809979E+00  0.13711411091E+02 -0.70854162081E+01  0.15461139645E+02  0.00000000000E+00 0.  1.
</event>
<event>
 7    1  0.3090102E-011  0.5052886E+02  0.7816164E-02  0.1300439E+00
        -11   -1    0    0    0    0  0.00000000000E+00  0.00000000000E+00  0.45593999997E+02  0.45594000000E+02  0.51100000000E-03 0. -1.
         11   -1    0    0    0    0 -0.00000000000E+00 -0.00000000000E+00 -0.45593999997E+02  0.45594000000E+02  0.51100000000E-03 0.  1.
    9900012    2    1    2    0    0 -0.21054322850E+02 -0.76502264036E+01 -0.33931626166E+02  0.50528859220E+02  0.29999998086E+02 0.  0.
         12    1    1    2    0    0  0.21054322850E+02  0.76502264036E+01  0.33931626166E+02  0.40659140780E+02  0.00000000000E+00 0. -1.
         11    1    3    3    0    0  0.31294071142E+01  0.17778919648E+01  0.25744710694E+01  0.44251542655E+01  0.51100000000E-03 0. -1.
        -11    1    3    3    0    0 -0.15834590204E+02 -0.12065213139E+01 -0.16375348093E+02  0.22811005371E+02  0.51100000000E-03 0.  1.
         12    1    3    3    0    0 -0.83491397602E+01 -0.82215970546E+01 -0.20130749142E+02  0.23292699583E+02  0.00000000000E+00 0. -1.
</event>
<event>
 7    1  0.3041451E-011  0.5052885E+02  0.7816164E-02  0.1300439E+00
        -11   -1    0    0    0    0  0.00000000000E+00  0.00000000000E+00  0.45593999997E+02  0.45594000000E+02  0.51100000000E-03 0. -1.
         11   -1    0    0    0    0 -0.00000000000E+00 -0.00000000000E+00 -0.45593999997E+02  0.45594000000E+02  0.51100000000E-03 0.  1.
    9900012    2    1    2    0    0 -0.39652790417E+02 -0.65464349483E+00 -0.89662733533E+01  0.50528850921E+02  0.29999972859E+02 0.  0.
         12    1    1    2    0    0  0.39652790417E+02  0.65464349483E+00  0.89662733533E+01  0.40659149079E+02  0.00000000000E+00 0. -1.
         11    1    3    3    0    0 -0.10233650635E+02  0.98734952530E+01 -0.20491971157E+01  0.14367070784E+02  0.51100000000E-03 0. -1.
        -11    1    3    3    0    0 -0.61897941043E+01 -0.92998428676E+01  0.18094138505E+01  0.11317005220E+02  0.51100000000E-03 0.  1.
        -12    1    3    3    0    0 -0.23229345678E+02 -0.12282958802E+01 -0.87264900881E+01  0.24844774916E+02  0.00000000000E+00 0.  1.
</event>
<event>
 7    1  0.3041451E-011  0.5052886E+02  0.7816164E-02  0.1300439E+00
        -11   -1    0    0    0    0  0.00000000000E+00  0.00000000000E+00  0.45593999997E+02  0.45594000000E+02  0.51100000000E-03 0.  1.
         11   -1    0    0    0    0 -0.00000000000E+00 -0.00000000000E+00 -0.45593999997E+02  0.45594000000E+02  0.51100000000E-03 0. -1.
    9900012    2    1    2    0    0 -0.14707933761E+02 -0.17499160765E+02  0.33624714918E+02  0.50528863311E+02  0.30000010519E+02 0.  0.
         12    1    1    2    0    0  0.14707933761E+02  0.17499160765E+02 -0.33624714918E+02  0.40659136689E+02  0.00000000000E+00 0. -1.
         11    1    3    3    0    0 -0.16133598654E+02 -0.70888969378E+00  0.78848286357E+01  0.17971256300E+02  0.51100000000E-03 0. -1.
        -11    1    3    3    0    0 -0.18566507916E+01 -0.46487257906E+01  0.15656492064E+02  0.16437260953E+02  0.51100000000E-03 0.  1.
         12    1    3    3    0    0  0.32823156843E+01 -0.12141545280E+02  0.10083394219E+02  0.16120346058E+02  0.00000000000E+00 0. -1.
</event>
<event>
 7    1  0.3041451E-011  0.5052885E+02  0.7816164E-02  0.1300439E+00
        -11   -1    0    0    0    0  0.00000000000E+00  0.00000000000E+00  0.45593999997E+02  0.45594000000E+02  0.51100000000E-03 0. -1.
         11   -1    0    0    0    0 -0.00000000000E+00 -0.00000000000E+00 -0.45593999997E+02  0.45594000000E+02  0.51100000000E-03 0.  1.
    9900012    2    1    2    0    0 -0.28313513593E+02 -0.15536150923E+02 -0.24700998566E+02  0.50528851366E+02  0.29999974212E+02 0.  0.
         12    1    1    2    0    0  0.28313513593E+02  0.15536150923E+02  0.24700998566E+02  0.40659148634E+02  0.00000000000E+00 0. -1.
         11    1    3    3    0    0 -0.53223750631E+01  0.39649780465E+01 -0.18467312213E+02  0.19623719012E+02  0.51100000000E-03 0.  1.
        -11    1    3    3    0    0 -0.13740993445E+02 -0.12053041375E+02 -0.24538216452E+01  0.18442124286E+02  0.51100000000E-03 0. -1.
        -12    1    3    3    0    0 -0.92501450845E+01 -0.74480875943E+01 -0.37798647083E+01  0.12463008068E+02  0.00000000000E+00 0.  1.
</event>
<event>
 7    1  0.3041451E-011  0.5052886E+02  0.7816164E-02  0.1300439E+00
        -11   -1    0    0    0    0  0.00000000000E+00  0.00000000000E+00  0.45593999997E+02  0.45594000000E+02  0.51100000000E-03 0.  1.
         11   -1    0    0    0    0 -0.00000000000E+00 -0.00000000000E+00 -0.45593999997E+02  0.45594000000E+02  0.51100000000E-03 0. -1.
    9900012    2    1    2    0    0 -0.63227784974E+01  0.16049361954E+02  0.36818555727E+02  0.50528860893E+02  0.30000003170E+02 0.  0.
         12    1    1    2    0    0  0.63227784974E+01 -0.16049361954E+02 -0.36818555727E+02  0.40659139107E+02  0.00000000000E+00 0. -1.
         11    1    3    3    0    0  0.59562200429E+01  0.16538936332E+01  0.25490190966E+02  0.26229025088E+02  0.51100000000E-03 0.  1.
        -11    1    3    3    0    0 -0.86409604366E+01  0.12039038634E+02  0.33089996043E+01  0.15184008928E+02  0.51100000000E-03 0. -1.
         12    1    3    3    0    0 -0.36380381036E+01  0.23564296873E+01  0.80193651572E+01  0.91158268763E+01  0.00000000000E+00 0. -1.
</event>
<event>
 7    1  0.3041451E-011  0.5052886E+02  0.7816164E-02  0.1300439E+00
        -11   -1    0    0    0    0  0.00000000000E+00  0.00000000000E+00  0.45593999997E+02  0.45594000000E+02  0.51100000000E-03 0.  1.
         11   -1    0    0    0    0 -0.00000000000E+00 -0.00000000000E+00 -0.45593999997E+02  0.45594000000E+02  0.51100000000E-03 0. -1.
    9900012    2    1    2    0    0  0.22897017669E+02  0.32685800244E+02 -0.77801458614E+01  0.50528860495E+02  0.30000001960E+02 0.  0.
         12    1    1    2    0    0 -0.22897017669E+02 -0.32685800244E+02  0.77801458614E+01  0.40659139505E+02  0.00000000000E+00 0. -1.
         11    1    3    3    0    0 -0.35521580721E+01  0.52440472701E+01 -0.15494477227E+01  0.65206324269E+01  0.51100000000E-03 0. -1.
        -11    1    3    3    0    0 -0.12058065696E+01  0.95241903874E+01  0.24976438151E+01  0.99197982291E+01  0.51100000000E-03 0.  1.
        -12    1    3    3    0    0  0.27654982310E+02  0.17917562586E+02 -0.87283419538E+01  0.34088429839E+02  0.00000000000E+00 0.  1.
</event>
<event>
 7    1  0.3041451E-011  0.5052885E+02  0.7816164E-02  0.1300439E+00
        -11   -1    0    0    0    0  0.00000000000E+00  0.00000000000E+00  0.45593999997E+02  0.45594000000E+02  0.51100000000E-03 0.  1.
         11   -1    0    0    0    0 -0.00000000000E+00 -0.00000000000E+00 -0.45593999997E+02  0.45594000000E+02  0.51100000000E-03 0. -1.
    9900012    2    1    2    0    0  0.36950024761E+02  0.20800849324E+01  0.16838498138E+02  0.50528854624E+02  0.29999984116E+02 0.  0.
         12    1    1    2    0    0 -0.36950024761E+02 -0.20800849324E+01 -0.16838498138E+02  0.40659145376E+02  0.00000000000E+00 0. -1.
         11    1    3    3    0    0 -0.19447456428E+00  0.29513528771E+01  0.97004573971E+01  0.10141359777E+02  0.51100000000E-03 0.  1.
        -11    1    3    3    0    0  0.15265498856E+02 -0.79476590024E+00 -0.40502305586E+01  0.15813648409E+02  0.51100000000E-03 0. -1.
        -12    1    3    3    0    0  0.21879000469E+02 -0.76502044463E-01  0.11188271299E+02  0.24573846438E+02  0.00000000000E+00 0.  1.
</event>
<event>
 7    1  0.3041451E-011  0.5052886E+02  0.7816164E-02  0.1300439E+00
        -11   -1    0    0    0    0  0.00000000000E+00  0.00000000000E+00  0.45593999997E+02  0.45594000000E+02  0.51100000000E-03 0.  1.
         11   -1    0    0    0    0 -0.00000000000E+00 -0.00000000000E+00 -0.45593999997E+02  0.45594000000E+02  0.51100000000E-03 0. -1.
    9900012    2    1    2    0    0 -0.29997158404E+02 -0.66260093999E+01  0.26635173938E+02  0.50528855843E+02  0.29999987820E+02 0.  0.
         12    1    1    2    0    0  0.29997158404E+02  0.66260093999E+01 -0.26635173938E+02  0.40659144157E+02  0.00000000000E+00 0. -1.
         11    1    3    3    0    0 -0.95634013204E+01  0.89392412707E+01  0.77063307039E+01  0.15190662016E+02  0.51100000000E-03 0. -1.
        -11    1    3    3    0    0 -0.20890356515E+02 -0.10942061386E+02  0.10717316854E+02  0.25903601748E+02  0.51100000000E-03 0.  1.
        -12    1    3    3    0    0  0.45659943175E+00 -0.46231892844E+01  0.82115263803E+01  0.94345920789E+01  0.00000000000E+00 0.  1.
</event>
<event>
 7    1  0.3041451E-011  0.5052886E+02  0.7816164E-02  0.1300439E+00
        -11   -1    0    0    0    0  0.00000000000E+00  0.00000000000E+00  0.45593999997E+02  0.45594000000E+02  0.51100000000E-03 0. -1.
         11   -1    0    0    0    0 -0.00000000000E+00 -0.00000000000E+00 -0.45593999997E+02  0.45594000000E+02  0.51100000000E-03 0.  1.
    9900012    2    1    2    0    0 -0.23343669838E+02 -0.30987006523E+01 -0.33145688364E+02  0.50528861736E+02  0.30000005732E+02 0.  0.
         12    1    1    2    0    0  0.23343669838E+02  0.30987006523E+01  0.33145688364E+02  0.40659138264E+02  0.00000000000E+00 0. -1.
         11    1    3    3    0    0 -0.13583876352E+02 -0.12483100411E+02 -0.78225724824E+01  0.20038516241E+02  0.51100000000E-03 0. -1.
        -11    1    3    3    0    0  0.22240720876E+00  0.62197036879E+01 -0.12249197629E+02  0.13739615051E+02  0.51100000000E-03 0.  1.
        -12    1    3    3    0    0 -0.99822006949E+01  0.31646960711E+01 -0.13073918253E+02  0.16750730444E+02  0.00000000000E+00 0.  1.
</event>
<event>
 7    1  0.3041451E-011  0.5052886E+02  0.7816164E-02  0.1300439E+00
        -11   -1    0    0    0    0  0.00000000000E+00  0.00000000000E+00  0.45593999997E+02  0.45594000000E+02  0.51100000000E-03 0. -1.
         11   -1    0    0    0    0 -0.00000000000E+00 -0.00000000000E+00 -0.45593999997E+02  0.45594000000E+02  0.51100000000E-03 0.  1.
    9900012    2    1    2    0    0  0.13784860564E+02 -0.31250183758E+02 -0.22058318267E+02  0.50528858710E+02  0.29999996536E+02 0.  0.
         12    1    1    2    0    0 -0.13784860564E+02  0.31250183758E+02  0.22058318267E+02  0.40659141290E+02  0.00000000000E+00 0. -1.
         11    1    3    3    0    0 -0.15195558172E+01 -0.18390591264E+02 -0.27696877029E+01  0.18659958927E+02  0.51100000000E-03 0. -1.
        -11    1    3    3    0    0  0.83397283407E+01 -0.90026991200E+01 -0.20423752348E+02  0.23827071169E+02  0.51100000000E-03 0.  1.
         12    1    3    3    0    0  0.69646880405E+01 -0.38568933735E+01  0.11351217848E+01  0.80418286143E+01  0.00000000000E+00 0. -1.
</event>
<event>
 7    1  0.3041451E-011  0.5052887E+02  0.7816164E-02  0.1300439E+00
        -11   -1    0    0    0    0  0.00000000000E+00  0.00000000000E+00  0.45593999997E+02  0.45594000000E+02  0.51100000000E-03 0. -1.
         11   -1    0    0    0    0 -0.00000000000E+00 -0.00000000000E+00 -0.45593999997E+02  0.45594000000E+02  0.51100000000E-03 0.  1.
    9900012    2    1    2    0    0 -0.40049336789E+02  0.55246517711E+01  0.43236586178E+01  0.50528865992E+02  0.30000018670E+02 0.  0.
         12    1    1    2    0    0  0.40049336789E+02 -0.55246517711E+01 -0.43236586178E+01  0.40659134008E+02  0.00000000000E+00 0. -1.
         11    1    3    3    0    0 -0.15254603892E+01  0.83281920288E+01 -0.28306804138E+01  0.89274052073E+01  0.51100000000E-03 0. -1.
        -11    1    3    3    0    0 -0.30810738153E+02  0.10646281148E+01  0.10166348578E+02  0.32462126582E+02  0.51100000000E-03 0.  1.
        -12    1    3    3    0    0 -0.77131382464E+01 -0.38681683725E+01 -0.30120095458E+01  0.91393342028E+01  0.00000000000E+00 0.  1.
</event>
<event>
 7    1  0.3041451E-011  0.5052886E+02  0.7816164E-02  0.1300439E+00
        -11   -1    0    0    0    0  0.00000000000E+00  0.00000000000E+00  0.45593999997E+02  0.45594000000E+02  0.51100000000E-03 0.  1.
         11   -1    0    0    0    0 -0.00000000000E+00 -0.00000000000E+00 -0.45593999997E+02  0.45594000000E+02  0.51100000000E-03 0. -1.
    9900012    2    1    2    0    0  0.21492611249E+02 -0.33143401272E+02  0.96305812405E+01  0.50528862266E+02  0.30000007345E+02 0.  0.
         12    1    1    2    0    0 -0.21492611249E+02  0.33143401272E+02 -0.96305812405E+01  0.40659137734E+02  0.00000000000E+00 0. -1.
         11    1    3    3    0    0  0.21814409083E+01 -0.11634106425E+02  0.29756548655E+01  0.12205148049E+02  0.51100000000E-03 0.  1.
        -11    1    3    3    0    0 -0.47258770888E+00  0.18553373518E+01 -0.51629907686E+01  0.55065497155E+01  0.51100000000E-03 0. -1.
        -12    1    3    3    0    0  0.19783758050E+02 -0.23364632199E+02  0.11817917144E+02  0.32817164502E+02  0.00000000000E+00 0.  1.
</event>
<event>
 7    1  0.3041451E-011  0.5052888E+02  0.7816164E-02  0.1300439E+00
        -11   -1    0    0    0    0  0.00000000000E+00  0.00000000000E+00  0.45593999997E+02  0.45594000000E+02  0.51100000000E-03 0. -1.
         11   -1    0    0    0    0 -0.00000000000E+00 -0.00000000000E+00 -0.45593999997E+02  0.45594000000E+02  0.51100000000E-03 0.  1.
    9900012    2    1    2    0    0  0.18360095131E+02  0.35276330182E+02 -0.84647249280E+01  0.50528878853E+02  0.30000057762E+02 0.  0.
         12    1    1    2    0    0 -0.18360095131E+02 -0.35276330182E+02  0.84647249280E+01  0.40659121147E+02  0.00000000000E+00 0. -1.
         11    1    3    3    0    0 -0.73521978603E+01  0.56586402525E+01 -0.26160409177E+01  0.96394342795E+01  0.51100000000E-03 0. -1.
        -11    1    3    3    0    0  0.14276817587E+02  0.10566592119E+02 -0.57507789724E+01  0.18669543338E+02  0.51100000000E-03 0.  1.
        -12    1    3    3    0    0  0.11435475404E+02  0.19051097811E+02 -0.97905037943E-01  0.22219901236E+02  0.00000000000E+00 0.  1.
</event>
<event>
 7    1  0.3041451E-011  0.5052886E+02  0.7816164E-02  0.1300439E+00
        -11   -1    0    0    0    0  0.00000000000E+00  0.00000000000E+00  0.45593999997E+02  0.45594000000E+02  0.51100000000E-03 0.  1.
         11   -1    0    0    0    0 -0.00000000000E+00 -0.00000000000E+00 -0.45593999997E+02  0.45594000000E+02  0.51100000000E-03 0. -1.
    9900012    2    1    2    0    0 -0.16982887385E+02  0.17286176639E+02  0.32648667508E+02  0.50528857648E+02  0.29999993308E+02 0.  0.
         12    1    1    2    0    0  0.16982887385E+02 -0.17286176639E+02 -0.32648667508E+02  0.40659142352E+02  0.00000000000E+00 0. -1.
         11    1    3    3    0    0  0.28730671962E+01 -0.16104303580E+01 -0.58429205551E+00  0.33450558320E+01  0.51100000000E-03 0. -1.
        -11    1    3    3    0    0 -0.14604852577E+02  0.17677940412E+01  0.20377826759E+02  0.25133297402E+02  0.51100000000E-03 0.  1.
        -12    1    3    3    0    0 -0.52511020036E+01  0.17128812956E+02  0.12855132804E+02  0.22050504415E+02  0.00000000000E+00 0.  1.
</event>
<event>
 7    1  0.3123078E-011  0.5052884E+02  0.7816164E-02  0.1300439E+00
        -11   -1    0    0    0    0  0.00000000000E+00  0.00000000000E+00  0.45593999997E+02  0.45594000000E+02  0.51100000000E-03 0.  1.
         11   -1    0    0    0    0 -0.00000000000E+00 -0.00000000000E+00 -0.45593999997E+02  0.45594000000E+02  0.51100000000E-03 0. -1.
    9900012    2    1    2    0    0  0.35840953441E+02  0.11787729738E+02  0.15153958846E+02  0.50528843778E+02  0.29999951149E+02 0.  0.
         12    1    1    2    0    0 -0.35840953441E+02 -0.11787729738E+02 -0.15153958846E+02  0.40659156222E+02  0.00000000000E+00 0. -1.
         11    1    3    3    0    0 -0.33217431697E+01 -0.14431832090E+01  0.31242623187E+01  0.47830712683E+01  0.51100000000E-03 0. -1.
        -11    1    3    3    0    0  0.25357793037E+02  0.15781276693E+02  0.10336465129E+02  0.31605519666E+02  0.51100000000E-03 0.  1.
         12    1    3    3    0    0  0.13804903574E+02 -0.25503637460E+01  0.16932313989E+01  0.14140252844E+02  0.00000000000E+00 0. -1.
</event>
<event>
 7    1  0.3041451E-011  0.5052886E+02  0.7816164E-02  0.1300439E+00
        -11   -1    0    0    0    0  0.00000000000E+00  0.00000000000E+00  0.45593999997E+02  0.45594000000E+02  0.51100000000E-03 0. -1.
         11   -1    0    0    0    0 -0.00000000000E+00 -0.00000000000E+00 -0.45593999997E+02  0.45594000000E+02  0.51100000000E-03 0.  1.
    9900012    2    1    2    0    0  0.29851631450E+02  0.15173456328E+02 -0.23061044727E+02  0.50528862514E+02  0.30000008099E+02 0.  0.
         12    1    1    2    0    0 -0.29851631450E+02 -0.15173456328E+02  0.23061044727E+02  0.40659137486E+02  0.00000000000E+00 0. -1.
         11    1    3    3    0    0  0.95298438617E+01  0.16333565185E+02 -0.42134540477E+00  0.18915094710E+02  0.51100000000E-03 0. -1.
        -11    1    3    3    0    0  0.12333593308E+02  0.34411127093E+01 -0.14117858800E+02  0.19059714529E+02  0.51100000000E-03 0.  1.
         12    1    3    3    0    0  0.79881942802E+01 -0.46012215662E+01 -0.85218405219E+01  0.12554053275E+02  0.00000000000E+00 0. -1.
</event>
<event>
 7    1  0.3041451E-011  0.5052886E+02  0.7816164E-02  0.1300439E+00
        -11   -1    0    0    0    0  0.00000000000E+00  0.00000000000E+00  0.45593999997E+02  0.45594000000E+02  0.51100000000E-03 0.  1.
         11   -1    0    0    0    0 -0.00000000000E+00 -0.00000000000E+00 -0.45593999997E+02  0.45594000000E+02  0.51100000000E-03 0. -1.
    9900012    2    1    2    0    0 -0.34717452901E+02 -0.10159777776E+01  0.21138406832E+02  0.50528856008E+02  0.29999988321E+02 0.  0.
         12    1    1    2    0    0  0.34717452901E+02  0.10159777776E+01 -0.21138406832E+02  0.40659143992E+02  0.00000000000E+00 0. -1.
         11    1    3    3    0    0 -0.34675102025E+02 -0.22592922514E+01  0.59397093012E+01  0.35252620453E+02  0.51100000000E-03 0. -1.
        -11    1    3    3    0    0 -0.44376529559E+00  0.87715125187E+00  0.10625559273E+02  0.10670933984E+02  0.51100000000E-03 0.  1.
         12    1    3    3    0    0  0.40141441985E+00  0.36616322185E+00  0.45731382573E+01  0.46053015712E+01  0.00000000000E+00 0. -1.
</event>
<event>
 7    1  0.3041451E-011  0.5052886E+02  0.7816164E-02  0.1300439E+00
        -11   -1    0    0    0    0  0.00000000000E+00  0.00000000000E+00  0.45593999997E+02  0.45594000000E+02  0.51100000000E-03 0. -1.
         11   -1    0    0    0    0 -0.00000000000E+00 -0.00000000000E+00 -0.45593999997E+02  0.45594000000E+02  0.51100000000E-03 0.  1.
    9900012    2    1    2    0    0 -0.28560354205E+02 -0.61244592822E-01 -0.28939039672E+02  0.50528860802E+02  0.30000002892E+02 0.  0.
         12    1    1    2    0    0  0.28560354205E+02  0.61244592822E-01  0.28939039672E+02  0.40659139198E+02  0.00000000000E+00 0. -1.
         11    1    3    3    0    0 -0.17844867888E+02  0.68655842847E+01 -0.29794053723E+01  0.19350772960E+02  0.51100000000E-03 0. -1.
        -11    1    3    3    0    0 -0.23370020886E+01 -0.87117934670E+00 -0.17891642374E+02  0.18064645009E+02  0.51100000000E-03 0.  1.
        -12    1    3    3    0    0 -0.83784842286E+01 -0.60556495308E+01 -0.80679919260E+01  0.13113442833E+02  0.00000000000E+00 0.  1.
</event>
<event>
 7    1  0.3041451E-011  0.5052886E+02  0.7816164E-02  0.1300439E+00
        -11   -1    0    0    0    0  0.00000000000E+00  0.00000000000E+00  0.45593999997E+02  0.45594000000E+02  0.51100000000E-03 0.  1.
         11   -1    0    0    0    0 -0.00000000000E+00 -0.00000000000E+00 -0.45593999997E+02  0.45594000000E+02  0.51100000000E-03 0. -1.
    9900012    2    1    2    0    0 -0.28695262789E+02  0.28733760071E+02 -0.20293483128E+01  0.50528864140E+02  0.30000013039E+02 0.  0.
         12    1    1    2    0    0  0.28695262789E+02 -0.28733760071E+02  0.20293483128E+01  0.40659135860E+02  0.00000000000E+00 0. -1.
         11    1    3    3    0    0 -0.11295632125E+02 -0.39330415480E+01 -0.31125436353E+01  0.12359128168E+02  0.51100000000E-03 0. -1.
        -11    1    3    3    0    0 -0.86462866722E+01  0.18436017253E+02  0.50884510444E+01  0.20988981387E+02  0.51100000000E-03 0.  1.
        -12    1    3    3    0    0 -0.87533439916E+01  0.14230784366E+02 -0.40052557219E+01  0.17180754585E+02  0.00000000000E+00 0.  1.
</event>
<event>
 7    1  0.3041451E-011  0.5052886E+02  0.7816164E-02  0.1300439E+00
        -11   -1    0    0    0    0  0.00000000000E+00  0.00000000000E+00  0.45593999997E+02  0.45594000000E+02  0.51100000000E-03 0.  1.
         11   -1    0    0    0    0 -0.00000000000E+00 -0.00000000000E+00 -0.45593999997E+02  0.45594000000E+02  0.51100000000E-03 0. -1.
    9900012    2    1    2    0    0 -0.23008646757E+02 -0.85895647491E+01  0.32403501219E+02  0.50528864010E+02  0.30000012645E+02 0.  0.
         12    1    1    2    0    0  0.23008646757E+02  0.85895647491E+01 -0.32403501219E+02  0.40659135990E+02  0.00000000000E+00 0. -1.
         11    1    3    3    0    0 -0.14337844720E+02 -0.16606483767E+02  0.19122574489E+02  0.29103641519E+02  0.51100000000E-03 0. -1.
        -11    1    3    3    0    0 -0.11113575450E+02  0.76637431313E+01  0.82490147059E+01  0.15820580329E+02  0.51100000000E-03 0.  1.
         12    1    3    3    0    0  0.24427734120E+01  0.35317588698E+00  0.50319120243E+01  0.56046421625E+01  0.00000000000E+00 0. -1.
</event>
<event>
 7    1  0.3041451E-011  0.5052887E+02  0.7816164E-02  0.1300439E+00
        -11   -1    0    0    0    0  0.00000000000E+00  0.00000000000E+00  0.45593999997E+02  0.45594000000E+02  0.51100000000E-03 0.  1.
         11   -1    0    0    0    0 -0.00000000000E+00 -0.00000000000E+00 -0.45593999997E+02  0.45594000000E+02  0.51100000000E-03 0. -1.
    9900012    2    1    2    0    0  0.27081449350E+01 -0.37501079650E+02  0.15475795080E+02  0.50528865020E+02  0.30000015715E+02 0.  0.
         12    1    1    2    0    0 -0.27081449350E+01  0.37501079650E+02 -0.15475795080E+02  0.40659134980E+02  0.00000000000E+00 0. -1.
         11    1    3    3    0    0  0.87483047823E+01 -0.86419281086E+01 -0.46371734261E+01  0.13142265240E+02  0.51100000000E-03 0. -1.
        -11    1    3    3    0    0 -0.29014842797E+01 -0.68430688479E+01  0.11170329234E+02  0.13417244789E+02  0.51100000000E-03 0.  1.
        -12    1    3    3    0    0 -0.31386755676E+01 -0.22016082694E+02  0.89426392722E+01  0.23969354991E+02  0.00000000000E+00 0.  1.
</event>
<event>
 7    1  0.3041451E-011  0.5052886E+02  0.7816164E-02  0.1300439E+00
        -11   -1    0    0    0    0  0.00000000000E+00  0.00000000000E+00  0.45593999997E+02  0.45594000000E+02  0.51100000000E-03 0.  1.
         11   -1    0    0    0    0 -0.00000000000E+00 -0.00000000000E+00 -0.45593999997E+02  0.45594000000E+02  0.51100000000E-03 0. -1.
    9900012    2    1    2    0    0  0.17541118510E+01 -0.35362459200E+02  0.19989623725E+02  0.50528862211E+02  0.30000007175E+02 0.  0.
         12    1    1    2    0    0 -0.17541118510E+01  0.35362459200E+02 -0.19989623725E+02  0.40659137789E+02  0.00000000000E+00 0. -1.
         11    1    3    3    0    0 -0.14477139828E+01 -0.58529275706E+00  0.63118955606E+01  0.65021895709E+01  0.51100000000E-03 0. -1.
        -11    1    3    3    0    0 -0.28590758972E+01 -0.35402067828E+02  0.99537874924E+01  0.36885750734E+02  0.51100000000E-03 0.  1.
        -12    1    3    3    0    0  0.60609017310E+01  0.62490138469E+00  0.37239406724E+01  0.71409219059E+01  0.00000000000E+00 0.  1.
</event>
<event>
 7    1  0.3041451E-011  0.5052886E+02  0.7816164E-02  0.1300439E+00
        -11   -1    0    0    0    0  0.00000000000E+00  0.00000000000E+00  0.45593999997E+02  0.45594000000E+02  0.51100000000E-03 0.  1.
         11   -1    0    0    0    0 -0.00000000000E+00 -0.00000000000E+00 -0.45593999997E+02  0.45594000000E+02  0.51100000000E-03 0. -1.
    9900012    2    1    2    0    0  0.10713973396E+02 -0.36779140421E+02  0.13626123133E+02  0.50528860466E+02  0.30000001873E+02 0.  0.
         12    1    1    2    0    0 -0.10713973396E+02  0.36779140421E+02 -0.13626123133E+02  0.40659139534E+02  0.00000000000E+00 0. -1.
         11    1    3    3    0    0 -0.81131119935E+01 -0.61662628403E+01  0.19203674057E+00  0.10192264812E+02  0.51100000000E-03 0. -1.
        -11    1    3    3    0    0  0.82421547565E+01 -0.60344751218E+01  0.81295155386E+01  0.13055153319E+02  0.51100000000E-03 0.  1.
         12    1    3    3    0    0  0.10584930633E+02 -0.24578402459E+02  0.53045708534E+01  0.27281442335E+02  0.00000000000E+00 0. -1.
</event>
<event>
 7    1  0.3041451E-011  0.5052883E+02  0.7816164E-02  0.1300439E+00
        -11   -1    0    0    0    0  0.00000000000E+00  0.00000000000E+00  0.45593999997E+02  0.45594000000E+02  0.51100000000E-03 0.  1.
         11   -1    0    0    0    0 -0.00000000000E+00 -0.00000000000E+00 -0.45593999997E+02  0.45594000000E+02  0.51100000000E-03 0. -1.
    9900012    2    1    2    0    0 -0.32525457062E+02  0.79612890417E+01  0.23062528688E+02  0.50528834861E+02  0.29999924045E+02 0.  0.
         12    1    1    2    0    0  0.32525457062E+02 -0.79612890417E+01 -0.23062528688E+02  0.40659165139E+02  0.00000000000E+00 0. -1.
         11    1    3    3    0    0 -0.12064213559E+02  0.67572105542E+01 -0.25472871569E+01  0.14060363274E+02  0.51100000000E-03 0. -1.
        -11    1    3    3    0    0 -0.61095954030E+01 -0.70644885803E+01  0.80599046229E+01  0.12336783117E+02  0.51100000000E-03 0.  1.
         12    1    3    3    0    0 -0.14351648100E+02  0.82685670678E+01  0.17549911222E+02  0.24131688471E+02  0.00000000000E+00 0. -1.
</event>
<event>
 7    1  0.3041451E-011  0.5052885E+02  0.7816164E-02  0.1300439E+00
        -11   -1    0    0    0    0  0.00000000000E+00  0.00000000000E+00  0.45593999997E+02  0.45594000000E+02  0.51100000000E-03 0. -1.
         11   -1    0    0    0    0 -0.00000000000E+00 -0.00000000000E+00 -0.45593999997E+02  0.45594000000E+02  0.51100000000E-03 0.  1.
    9900012    2    1    2    0    0 -0.27420950720E+02 -0.58573697728E+01 -0.29443997246E+02  0.50528852286E+02  0.29999977007E+02 0.  0.
         12    1    1    2    0    0  0.27420950720E+02  0.58573697728E+01  0.29443997246E+02  0.40659147714E+02  0.00000000000E+00 0. -1.
         11    1    3    3    0    0 -0.74810648904E+01 -0.87439457978E+01 -0.82269810700E+01  0.14145887664E+02  0.51100000000E-03 0. -1.
        -11    1    3    3    0    0 -0.15361346697E+02  0.37140847397E+01 -0.25538458175E+02  0.30032952636E+02  0.51100000000E-03 0.  1.
        -12    1    3    3    0    0 -0.45785391328E+01 -0.82750871473E+00  0.43214419996E+01  0.63500119858E+01  0.00000000000E+00 0.  1.
</event>
<event>
 7    1  0.3041451E-011  0.5052885E+02  0.7816164E-02  0.1300439E+00
        -11   -1    0    0    0    0  0.00000000000E+00  0.00000000000E+00  0.45593999997E+02  0.45594000000E+02  0.51100000000E-03 0.  1.
         11   -1    0    0    0    0 -0.00000000000E+00 -0.00000000000E+00 -0.45593999997E+02  0.45594000000E+02  0.51100000000E-03 0. -1.
    9900012    2    1    2    0    0  0.50215162145E+01  0.20219356975E+02  0.34916014677E+02  0.50528854626E+02  0.29999984123E+02 0.  0.
         12    1    1    2    0    0 -0.50215162145E+01 -0.20219356975E+02 -0.34916014677E+02  0.40659145374E+02  0.00000000000E+00 0. -1.
         11    1    3    3    0    0  0.10138868115E+02  0.18933623899E+02  0.26211991200E+02  0.33887272589E+02  0.51100000000E-03 0.  1.
        -11    1    3    3    0    0 -0.42014832793E+01  0.60815933964E+01  0.91420695969E+00  0.74480879836E+01  0.51100000000E-03 0. -1.
         12    1    3    3    0    0 -0.91586862102E+00 -0.47958603203E+01  0.77898165171E+01  0.91934940536E+01  0.00000000000E+00 0. -1.
</event>
<event>
 7    1  0.3041451E-011  0.5052887E+02  0.7816164E-02  0.1300439E+00
        -11   -1    0    0    0    0  0.00000000000E+00  0.00000000000E+00  0.45593999997E+02  0.45594000000E+02  0.51100000000E-03 0.  1.
         11   -1    0    0    0    0 -0.00000000000E+00 -0.00000000000E+00 -0.45593999997E+02  0.45594000000E+02  0.51100000000E-03 0. -1.
    9900012    2    1    2    0    0  0.39706285699E+02  0.87054636547E+01 -0.88931264380E+00  0.50528866974E+02  0.30000021653E+02 0.  0.
         12    1    1    2    0    0 -0.39706285699E+02 -0.87054636547E+01  0.88931264380E+00  0.40659133026E+02  0.00000000000E+00 0. -1.
         11    1    3    3    0    0  0.82736042817E+01  0.10469172411E+02  0.17320171651E+00  0.13344890328E+02  0.51100000000E-03 0.  1.
        -11    1    3    3    0    0  0.19463419523E+02 -0.10481524037E+02 -0.27665151941E+01  0.22278704008E+02  0.51100000000E-03 0. -1.
         12    1    3    3    0    0  0.11969261894E+02  0.87178152806E+01  0.17040008338E+01  0.14905272638E+02  0.00000000000E+00 0. -1.
</event>
<event>
 7    1  0.3041451E-011  0.5052887E+02  0.7816164E-02  0.1300439E+00
        -11   -1    0    0    0    0  0.00000000000E+00  0.00000000000E+00  0.45593999997E+02  0.45594000000E+02  0.51100000000E-03 0. -1.
         11   -1    0    0    0    0 -0.00000000000E+00 -0.00000000000E+00 -0.45593999997E+02  0.45594000000E+02  0.51100000000E-03 0.  1.
    9900012    2    1    2    0    0  0.23015676664E+02  0.24741162856E+02 -0.22612357017E+02  0.50528865705E+02  0.30000017798E+02 0.  0.
         12    1    1    2    0    0 -0.23015676664E+02 -0.24741162856E+02  0.22612357017E+02  0.40659134295E+02  0.00000000000E+00 0. -1.
         11    1    3    3    0    0  0.11187817470E+02  0.44385920965E+01  0.53292618844E+01  0.13163183203E+02  0.51100000000E-03 0. -1.
        -11    1    3    3    0    0  0.92130053521E+01  0.94343438810E+01 -0.11576164009E+02  0.17546905297E+02  0.51100000000E-03 0.  1.
         12    1    3    3    0    0  0.26148538422E+01  0.10868226879E+02 -0.16365454892E+02  0.19818777206E+02  0.00000000000E+00 0. -1.
</event>
<event>
 7    1  0.3041451E-011  0.5052887E+02  0.7816164E-02  0.1300439E+00
        -11   -1    0    0    0    0  0.00000000000E+00  0.00000000000E+00  0.45593999997E+02  0.45594000000E+02  0.51100000000E-03 0. -1.
         11   -1    0    0    0    0 -0.00000000000E+00 -0.00000000000E+00 -0.45593999997E+02  0.45594000000E+02  0.51100000000E-03 0.  1.
    9900012    2    1    2    0    0  0.20507889535E+02 -0.21976796833E+02 -0.27379042353E+02  0.50528867048E+02  0.30000021881E+02 0.  0.
         12    1    1    2    0    0 -0.20507889535E+02  0.21976796833E+02  0.27379042353E+02  0.40659132952E+02  0.00000000000E+00 0. -1.
         11    1    3    3    0    0 -0.19082114014E+01 -0.45436895404E+01 -0.51218697807E+01  0.71077377346E+01  0.51100000000E-03 0.  1.
        -11    1    3    3    0    0  0.64672783442E+01  0.54565142268E+01 -0.13732493806E+01  0.85723422010E+01  0.51100000000E-03 0. -1.
        -12    1    3    3    0    0  0.15948822592E+02 -0.22889621519E+02 -0.20883923192E+02  0.34848787113E+02  0.00000000000E+00 0.  1.
</event>
<event>
 7    1  0.3041451E-011  0.5052886E+02  0.7816164E-02  0.1300439E+00
        -11   -1    0    0    0    0  0.00000000000E+00  0.00000000000E+00  0.45593999997E+02  0.45594000000E+02  0.51100000000E-03 0. -1.
         11   -1    0    0    0    0 -0.00000000000E+00 -0.00000000000E+00 -0.45593999997E+02  0.45594000000E+02  0.51100000000E-03 0.  1.
    9900012    2    1    2    0    0  0.40555824690E+02 -0.24315204864E+01  0.15741827472E+01  0.50528864994E+02  0.30000015635E+02 0.  0.
         12    1    1    2    0    0 -0.40555824690E+02  0.24315204864E+01 -0.15741827472E+01  0.40659135006E+02  0.00000000000E+00 0. -1.
         11    1    3    3    0    0  0.63720493401E+01 -0.81589560510E+01  0.36475788218E+01  0.10976174568E+02  0.51100000000E-03 0. -1.
        -11    1    3    3    0    0  0.27047796837E+02 -0.28128481427E+01 -0.58205673338E+01  0.27809610438E+02  0.51100000000E-03 0.  1.
        -12    1    3    3    0    0  0.71359785128E+01  0.85402837073E+01  0.37471712591E+01  0.11743079987E+02  0.00000000000E+00 0.  1.
</event>
<event>
 7    1  0.3041451E-011  0.5052886E+02  0.7816164E-02  0.1300439E+00
        -11   -1    0    0    0    0  0.00000000000E+00  0.00000000000E+00  0.45593999997E+02  0.45594000000E+02  0.51100000000E-03 0.  1.
         11   -1    0    0    0    0 -0.00000000000E+00 -0.00000000000E+00 -0.45593999997E+02  0.45594000000E+02  0.51100000000E-03 0. -1.
    9900012    2    1    2    0    0 -0.40645490552E+02  0.84262295298E+00  0.63223210780E+00  0.50528860399E+02  0.30000001668E+02 0.  0.
         12    1    1    2    0    0  0.40645490552E+02 -0.84262295298E+00 -0.63223210780E+00  0.40659139601E+02  0.00000000000E+00 0. -1.
         11    1    3    3    0    0 -0.20361147461E+02 -0.44129121981E+00 -0.14054300668E+02  0.24744583880E+02  0.51100000000E-03 0. -1.
        -11    1    3    3    0    0 -0.54694054111E+01 -0.11655005093E+00  0.74341786718E+01  0.92301133390E+01  0.51100000000E-03 0.  1.
         12    1    3    3    0    0 -0.14814937680E+02  0.14004642237E+01  0.72523541044E+01  0.16554163179E+02  0.00000000000E+00 0. -1.
</event>
<event>
 7    1  0.3041451E-011  0.5052884E+02  0.7816164E-02  0.1300439E+00
        -11   -1    0    0    0    0  0.00000000000E+00  0.00000000000E+00  0.45593999997E+02  0.45594000000E+02  0.51100000000E-03 0. -1.
         11   -1    0    0    0    0 -0.00000000000E+00 -0.00000000000E+00 -0.45593999997E+02  0.45594000000E+02  0.51100000000E-03 0.  1.
    9900012    2    1    2    0    0 -0.96027125780E+01  0.37359099494E+02  0.12855062161E+02  0.50528843257E+02  0.29999949564E+02 0.  0.
         12    1    1    2    0    0  0.96027125780E+01 -0.37359099494E+02 -0.12855062161E+02  0.40659156743E+02  0.00000000000E+00 0. -1.
         11    1    3    3    0    0 -0.48967535466E+01  0.65591523814E+01  0.73062558198E+01  0.10971875392E+02  0.51100000000E-03 0. -1.
        -11    1    3    3    0    0  0.93738642013E+01  0.11919634659E+02 -0.73196065801E+00  0.15181659565E+02  0.51100000000E-03 0.  1.
        -12    1    3    3    0    0 -0.14079823233E+02  0.18880312454E+02  0.62807669996E+01  0.24375308300E+02  0.00000000000E+00 0.  1.
</event>
<event>
 7    1  0.3041451E-011  0.5052885E+02  0.7816164E-02  0.1300439E+00
        -11   -1    0    0    0    0  0.00000000000E+00  0.00000000000E+00  0.45593999997E+02  0.45594000000E+02  0.51100000000E-03 0. -1.
         11   -1    0    0    0    0 -0.00000000000E+00 -0.00000000000E+00 -0.45593999997E+02  0.45594000000E+02  0.51100000000E-03 0.  1.
    9900012    2    1    2    0    0 -0.40534966074E+02  0.76954093362E+00  0.30807618215E+01  0.50528846525E+02  0.29999959498E+02 0.  0.
         12    1    1    2    0    0  0.40534966074E+02 -0.76954093362E+00 -0.30807618215E+01  0.40659153475E+02  0.00000000000E+00 0. -1.
         11    1    3    3    0    0 -0.15518946940E+02 -0.84082323015E+01  0.81459760173E+01  0.19439470417E+02  0.51100000000E-03 0.  1.
        -11    1    3    3    0    0 -0.34160766294E+01  0.97542552284E+00 -0.70549710815E+01  0.78989652304E+01  0.51100000000E-03 0. -1.
         12    1    3    3    0    0 -0.21599942505E+02  0.82023477123E+01  0.19897568857E+01  0.23190410877E+02  0.00000000000E+00 0. -1.
</event>
<event>
 7    1  0.3041451E-011  0.5052886E+02  0.7816164E-02  0.1300439E+00
        -11   -1    0    0    0    0  0.00000000000E+00  0.00000000000E+00  0.45593999997E+02  0.45594000000E+02  0.51100000000E-03 0. -1.
         11   -1    0    0    0    0 -0.00000000000E+00 -0.00000000000E+00 -0.45593999997E+02  0.45594000000E+02  0.51100000000E-03 0.  1.
    9900012    2    1    2    0    0  0.59792966878E+01 -0.18716202353E+02 -0.35596591861E+02  0.50528861156E+02  0.30000003970E+02 0.  0.
         12    1    1    2    0    0 -0.59792966878E+01  0.18716202353E+02  0.35596591861E+02  0.40659138844E+02  0.00000000000E+00 0. -1.
         11    1    3    3    0    0  0.40025336857E+01  0.51796292990E+01 -0.19689117739E+01  0.68356016133E+01  0.51100000000E-03 0. -1.
        -11    1    3    3    0    0  0.29883738075E+01 -0.12253961834E+02 -0.28027660339E+02  0.30734991508E+02  0.51100000000E-03 0.  1.
         12    1    3    3    0    0 -0.10116108054E+01 -0.11641869818E+02 -0.56000197484E+01  0.12958268035E+02  0.00000000000E+00 0. -1.
</event>
<event>
 7    1  0.3041451E-011  0.5052886E+02  0.7816164E-02  0.1300439E+00
        -11   -1    0    0    0    0  0.00000000000E+00  0.00000000000E+00  0.45593999997E+02  0.45594000000E+02  0.51100000000E-03 0.  1.
         11   -1    0    0    0    0 -0.00000000000E+00 -0.00000000000E+00 -0.45593999997E+02  0.45594000000E+02  0.51100000000E-03 0. -1.
    9900012    2    1    2    0    0  0.68000213954E+01 -0.31083647787E+02  0.25312690719E+02  0.50528858812E+02  0.29999996844E+02 0.  0.
         12    1    1    2    0    0 -0.68000213954E+01  0.31083647787E+02 -0.25312690719E+02  0.40659141188E+02  0.00000000000E+00 0. -1.
         11    1    3    3    0    0  0.95993193497E+01 -0.80747077743E+01  0.19749355475E+02  0.23396257811E+02  0.51100000000E-03 0. -1.
        -11    1    3    3    0    0 -0.66831171364E+01 -0.21259567196E+02  0.49586606754E+01  0.22830277439E+02  0.51100000000E-03 0.  1.
        -12    1    3    3    0    0  0.38838191821E+01 -0.17493728174E+01  0.60467456824E+00  0.43023235614E+01  0.00000000000E+00 0.  1.
</event>
<event>
 7    1  0.3041451E-011  0.5052886E+02  0.7816164E-02  0.1300439E+00
        -11   -1    0    0    0    0  0.00000000000E+00  0.00000000000E+00  0.45593999997E+02  0.45594000000E+02  0.51100000000E-03 0.  1.
         11   -1    0    0    0    0 -0.00000000000E+00 -0.00000000000E+00 -0.45593999997E+02  0.45594000000E+02  0.51100000000E-03 0. -1.
    9900012    2    1    2    0    0  0.18469416088E+02 -0.16901963066E+02  0.32037013554E+02  0.50528856827E+02  0.29999990811E+02 0.  0.
         12    1    1    2    0    0 -0.18469416088E+02  0.16901963066E+02 -0.32037013554E+02  0.40659143173E+02  0.00000000000E+00 0. -1.
         11    1    3    3    0    0 -0.11371136218E+01 -0.43736069763E+01  0.72924789642E+00  0.45774739899E+01  0.51100000000E-03 0. -1.
        -11    1    3    3    0    0  0.15444738351E+02  0.40122386583E+01  0.19547986329E+02  0.25234139010E+02  0.51100000000E-03 0.  1.
        -12    1    3    3    0    0  0.41617913586E+01 -0.16540594748E+02  0.11759779329E+02  0.20717243827E+02  0.00000000000E+00 0.  1.
</event>
<event>
 7    1  0.3041451E-011  0.5052886E+02  0.7816164E-02  0.1300439E+00
        -11   -1    0    0    0    0  0.00000000000E+00  0.00000000000E+00  0.45593999997E+02  0.45594000000E+02  0.51100000000E-03 0.  1.
         11   -1    0    0    0    0 -0.00000000000E+00 -0.00000000000E+00 -0.45593999997E+02  0.45594000000E+02  0.51100000000E-03 0. -1.
    9900012    2    1    2    0    0 -0.19330633323E+02  0.24226123246E+02  0.26317049786E+02  0.50528861524E+02  0.30000005088E+02 0.  0.
         12    1    1    2    0    0  0.19330633323E+02 -0.24226123246E+02 -0.26317049786E+02  0.40659138476E+02  0.00000000000E+00 0. -1.
         11    1    3    3    0    0 -0.30774876447E+01 -0.30548712080E+01 -0.76823030115E+00  0.44037877285E+01  0.51100000000E-03 0. -1.
        -11    1    3    3    0    0 -0.10436971010E+02  0.20878343235E+02  0.29039016816E+02  0.37257215113E+02  0.51100000000E-03 0.  1.
        -12    1    3    3    0    0 -0.58161746689E+01  0.64026512185E+01 -0.19537367283E+01  0.88678586823E+01  0.00000000000E+00 0.  1.
</event>
<event>
 7    1  0.3041451E-011  0.5052885E+02  0.7816164E-02  0.1300439E+00
        -11   -1    0    0    0    0  0.00000000000E+00  0.00000000000E+00  0.45593999997E+02  0.45594000000E+02  0.51100000000E-03 0.  1.
         11   -1    0    0    0    0 -0.00000000000E+00 -0.00000000000E+00 -0.45593999997E+02  0.45594000000E+02  0.51100000000E-03 0. -1.
    9900012    2    1    2    0    0  0.93156369783E+01 -0.22023745290E+02  0.32883732290E+02  0.50528852219E+02  0.29999976806E+02 0.  0.
         12    1    1    2    0    0 -0.93156369783E+01  0.22023745290E+02 -0.32883732290E+02  0.40659147781E+02  0.00000000000E+00 0. -1.
         11    1    3    3    0    0 -0.15689868509E+01 -0.36894295351E+01 -0.36356392338E+01  0.54121606529E+01  0.51100000000E-03 0. -1.
        -11    1    3    3    0    0  0.11637419747E+02 -0.55901055605E+01  0.12801508240E+02  0.18181238462E+02  0.51100000000E-03 0.  1.
         12    1    3    3    0    0 -0.75279591732E+00 -0.12744210195E+02  0.23717863284E+02  0.26935453104E+02  0.00000000000E+00 0. -1.
</event>
<event>
 7    1  0.3041451E-011  0.5052886E+02  0.7816164E-02  0.1300439E+00
        -11   -1    0    0    0    0  0.00000000000E+00  0.00000000000E+00  0.45593999997E+02  0.45594000000E+02  0.51100000000E-03 0.  1.
         11   -1    0    0    0    0 -0.00000000000E+00 -0.00000000000E+00 -0.45593999997E+02  0.45594000000E+02  0.51100000000E-03 0. -1.
    9900012    2    1    2    0    0  0.28290961055E+02  0.65572734841E+01  0.28456798087E+02  0.50528859941E+02  0.30000000276E+02 0.  0.
         12    1    1    2    0    0 -0.28290961055E+02 -0.65572734841E+01 -0.28456798087E+02  0.40659140059E+02  0.00000000000E+00 0. -1.
         11    1    3    3    0    0 -0.16523904646E+01 -0.14232423678E+01 -0.18813484936E+01  0.28801884487E+01  0.51100000000E-03 0. -1.
        -11    1    3    3    0    0  0.28932368939E+02  0.10890620879E+02  0.31701750978E+02  0.44279663626E+02  0.51100000000E-03 0.  1.
        -12    1    3    3    0    0  0.10109825813E+01 -0.29101050271E+01 -0.13636043973E+01  0.33690078659E+01  0.00000000000E+00 0.  1.
</event>
<event>
 7    1  0.3041451E-011  0.5052886E+02  0.7816164E-02  0.1300439E+00
        -11   -1    0    0    0    0  0.00000000000E+00  0.00000000000E+00  0.45593999997E+02  0.45594000000E+02  0.51100000000E-03 0.  1.
         11   -1    0    0    0    0 -0.00000000000E+00 -0.00000000000E+00 -0.45593999997E+02  0.45594000000E+02  0.51100000000E-03 0. -1.
    9900012    2    1    2    0    0 -0.11416471388E+01  0.13734297633E+01  0.40619893770E+02  0.50528862805E+02  0.30000008984E+02 0.  0.
         12    1    1    2    0    0  0.11416471388E+01 -0.13734297633E+01 -0.40619893770E+02  0.40659137195E+02  0.00000000000E+00 0. -1.
         11    1    3    3    0    0 -0.13465811300E+02  0.29035707775E+01  0.19757615437E+02  0.24085725342E+02  0.51100000000E-03 0. -1.
        -11    1    3    3    0    0  0.12207310946E+02 -0.92282680316E+00  0.10691461697E+02  0.16253535102E+02  0.51100000000E-03 0.  1.
        -12    1    3    3    0    0  0.11685321526E+00 -0.60731421100E+00  0.10170816636E+02  0.10189602361E+02  0.00000000000E+00 0.  1.
</event>
<event>
 7    1  0.3041451E-011  0.5052886E+02  0.7816164E-02  0.1300439E+00
        -11   -1    0    0    0    0  0.00000000000E+00  0.00000000000E+00  0.45593999997E+02  0.45594000000E+02  0.51100000000E-03 0.  1.
         11   -1    0    0    0    0 -0.00000000000E+00 -0.00000000000E+00 -0.45593999997E+02  0.45594000000E+02  0.51100000000E-03 0. -1.
    9900012    2    1    2    0    0  0.95016387104E+01  0.42556840366E+01  0.39303608581E+02  0.50528860409E+02  0.30000001698E+02 0.  0.
         12    1    1    2    0    0 -0.95016387104E+01 -0.42556840366E+01 -0.39303608581E+02  0.40659139591E+02  0.00000000000E+00 0. -1.
         11    1    3    3    0    0  0.80404864081E+01 -0.86757157111E+01  0.66759953755E+01  0.13582576313E+02  0.51100000000E-03 0. -1.
        -11    1    3    3    0    0  0.31250052656E+01  0.99254363326E+01  0.31733626512E+02  0.33396152416E+02  0.51100000000E-03 0.  1.
         12    1    3    3    0    0 -0.16638529633E+01  0.30059634152E+01  0.89398669374E+00  0.35501316800E+01  0.00000000000E+00 0. -1.
</event>
<event>
 7    1  0.3041451E-011  0.5052887E+02  0.7816164E-02  0.1300439E+00
        -11   -1    0    0    0    0  0.00000000000E+00  0.00000000000E+00  0.45593999997E+02  0.45594000000E+02  0.51100000000E-03 0.  1.
         11   -1    0    0    0    0 -0.00000000000E+00 -0.00000000000E+00 -0.45593999997E+02  0.45594000000E+02  0.51100000000E-03 0. -1.
    9900012    2    1    2    0    0 -0.12072859867E+02 -0.20200577127E+02  0.33156417069E+02  0.50528865055E+02  0.30000015821E+02 0.  0.
         12    1    1    2    0    0  0.12072859867E+02  0.20200577127E+02 -0.33156417069E+02  0.40659134945E+02  0.00000000000E+00 0. -1.
         11    1    3    3    0    0 -0.61011830740E+01 -0.87869613192E+01 -0.24026016868E+01  0.10963923534E+02  0.51100000000E-03 0. -1.
        -11    1    3    3    0    0  0.14667155448E+01  0.18776342476E+00  0.13321731621E+02  0.13403545920E+02  0.51100000000E-03 0.  1.
         12    1    3    3    0    0 -0.74383923374E+01 -0.11601379232E+02  0.22237287135E+02  0.26161395601E+02  0.00000000000E+00 0. -1.
</event>
<event>
 7    1  0.3041451E-011  0.5052886E+02  0.7816164E-02  0.1300439E+00
        -11   -1    0    0    0    0  0.00000000000E+00  0.00000000000E+00  0.45593999997E+02  0.45594000000E+02  0.51100000000E-03 0. -1.
         11   -1    0    0    0    0 -0.00000000000E+00 -0.00000000000E+00 -0.45593999997E+02  0.45594000000E+02  0.51100000000E-03 0.  1.
    9900012    2    1    2    0    0  0.12138806329E+02 -0.38374418455E+02 -0.57636168097E+01  0.50528857244E+02  0.29999992080E+02 0.  0.
         12    1    1    2    0    0 -0.12138806329E+02  0.38374418455E+02  0.57636168097E+01  0.40659142756E+02  0.00000000000E+00 0. -1.
         11    1    3    3    0    0  0.21871412722E+01  0.65528594573E+00  0.38002893078E+01  0.44334169327E+01  0.51100000000E-03 0. -1.
        -11    1    3    3    0    0  0.55124432823E+00 -0.32496730365E+02 -0.11518578037E+02  0.34482154733E+02  0.51100000000E-03 0.  1.
        -12    1    3    3    0    0  0.94004207285E+01 -0.65329740361E+01  0.19546719199E+01  0.11613285579E+02  0.00000000000E+00 0.  1.
</event>
<event>
 7    1  0.3041451E-011  0.5052879E+02  0.7816164E-02  0.1300439E+00
        -11   -1    0    0    0    0  0.00000000000E+00  0.00000000000E+00  0.45593999997E+02  0.45594000000E+02  0.51100000000E-03 0.  1.
         11   -1    0    0    0    0 -0.00000000000E+00 -0.00000000000E+00 -0.45593999997E+02  0.45594000000E+02  0.51100000000E-03 0. -1.
    9900012    2    1    2    0    0  0.12838707491E+02 -0.29066970070E+02  0.25366315573E+02  0.50528792865E+02  0.29999796391E+02 0.  0.
         12    1    1    2    0    0 -0.12838707491E+02  0.29066970070E+02 -0.25366315573E+02  0.40659207135E+02  0.00000000000E+00 0. -1.
         11    1    3    3    0    0 -0.21046368697E+01 -0.91742204546E+00  0.86207205464E+01  0.89212097029E+01  0.51100000000E-03 0. -1.
        -11    1    3    3    0    0  0.28768062734E+01 -0.95906666238E+01 -0.44524020241E+01  0.10958137829E+02  0.51100000000E-03 0.  1.
        -12    1    3    3    0    0  0.12066538087E+02 -0.18558881401E+02  0.21197997051E+02  0.30649445333E+02  0.00000000000E+00 0.  1.
</event>
<event>
 7    1  0.3041451E-011  0.5052885E+02  0.7816164E-02  0.1300439E+00
        -11   -1    0    0    0    0  0.00000000000E+00  0.00000000000E+00  0.45593999997E+02  0.45594000000E+02  0.51100000000E-03 0. -1.
         11   -1    0    0    0    0 -0.00000000000E+00 -0.00000000000E+00 -0.45593999997E+02  0.45594000000E+02  0.51100000000E-03 0.  1.
    9900012    2    1    2    0    0 -0.12618708025E+01  0.10266046580E+02 -0.39321526200E+02  0.50528850316E+02  0.29999971021E+02 0.  0.
         12    1    1    2    0    0  0.12618708025E+01 -0.10266046580E+02  0.39321526200E+02  0.40659149684E+02  0.00000000000E+00 0. -1.
         11    1    3    3    0    0  0.41721996001E+01 -0.69807523408E+01 -0.13428650730E+02  0.15699261557E+02  0.51100000000E-03 0. -1.
        -11    1    3    3    0    0 -0.99904119173E+01  0.13774210230E+02 -0.15778904807E+02  0.23205840534E+02  0.51100000000E-03 0.  1.
         12    1    3    3    0    0  0.45563415148E+01  0.34725886909E+01 -0.10113970663E+02  0.11623748225E+02  0.00000000000E+00 0. -1.
</event>
<event>
 7    1  0.3041451E-011  0.5052887E+02  0.7816164E-02  0.1300439E+00
        -11   -1    0    0    0    0  0.00000000000E+00  0.00000000000E+00  0.45593999997E+02  0.45594000000E+02  0.51100000000E-03 0. -1.
         11   -1    0    0    0    0 -0.00000000000E+00 -0.00000000000E+00 -0.45593999997E+02  0.45594000000E+02  0.51100000000E-03 0.  1.
    9900012    2    1    2    0    0  0.35898540001E+02  0.55660161928E+00 -0.19082708796E+02  0.50528871203E+02  0.30000034508E+02 0.  0.
         12    1    1    2    0    0 -0.35898540001E+02 -0.55660161928E+00  0.19082708796E+02  0.40659128797E+02  0.00000000000E+00 0. -1.
         11    1    3    3    0    0  0.57103626230E+01 -0.40476927958E+01  0.32388687927E+01  0.77124788215E+01  0.51100000000E-03 0. -1.
        -11    1    3    3    0    0  0.31279052607E+02  0.73508561037E+01 -0.23314681221E+02  0.39698722626E+02  0.51100000000E-03 0.  1.
        -12    1    3    3    0    0 -0.10908752297E+01 -0.27465616887E+01  0.99310363209E+00  0.31176697549E+01  0.00000000000E+00 0.  1.
</event>
<event>
 7    1  0.3041451E-011  0.5052885E+02  0.7816164E-02  0.1300439E+00
        -11   -1    0    0    0    0  0.00000000000E+00  0.00000000000E+00  0.45593999997E+02  0.45594000000E+02  0.51100000000E-03 0.  1.
         11   -1    0    0    0    0 -0.00000000000E+00 -0.00000000000E+00 -0.45593999997E+02  0.45594000000E+02  0.51100000000E-03 0. -1.
    9900012    2    1    2    0    0 -0.18360789038E+01  0.34752587581E+02  0.21025062231E+02  0.50528846404E+02  0.29999959130E+02 0.  0.
         12    1    1    2    0    0  0.18360789038E+01 -0.34752587581E+02 -0.21025062231E+02  0.40659153596E+02  0.00000000000E+00 0. -1.
         11    1    3    3    0    0  0.60609443993E+01  0.35815478821E+02  0.17918598440E+02  0.40503823777E+02  0.51100000000E-03 0.  1.
        -11    1    3    3    0    0 -0.64887362890E+01  0.14418825146E+01  0.19459521339E+01  0.69259983961E+01  0.51100000000E-03 0. -1.
        -12    1    3    3    0    0 -0.14082870142E+01 -0.25047737553E+01  0.11605116573E+01  0.30990242313E+01  0.00000000000E+00 0.  1.
</event>
<event>
 7    1  0.3041451E-011  0.5052886E+02  0.7816164E-02  0.1300439E+00
        -11   -1    0    0    0    0  0.00000000000E+00  0.00000000000E+00  0.45593999997E+02  0.45594000000E+02  0.51100000000E-03 0. -1.
         11   -1    0    0    0    0 -0.00000000000E+00 -0.00000000000E+00 -0.45593999997E+02  0.45594000000E+02  0.51100000000E-03 0.  1.
    9900012    2    1    2    0    0 -0.19608739629E+02 -0.35320381178E+02  0.45971623721E+01  0.50528857137E+02  0.29999991755E+02 0.  0.
         12    1    1    2    0    0  0.19608739629E+02  0.35320381178E+02 -0.45971623721E+01  0.40659142863E+02  0.00000000000E+00 0. -1.
         11    1    3    3    0    0  0.13024950679E+00 -0.99790175947E+01  0.13767792648E+02  0.17004407422E+02  0.51100000000E-03 0. -1.
        -11    1    3    3    0    0 -0.84266701999E+01 -0.12103319595E+02 -0.54183385647E+01  0.15711699747E+02  0.51100000000E-03 0.  1.
         12    1    3    3    0    0 -0.11312318936E+02 -0.13238043989E+02 -0.37522917116E+01  0.17812749969E+02  0.00000000000E+00 0. -1.
</event>
<event>
 7    1  0.3041451E-011  0.5052886E+02  0.7816164E-02  0.1300439E+00
        -11   -1    0    0    0    0  0.00000000000E+00  0.00000000000E+00  0.45593999997E+02  0.45594000000E+02  0.51100000000E-03 0. -1.
         11   -1    0    0    0    0 -0.00000000000E+00 -0.00000000000E+00 -0.45593999997E+02  0.45594000000E+02  0.51100000000E-03 0.  1.
    9900012    2    1    2    0    0  0.27743048439E+02 -0.20064503052E+02 -0.21929531845E+02  0.50528863434E+02  0.30000010893E+02 0.  0.
         12    1    1    2    0    0 -0.27743048439E+02  0.20064503052E+02  0.21929531845E+02  0.40659136566E+02  0.00000000000E+00 0. -1.
         11    1    3    3    0    0  0.13611506088E+02  0.61785534613E+00 -0.27485890113E+00  0.13628293763E+02  0.51100000000E-03 0. -1.
        -11    1    3    3    0    0  0.95704638334E+01 -0.22115003345E+02 -0.21205172563E+02  0.32098699267E+02  0.51100000000E-03 0.  1.
        -12    1    3    3    0    0  0.45610785169E+01  0.14326449468E+01 -0.44950038072E+00  0.48018704036E+01  0.00000000000E+00 0.  1.
</event>
<event>
 7    1  0.3041451E-011  0.5052886E+02  0.7816164E-02  0.1300439E+00
        -11   -1    0    0    0    0  0.00000000000E+00  0.00000000000E+00  0.45593999997E+02  0.45594000000E+02  0.51100000000E-03 0. -1.
         11   -1    0    0    0    0 -0.00000000000E+00 -0.00000000000E+00 -0.45593999997E+02  0.45594000000E+02  0.51100000000E-03 0.  1.
    9900012    2    1    2    0    0  0.33329556156E+02 -0.20512688800E+02 -0.11024350087E+02  0.50528855762E+02  0.29999987574E+02 0.  0.
         12    1    1    2    0    0 -0.33329556156E+02  0.20512688800E+02  0.11024350087E+02  0.40659144238E+02  0.00000000000E+00 0. -1.
         11    1    3    3    0    0  0.11416175884E+02  0.54389090299E+01 -0.45819181614E+00  0.12653882537E+02  0.51100000000E-03 0. -1.
        -11    1    3    3    0    0  0.65257031123E+01 -0.14698721274E+02 -0.59969544764E-02  0.16082202723E+02  0.51100000000E-03 0.  1.
        -12    1    3    3    0    0  0.15387677160E+02 -0.11252876556E+02 -0.10560161316E+02  0.21792770502E+02  0.00000000000E+00 0.  1.
</event>
<event>
 7    1  0.3041451E-011  0.5052887E+02  0.7816164E-02  0.1300439E+00
        -11   -1    0    0    0    0  0.00000000000E+00  0.00000000000E+00  0.45593999997E+02  0.45594000000E+02  0.51100000000E-03 0. -1.
         11   -1    0    0    0    0 -0.00000000000E+00 -0.00000000000E+00 -0.45593999997E+02  0.45594000000E+02  0.51100000000E-03 0.  1.
    9900012    2    1    2    0    0  0.23146934379E+02  0.10335985236E+02 -0.31789180301E+02  0.50528866387E+02  0.30000019870E+02 0.  0.
         12    1    1    2    0    0 -0.23146934379E+02 -0.10335985236E+02  0.31789180301E+02  0.40659133613E+02  0.00000000000E+00 0. -1.
         11    1    3    3    0    0  0.34250397821E+01  0.11844637574E+02 -0.88674553716E+01  0.15187432364E+02  0.51100000000E-03 0. -1.
        -11    1    3    3    0    0  0.56427397017E+01 -0.82949053469E+01 -0.40019878348E+01  0.10801012589E+02  0.51100000000E-03 0.  1.
         12    1    3    3    0    0  0.14079154895E+02  0.67862530084E+01 -0.18919737095E+02  0.24540421435E+02  0.00000000000E+00 0. -1.
</event>
<event>
 7    1  0.3041451E-011  0.5052883E+02  0.7816164E-02  0.1300439E+00
        -11   -1    0    0    0    0  0.00000000000E+00  0.00000000000E+00  0.45593999997E+02  0.45594000000E+02  0.51100000000E-03 0.  1.
         11   -1    0    0    0    0 -0.00000000000E+00 -0.00000000000E+00 -0.45593999997E+02  0.45594000000E+02  0.51100000000E-03 0. -1.
    9900012    2    1    2    0    0 -0.71011870093E+01  0.37809590261E+02 -0.13159652524E+02  0.50528826039E+02  0.29999897228E+02 0.  0.
         12    1    1    2    0    0  0.71011870093E+01 -0.37809590261E+02  0.13159652524E+02  0.40659173961E+02  0.00000000000E+00 0. -1.
         11    1    3    3    0    0  0.32626771013E+01 -0.13927908188E+00 -0.10316761790E+02  0.10821276940E+02  0.51100000000E-03 0. -1.
        -11    1    3    3    0    0 -0.47677624890E+01  0.23326597933E+02 -0.79380489939E-01  0.23808990567E+02  0.51100000000E-03 0.  1.
         12    1    3    3    0    0 -0.55961016217E+01  0.14622271410E+02 -0.27635102444E+01  0.15898558532E+02  0.00000000000E+00 0. -1.
</event>
<event>
 7    1  0.3041451E-011  0.5052886E+02  0.7816164E-02  0.1300439E+00
        -11   -1    0    0    0    0  0.00000000000E+00  0.00000000000E+00  0.45593999997E+02  0.45594000000E+02  0.51100000000E-03 0. -1.
         11   -1    0    0    0    0 -0.00000000000E+00 -0.00000000000E+00 -0.45593999997E+02  0.45594000000E+02  0.51100000000E-03 0.  1.
    9900012    2    1    2    0    0  0.11702248415E+02 -0.20460521310E+02 -0.33129899539E+02  0.50528858424E+02  0.29999995665E+02 0.  0.
         12    1    1    2    0    0 -0.11702248415E+02  0.20460521310E+02  0.33129899539E+02  0.40659141576E+02  0.00000000000E+00 0. -1.
         11    1    3    3    0    0  0.13843360662E+00  0.54727153307E+00  0.41661244371E+01  0.42041958899E+01  0.51100000000E-03 0. -1.
        -11    1    3    3    0    0  0.36957062474E+01 -0.17694021701E+02 -0.30321197785E+02  0.35300307137E+02  0.51100000000E-03 0.  1.
        -12    1    3    3    0    0  0.78681085613E+01 -0.33137711423E+01 -0.69748261908E+01  0.11024355397E+02  0.00000000000E+00 0.  1.
</event>
<event>
 7    1  0.3041451E-011  0.5052885E+02  0.7816164E-02  0.1300439E+00
        -11   -1    0    0    0    0  0.00000000000E+00  0.00000000000E+00  0.45593999997E+02  0.45594000000E+02  0.51100000000E-03 0. -1.
         11   -1    0    0    0    0 -0.00000000000E+00 -0.00000000000E+00 -0.45593999997E+02  0.45594000000E+02  0.51100000000E-03 0.  1.
    9900012    2    1    2    0    0 -0.24250337141E+02  0.52646672107E+01 -0.32208240472E+02  0.50528851871E+02  0.29999975747E+02 0.  0.
         12    1    1    2    0    0  0.24250337141E+02 -0.52646672107E+01  0.32208240472E+02  0.40659148129E+02  0.00000000000E+00 0. -1.
         11    1    3    3    0    0 -0.14586201312E+02  0.65860772328E+01 -0.36082212880E+00  0.16008243966E+02  0.51100000000E-03 0.  1.
        -11    1    3    3    0    0  0.16222898991E+01 -0.12644395620E+00 -0.72600641179E+01  0.74401843961E+01  0.51100000000E-03 0. -1.
        -12    1    3    3    0    0 -0.11286425728E+02 -0.11949660658E+01 -0.24587354225E+02  0.27080423509E+02  0.00000000000E+00 0.  1.
</event>
<event>
 7    1  0.3041451E-011  0.5052883E+02  0.7816164E-02  0.1300439E+00
        -11   -1    0    0    0    0  0.00000000000E+00  0.00000000000E+00  0.45593999997E+02  0.45594000000E+02  0.51100000000E-03 0.  1.
         11   -1    0    0    0    0 -0.00000000000E+00 -0.00000000000E+00 -0.45593999997E+02  0.45594000000E+02  0.51100000000E-03 0. -1.
    9900012    2    1    2    0    0  0.25617532588E+02 -0.30713538716E+02  0.73204015912E+01  0.50528834787E+02  0.29999923819E+02 0.  0.
         12    1    1    2    0    0 -0.25617532588E+02  0.30713538716E+02 -0.73204015912E+01  0.40659165213E+02  0.00000000000E+00 0. -1.
         11    1    3    3    0    0 -0.30578355406E+01  0.10885039207E+01 -0.32251896930E+01  0.45757018910E+01  0.51100000000E-03 0. -1.
        -11    1    3    3    0    0  0.27835899507E+02 -0.31502630579E+02  0.74016870182E+01  0.42685337129E+02  0.51100000000E-03 0.  1.
        -12    1    3    3    0    0  0.83946862115E+00 -0.29941205716E+00  0.31439042660E+01  0.32677957677E+01  0.00000000000E+00 0.  1.
</event>
<event>
 7    1  0.3041451E-011  0.5052886E+02  0.7816164E-02  0.1300439E+00
        -11   -1    0    0    0    0  0.00000000000E+00  0.00000000000E+00  0.45593999997E+02  0.45594000000E+02  0.51100000000E-03 0.  1.
         11   -1    0    0    0    0 -0.00000000000E+00 -0.00000000000E+00 -0.45593999997E+02  0.45594000000E+02  0.51100000000E-03 0. -1.
    9900012    2    1    2    0    0 -0.23765820914E+01 -0.38107144278E+02  0.13977236433E+02  0.50528859259E+02  0.29999998204E+02 0.  0.
         12    1    1    2    0    0  0.23765820914E+01  0.38107144278E+02 -0.13977236433E+02  0.40659140741E+02  0.00000000000E+00 0. -1.
         11    1    3    3    0    0 -0.44584663532E+01 -0.25635789249E+02  0.99310750201E+01  0.27851353000E+02  0.51100000000E-03 0. -1.
        -11    1    3    3    0    0  0.99775493125E+01 -0.48497791523E+01  0.37121311702E+01  0.11698365963E+02  0.51100000000E-03 0.  1.
         12    1    3    3    0    0 -0.78956650506E+01 -0.76215758772E+01  0.33403024230E+00  0.10979140296E+02  0.00000000000E+00 0. -1.
</event>
<event>
 7    1  0.3041451E-011  0.5052890E+02  0.7816164E-02  0.1300439E+00
        -11   -1    0    0    0    0  0.00000000000E+00  0.00000000000E+00  0.45593999997E+02  0.45594000000E+02  0.51100000000E-03 0.  1.
         11   -1    0    0    0    0 -0.00000000000E+00 -0.00000000000E+00 -0.45593999997E+02  0.45594000000E+02  0.51100000000E-03 0. -1.
    9900012    2    1    2    0    0 -0.37449118427E+02  0.96129849935E+01  0.12582400580E+02  0.50528895783E+02  0.30000109221E+02 0.  0.
         12    1    1    2    0    0  0.37449118427E+02 -0.96129849935E+01 -0.12582400580E+02  0.40659104217E+02  0.00000000000E+00 0. -1.
         11    1    3    3    0    0 -0.11330508901E+02 -0.81263547088E+01  0.29480056979E+01  0.14251624843E+02  0.51100000000E-03 0. -1.
        -11    1    3    3    0    0 -0.27030682510E+02  0.19072975164E+02  0.81231591406E+01  0.34064965775E+02  0.51100000000E-03 0.  1.
        -12    1    3    3    0    0  0.91207298505E+00 -0.13336354614E+01  0.15112357415E+01  0.22123051644E+01  0.00000000000E+00 0.  1.
</event>
<event>
 7    1  0.3041451E-011  0.5052886E+02  0.7816164E-02  0.1300439E+00
        -11   -1    0    0    0    0  0.00000000000E+00  0.00000000000E+00  0.45593999997E+02  0.45594000000E+02  0.51100000000E-03 0. -1.
         11   -1    0    0    0    0 -0.00000000000E+00 -0.00000000000E+00 -0.45593999997E+02  0.45594000000E+02  0.51100000000E-03 0.  1.
    9900012    2    1    2    0    0 -0.35517649872E+02 -0.61755114970E+01 -0.18802267496E+02  0.50528860096E+02  0.30000000749E+02 0.  0.
         12    1    1    2    0    0  0.35517649872E+02  0.61755114970E+01  0.18802267496E+02  0.40659139904E+02  0.00000000000E+00 0. -1.
         11    1    3    3    0    0 -0.17787073300E+02 -0.89549217840E+01 -0.14159108819E+01  0.19964353348E+02  0.51100000000E-03 0. -1.
        -11    1    3    3    0    0 -0.12185065247E+02  0.96207619253E+01 -0.14640797767E+02  0.21339818055E+02  0.51100000000E-03 0.  1.
        -12    1    3    3    0    0 -0.55455113252E+01 -0.68413516383E+01 -0.27455588469E+01  0.92246886928E+01  0.00000000000E+00 0.  1.
</event>
<event>
 7    1  0.3041451E-011  0.5052886E+02  0.7816164E-02  0.1300439E+00
        -11   -1    0    0    0    0  0.00000000000E+00  0.00000000000E+00  0.45593999997E+02  0.45594000000E+02  0.51100000000E-03 0.  1.
         11   -1    0    0    0    0 -0.00000000000E+00 -0.00000000000E+00 -0.45593999997E+02  0.45594000000E+02  0.51100000000E-03 0. -1.
    9900012    2    1    2    0    0  0.38544982158E+02  0.47886217286E+01 -0.12021626489E+02  0.50528855259E+02  0.29999986045E+02 0.  0.
         12    1    1    2    0    0 -0.38544982158E+02 -0.47886217286E+01  0.12021626489E+02  0.40659144741E+02  0.00000000000E+00 0. -1.
         11    1    3    3    0    0  0.19839376485E+02 -0.23939147891E+01 -0.10950267668E+02  0.22786839394E+02  0.51100000000E-03 0. -1.
        -11    1    3    3    0    0 -0.30716492186E+01 -0.21731223853E+01  0.11547854429E+01  0.39358632476E+01  0.51100000000E-03 0.  1.
        -12    1    3    3    0    0  0.21777254892E+02  0.93556589029E+01 -0.22261442639E+01  0.23806152617E+02  0.00000000000E+00 0.  1.
</event>
<event>
 7    1  0.3041451E-011  0.5052886E+02  0.7816164E-02  0.1300439E+00
        -11   -1    0    0    0    0  0.00000000000E+00  0.00000000000E+00  0.45593999997E+02  0.45594000000E+02  0.51100000000E-03 0.  1.
         11   -1    0    0    0    0 -0.00000000000E+00 -0.00000000000E+00 -0.45593999997E+02  0.45594000000E+02  0.51100000000E-03 0. -1.
    9900012    2    1    2    0    0 -0.27938439331E+02 -0.16141998580E+02 -0.24739538455E+02  0.50528864823E+02  0.30000015115E+02 0.  0.
         12    1    1    2    0    0  0.27938439331E+02  0.16141998580E+02  0.24739538455E+02  0.40659135177E+02  0.00000000000E+00 0. -1.
         11    1    3    3    0    0 -0.21379798037E+01 -0.12767842168E+02 -0.14758452306E+02  0.19631624131E+02  0.51100000000E-03 0. -1.
        -11    1    3    3    0    0 -0.22951100145E+02 -0.72217193275E+01 -0.10132797373E+02  0.26107083537E+02  0.51100000000E-03 0.  1.
         12    1    3    3    0    0 -0.28493593821E+01  0.38475629158E+01  0.15171122471E+00  0.47901571556E+01  0.00000000000E+00 0. -1.
</event>
<event>
 7    1  0.3041451E-011  0.5052884E+02  0.7816164E-02  0.1300439E+00
        -11   -1    0    0    0    0  0.00000000000E+00  0.00000000000E+00  0.45593999997E+02  0.45594000000E+02  0.51100000000E-03 0.  1.
         11   -1    0    0    0    0 -0.00000000000E+00 -0.00000000000E+00 -0.45593999997E+02  0.45594000000E+02  0.51100000000E-03 0. -1.
    9900012    2    1    2    0    0  0.12974471183E+02  0.35055768260E+02  0.15997603451E+02  0.50528842275E+02  0.29999946578E+02 0.  0.
         12    1    1    2    0    0 -0.12974471183E+02 -0.35055768260E+02 -0.15997603451E+02  0.40659157725E+02  0.00000000000E+00 0. -1.
         11    1    3    3    0    0  0.15175414301E+02  0.12339273354E+02 -0.31832595692E+00  0.19561497841E+02  0.51100000000E-03 0. -1.
        -11    1    3    3    0    0 -0.97581492931E-01  0.23614751932E+02  0.16274734621E+02  0.28679836440E+02  0.51100000000E-03 0.  1.
         12    1    3    3    0    0 -0.21033616247E+01 -0.89825702663E+00  0.41194786163E-01  0.22875079935E+01  0.00000000000E+00 0. -1.
</event>
<event>
 7    1  0.3041451E-011  0.5052886E+02  0.7816164E-02  0.1300439E+00
        -11   -1    0    0    0    0  0.00000000000E+00  0.00000000000E+00  0.45593999997E+02  0.45594000000E+02  0.51100000000E-03 0. -1.
         11   -1    0    0    0    0 -0.00000000000E+00 -0.00000000000E+00 -0.45593999997E+02  0.45594000000E+02  0.51100000000E-03 0.  1.
    9900012    2    1    2    0    0 -0.15180138589E+02  0.35013963136E+02 -0.14026806650E+02  0.50528861705E+02  0.30000005638E+02 0.  0.
         12    1    1    2    0    0  0.15180138589E+02 -0.35013963136E+02  0.14026806650E+02  0.40659138295E+02  0.00000000000E+00 0. -1.
         11    1    3    3    0    0 -0.13456587732E+02  0.17464451059E+01 -0.31466621790E+01  0.13929512089E+02  0.51100000000E-03 0. -1.
        -11    1    3    3    0    0  0.23558426353E+01  0.28298200775E+02 -0.76727544968E+01  0.29414440730E+02  0.51100000000E-03 0.  1.
         12    1    3    3    0    0 -0.40793934922E+01  0.49693172557E+01 -0.32073899746E+01  0.71849088861E+01  0.00000000000E+00 0. -1.
</event>
<event>
 7    1  0.3041451E-011  0.5052886E+02  0.7816164E-02  0.1300439E+00
        -11   -1    0    0    0    0  0.00000000000E+00  0.00000000000E+00  0.45593999997E+02  0.45594000000E+02  0.51100000000E-03 0. -1.
         11   -1    0    0    0    0 -0.00000000000E+00 -0.00000000000E+00 -0.45593999997E+02  0.45594000000E+02  0.51100000000E-03 0.  1.
    9900012    2    1    2    0    0 -0.15239686346E+02 -0.20413621456E+02 -0.31689146461E+02  0.50528856080E+02  0.29999988541E+02 0.  0.
         12    1    1    2    0    0  0.15239686346E+02  0.20413621456E+02  0.31689146461E+02  0.40659143920E+02  0.00000000000E+00 0. -1.
         11    1    3    3    0    0  0.24636428110E+01 -0.17599310210E+02 -0.14665034837E+02  0.23040583821E+02  0.51100000000E-03 0. -1.
        -11    1    3    3    0    0 -0.10595022138E+02 -0.13818728757E+01 -0.17184391836E+02  0.20235300586E+02  0.51100000000E-03 0.  1.
        -12    1    3    3    0    0 -0.71083070184E+01 -0.14324383702E+01  0.16028021202E+00  0.72529716736E+01  0.00000000000E+00 0.  1.
</event>
<event>
 7    1  0.3041451E-011  0.5052888E+02  0.7816164E-02  0.1300439E+00
        -11   -1    0    0    0    0  0.00000000000E+00  0.00000000000E+00  0.45593999997E+02  0.45594000000E+02  0.51100000000E-03 0.  1.
         11   -1    0    0    0    0 -0.00000000000E+00 -0.00000000000E+00 -0.45593999997E+02  0.45594000000E+02  0.51100000000E-03 0. -1.
    9900012    2    1    2    0    0 -0.30946105942E+01  0.30804056603E+02  0.26357111977E+02  0.50528882084E+02  0.30000067582E+02 0.  0.
         12    1    1    2    0    0  0.30946105942E+01 -0.30804056603E+02 -0.26357111977E+02  0.40659117916E+02  0.00000000000E+00 0. -1.
         11    1    3    3    0    0 -0.13389688751E+02  0.11103936888E+02  0.50672230138E+01  0.18117889739E+02  0.51100000000E-03 0. -1.
        -11    1    3    3    0    0  0.74840634664E+01  0.20226395049E+02  0.19109290923E+02  0.28814636255E+02  0.51100000000E-03 0.  1.
         12    1    3    3    0    0  0.28110146902E+01 -0.52627533340E+00  0.21805980402E+01  0.35963560903E+01  0.00000000000E+00 0. -1.
</event>
<event>
 7    1  0.3041451E-011  0.5052886E+02  0.7816164E-02  0.1300439E+00
        -11   -1    0    0    0    0  0.00000000000E+00  0.00000000000E+00  0.45593999997E+02  0.45594000000E+02  0.51100000000E-03 0. -1.
         11   -1    0    0    0    0 -0.00000000000E+00 -0.00000000000E+00 -0.45593999997E+02  0.45594000000E+02  0.51100000000E-03 0.  1.
    9900012    2    1    2    0    0  0.33403826966E+02 -0.18852822596E+02 -0.13487816173E+02  0.50528858827E+02  0.29999996890E+02 0.  0.
         12    1    1    2    0    0 -0.33403826966E+02  0.18852822596E+02  0.13487816173E+02  0.40659141173E+02  0.00000000000E+00 0. -1.
         11    1    3    3    0    0  0.10535005195E+02 -0.20142596233E+02 -0.33666087713E+00  0.22733760319E+02  0.51100000000E-03 0. -1.
        -11    1    3    3    0    0  0.13053747318E+02 -0.35117263950E+01 -0.64554780354E+01  0.14980178178E+02  0.51100000000E-03 0.  1.
         12    1    3    3    0    0  0.98150744524E+01  0.48015000316E+01 -0.66956772609E+01  0.12814920329E+02  0.00000000000E+00 0. -1.
</event>
<event>
 7    1  0.3041451E-011  0.5052886E+02  0.7816164E-02  0.1300439E+00
        -11   -1    0    0    0    0  0.00000000000E+00  0.00000000000E+00  0.45593999997E+02  0.45594000000E+02  0.51100000000E-03 0.  1.
         11   -1    0    0    0    0 -0.00000000000E+00 -0.00000000000E+00 -0.45593999997E+02  0.45594000000E+02  0.51100000000E-03 0. -1.
    9900012    2    1    2    0    0  0.20347605626E+02 -0.28270615035E+02  0.20974104696E+02  0.50528858384E+02  0.29999995545E+02 0.  0.
         12    1    1    2    0    0 -0.20347605626E+02  0.28270615035E+02 -0.20974104696E+02  0.40659141616E+02  0.00000000000E+00 0. -1.
         11    1    3    3    0    0  0.46186596552E+01  0.32416756200E+01 -0.24814974088E-01  0.56427913198E+01  0.51100000000E-03 0. -1.
        -11    1    3    3    0    0  0.95428616191E+00 -0.12583721714E+02  0.15967585483E+02  0.20352506005E+02  0.51100000000E-03 0.  1.
        -12    1    3    3    0    0  0.14774659808E+02 -0.18928568940E+02  0.50313341871E+01  0.24533561060E+02  0.00000000000E+00 0.  1.
</event>
<event>
 7    1  0.3041451E-011  0.5052886E+02  0.7816164E-02  0.1300439E+00
        -11   -1    0    0    0    0  0.00000000000E+00  0.00000000000E+00  0.45593999997E+02  0.45594000000E+02  0.51100000000E-03 0. -1.
         11   -1    0    0    0    0 -0.00000000000E+00 -0.00000000000E+00 -0.45593999997E+02  0.45594000000E+02  0.51100000000E-03 0.  1.
    9900012    2    1    2    0    0 -0.20588735623E+02 -0.13340006510E+02 -0.32423975823E+02  0.50528855685E+02  0.29999987340E+02 0.  0.
         12    1    1    2    0    0  0.20588735623E+02  0.13340006510E+02  0.32423975823E+02  0.40659144315E+02  0.00000000000E+00 0. -1.
         11    1    3    3    0    0  0.34208095348E+01 -0.28962593471E+00 -0.39841908498E+01  0.52592393028E+01  0.51100000000E-03 0. -1.
        -11    1    3    3    0    0 -0.22254877438E+02 -0.57274730637E+01 -0.29785691783E+02  0.37620087091E+02  0.51100000000E-03 0.  1.
        -12    1    3    3    0    0 -0.17546677199E+01 -0.73229075118E+01  0.13459068098E+01  0.76495292910E+01  0.00000000000E+00 0.  1.
</event>
<event>
 7    1  0.3041451E-011  0.5052884E+02  0.7816164E-02  0.1300439E+00
        -11   -1    0    0    0    0  0.00000000000E+00  0.00000000000E+00  0.45593999997E+02  0.45594000000E+02  0.51100000000E-03 0.  1.
         11   -1    0    0    0    0 -0.00000000000E+00 -0.00000000000E+00 -0.45593999997E+02  0.45594000000E+02  0.51100000000E-03 0. -1.
    9900012    2    1    2    0    0 -0.25953638843E+02 -0.22539668574E+02  0.21714961832E+02  0.50528836261E+02  0.29999928298E+02 0.  0.
         12    1    1    2    0    0  0.25953638843E+02  0.22539668574E+02 -0.21714961832E+02  0.40659163739E+02  0.00000000000E+00 0. -1.
         11    1    3    3    0    0 -0.14527954495E+02 -0.10143557237E+02 -0.14570648565E+01  0.17778533502E+02  0.51100000000E-03 0. -1.
        -11    1    3    3    0    0 -0.25475576968E+00  0.19079575593E+01  0.10352976297E+02  0.10530399851E+02  0.51100000000E-03 0.  1.
         12    1    3    3    0    0 -0.11170928579E+02 -0.14304068896E+02  0.12819050391E+02  0.22219902908E+02  0.00000000000E+00 0. -1.
</event>
<event>
 7    1  0.3041451E-011  0.5052886E+02  0.7816164E-02  0.1300439E+00
        -11   -1    0    0    0    0  0.00000000000E+00  0.00000000000E+00  0.45593999997E+02  0.45594000000E+02  0.51100000000E-03 0.  1.
         11   -1    0    0    0    0 -0.00000000000E+00 -0.00000000000E+00 -0.45593999997E+02  0.45594000000E+02  0.51100000000E-03 0. -1.
    9900012    2    1    2    0    0 -0.30977135479E+02  0.72964479297E+01  0.25305035740E+02  0.50528857010E+02  0.29999991369E+02 0.  0.
         12    1    1    2    0    0  0.30977135479E+02 -0.72964479297E+01 -0.25305035740E+02  0.40659142990E+02  0.00000000000E+00 0. -1.
         11    1    3    3    0    0 -0.79929373128E+01  0.83859677175E+01  0.10376465354E+02  0.15552573258E+02  0.51100000000E-03 0. -1.
        -11    1    3    3    0    0 -0.17733340182E+02 -0.58293401164E+01  0.19146692741E+02  0.26740388990E+02  0.51100000000E-03 0.  1.
         12    1    3    3    0    0 -0.52508579843E+01  0.47398203285E+01 -0.42181223555E+01  0.82358947616E+01  0.00000000000E+00 0. -1.
</event>
<event>
 7    1  0.3041451E-011  0.5052886E+02  0.7816164E-02  0.1300439E+00
        -11   -1    0    0    0    0  0.00000000000E+00  0.00000000000E+00  0.45593999997E+02  0.45594000000E+02  0.51100000000E-03 0. -1.
         11   -1    0    0    0    0 -0.00000000000E+00 -0.00000000000E+00 -0.45593999997E+02  0.45594000000E+02  0.51100000000E-03 0.  1.
    9900012    2    1    2    0    0 -0.34215379321E+02 -0.21958275611E+02 -0.55494753638E+00  0.50528855682E+02  0.29999987331E+02 0.  0.
         12    1    1    2    0    0  0.34215379321E+02  0.21958275611E+02  0.55494753638E+00  0.40659144318E+02  0.00000000000E+00 0. -1.
         11    1    3    3    0    0 -0.20605249524E+02 -0.22300307715E+01  0.45908689894E+01  0.21227939691E+02  0.51100000000E-03 0. -1.
        -11    1    3    3    0    0 -0.10497198435E+02 -0.21676265519E+02 -0.15072775227E+01  0.24131380972E+02  0.51100000000E-03 0.  1.
        -12    1    3    3    0    0 -0.31129313626E+01  0.19480206797E+01 -0.36385390031E+01  0.51695350191E+01  0.00000000000E+00 0.  1.
</event>
<event>
 7    1  0.3041451E-011  0.5052886E+02  0.7816164E-02  0.1300439E+00
        -11   -1    0    0    0    0  0.00000000000E+00  0.00000000000E+00  0.45593999997E+02  0.45594000000E+02  0.51100000000E-03 0. -1.
         11   -1    0    0    0    0 -0.00000000000E+00 -0.00000000000E+00 -0.45593999997E+02  0.45594000000E+02  0.51100000000E-03 0.  1.
    9900012    2    1    2    0    0  0.18097755309E+02 -0.36257585844E+02  0.33203554252E+01  0.50528855413E+02  0.29999986512E+02 0.  0.
         12    1    1    2    0    0 -0.18097755309E+02  0.36257585844E+02 -0.33203554252E+01  0.40659144587E+02  0.00000000000E+00 0. -1.
         11    1    3    3    0    0  0.14579202385E+02 -0.70488114872E+01  0.68077576464E+01  0.17566571948E+02  0.51100000000E-03 0. -1.
        -11    1    3    3    0    0  0.81462843776E+01 -0.20438946155E+02 -0.58536854666E+01  0.22767918282E+02  0.51100000000E-03 0.  1.
        -12    1    3    3    0    0 -0.46277314536E+01 -0.87698282013E+01  0.23662832454E+01  0.10194365183E+02  0.00000000000E+00 0.  1.
</event>
<event>
 7    1  0.3041451E-011  0.5052888E+02  0.7816164E-02  0.1300439E+00
        -11   -1    0    0    0    0  0.00000000000E+00  0.00000000000E+00  0.45593999997E+02  0.45594000000E+02  0.51100000000E-03 0. -1.
         11   -1    0    0    0    0 -0.00000000000E+00 -0.00000000000E+00 -0.45593999997E+02  0.45594000000E+02  0.51100000000E-03 0.  1.
    9900012    2    1    2    0    0  0.11469094125E+02  0.36167502675E+02 -0.14612862761E+02  0.50528878909E+02  0.30000057932E+02 0.  0.
         12    1    1    2    0    0 -0.11469094125E+02 -0.36167502675E+02  0.14612862761E+02  0.40659121091E+02  0.00000000000E+00 0. -1.
         11    1    3    3    0    0 -0.21544302876E+01  0.24517654761E+00  0.59513702690E+00  0.22485261274E+01  0.51100000000E-03 0. -1.
        -11    1    3    3    0    0  0.19488984007E+02  0.28423028799E+02 -0.17256389876E+02  0.38541822161E+02  0.51100000000E-03 0.  1.
        -12    1    3    3    0    0 -0.58654595949E+01  0.74992973293E+01  0.20483900882E+01  0.97385306205E+01  0.00000000000E+00 0.  1.
</event>
<event>
 7    1  0.3041451E-011  0.5052886E+02  0.7816164E-02  0.1300439E+00
        -11   -1    0    0    0    0  0.00000000000E+00  0.00000000000E+00  0.45593999997E+02  0.45594000000E+02  0.51100000000E-03 0. -1.
         11   -1    0    0    0    0 -0.00000000000E+00 -0.00000000000E+00 -0.45593999997E+02  0.45594000000E+02  0.51100000000E-03 0.  1.
    9900012    2    1    2    0    0 -0.16790437338E+02  0.33767409286E+02 -0.15198990112E+02  0.50528855687E+02  0.29999987345E+02 0.  0.
         12    1    1    2    0    0  0.16790437338E+02 -0.33767409286E+02  0.15198990112E+02  0.40659144313E+02  0.00000000000E+00 0. -1.
         11    1    3    3    0    0 -0.94774336911E+01 -0.28837176453E+01 -0.23209718521E+01  0.10174698395E+02  0.51100000000E-03 0. -1.
        -11    1    3    3    0    0 -0.34496055387E+01  0.16446722050E+02 -0.10075612167E+02  0.19593682793E+02  0.51100000000E-03 0.  1.
         12    1    3    3    0    0 -0.38633981085E+01  0.20204404881E+02 -0.28024060926E+01  0.20760474499E+02  0.00000000000E+00 0. -1.
</event>
<event>
 7    1  0.3041451E-011  0.5052886E+02  0.7816164E-02  0.1300439E+00
        -11   -1    0    0    0    0  0.00000000000E+00  0.00000000000E+00  0.45593999997E+02  0.45594000000E+02  0.51100000000E-03 0. -1.
         11   -1    0    0    0    0 -0.00000000000E+00 -0.00000000000E+00 -0.45593999997E+02  0.45594000000E+02  0.51100000000E-03 0.  1.
    9900012    2    1    2    0    0  0.27354509989E+02  0.26476321563E+02  0.14279386976E+02  0.50528859421E+02  0.29999998696E+02 0.  0.
         12    1    1    2    0    0 -0.27354509989E+02 -0.26476321563E+02 -0.14279386976E+02  0.40659140579E+02  0.00000000000E+00 0. -1.
         11    1    3    3    0    0  0.56212609653E+01  0.11014975294E+02  0.71364859553E+01  0.14277874058E+02  0.51100000000E-03 0. -1.
        -11    1    3    3    0    0  0.12616691272E+02  0.35993327867E+01 -0.76701346362E+01  0.15197600494E+02  0.51100000000E-03 0.  1.
        -12    1    3    3    0    0  0.91165577511E+01  0.11862013482E+02  0.14813035657E+02  0.21053384869E+02  0.00000000000E+00 0.  1.
</event>
<event>
 7    1  0.3041451E-011  0.5052889E+02  0.7816164E-02  0.1300439E+00
        -11   -1    0    0    0    0  0.00000000000E+00  0.00000000000E+00  0.45593999997E+02  0.45594000000E+02  0.51100000000E-03 0.  1.
         11   -1    0    0    0    0 -0.00000000000E+00 -0.00000000000E+00 -0.45593999997E+02  0.45594000000E+02  0.51100000000E-03 0. -1.
    9900012    2    1    2    0    0  0.77162547752E+01  0.16764142486E+02  0.36229634297E+02  0.50528887094E+02  0.30000082810E+02 0.  0.
         12    1    1    2    0    0 -0.77162547752E+01 -0.16764142486E+02 -0.36229634297E+02  0.40659112906E+02  0.00000000000E+00 0. -1.
         11    1    3    3    0    0  0.17497797537E+02  0.61437394033E+01  0.14746168155E+02  0.23693204258E+02  0.51100000000E-03 0. -1.
        -11    1    3    3    0    0 -0.47817788148E+01  0.75323924412E+01  0.17770397906E+02  0.19884400582E+02  0.51100000000E-03 0.  1.
         12    1    3    3    0    0 -0.49997639465E+01  0.30880106418E+01  0.37130682359E+01  0.69512822536E+01  0.00000000000E+00 0. -1.
</event>
<event>
 7    1  0.3041451E-011  0.5052886E+02  0.7816164E-02  0.1300439E+00
        -11   -1    0    0    0    0  0.00000000000E+00  0.00000000000E+00  0.45593999997E+02  0.45594000000E+02  0.51100000000E-03 0.  1.
         11   -1    0    0    0    0 -0.00000000000E+00 -0.00000000000E+00 -0.45593999997E+02  0.45594000000E+02  0.51100000000E-03 0. -1.
    9900012    2    1    2    0    0  0.33344364690E+02  0.16534664880E+02  0.16368381720E+02  0.50528859338E+02  0.29999998443E+02 0.  0.
         12    1    1    2    0    0 -0.33344364690E+02 -0.16534664880E+02 -0.16368381720E+02  0.40659140662E+02  0.00000000000E+00 0. -1.
         11    1    3    3    0    0  0.40936142479E+01 -0.32994660021E+01 -0.47657901510E+01  0.70962602499E+01  0.51100000000E-03 0. -1.
        -11    1    3    3    0    0  0.22846707873E+02  0.12390160682E+02  0.83215269003E+01  0.27289850725E+02  0.51100000000E-03 0.  1.
        -12    1    3    3    0    0  0.64040425687E+01  0.74439702006E+01  0.12812644971E+02  0.16142748363E+02  0.00000000000E+00 0.  1.
</event>
<event>
 7    1  0.3041451E-011  0.5052886E+02  0.7816164E-02  0.1300439E+00
        -11   -1    0    0    0    0  0.00000000000E+00  0.00000000000E+00  0.45593999997E+02  0.45594000000E+02  0.51100000000E-03 0.  1.
         11   -1    0    0    0    0 -0.00000000000E+00 -0.00000000000E+00 -0.45593999997E+02  0.45594000000E+02  0.51100000000E-03 0. -1.
    9900012    2    1    2    0    0 -0.22380470556E+02  0.24883512073E+02  0.23088759180E+02  0.50528862824E+02  0.30000009040E+02 0.  0.
         12    1    1    2    0    0  0.22380470556E+02 -0.24883512073E+02 -0.23088759180E+02  0.40659137176E+02  0.00000000000E+00 0. -1.
         11    1    3    3    0    0 -0.24033798122E+02  0.21620349471E+02  0.20610039072E+02  0.38338449033E+02  0.51100000000E-03 0.  1.
        -11    1    3    3    0    0  0.57733660119E+01  0.44898042978E+01  0.18061198919E+00  0.73159222721E+01  0.51100000000E-03 0. -1.
         12    1    3    3    0    0 -0.41200384463E+01 -0.12266416956E+01  0.22981081186E+01  0.48744915194E+01  0.00000000000E+00 0. -1.
</event>
<event>
 7    1  0.3041451E-011  0.5052889E+02  0.7816164E-02  0.1300439E+00
        -11   -1    0    0    0    0  0.00000000000E+00  0.00000000000E+00  0.45593999997E+02  0.45594000000E+02  0.51100000000E-03 0. -1.
         11   -1    0    0    0    0 -0.00000000000E+00 -0.00000000000E+00 -0.45593999997E+02  0.45594000000E+02  0.51100000000E-03 0.  1.
    9900012    2    1    2    0    0 -0.36349086511E+02  0.16220289097E+02 -0.82951445387E+01  0.50528889194E+02  0.30000089195E+02 0.  0.
         12    1    1    2    0    0  0.36349086511E+02 -0.16220289097E+02  0.82951445387E+01  0.40659110806E+02  0.00000000000E+00 0. -1.
         11    1    3    3    0    0  0.90570090266E+00  0.21061023266E+01 -0.52811949567E+01  0.57573415365E+01  0.51100000000E-03 0. -1.
        -11    1    3    3    0    0 -0.24812752455E+02  0.10616822985E+02 -0.11471998411E+02  0.29325694578E+02  0.51100000000E-03 0.  1.
        -12    1    3    3    0    0 -0.12442034959E+02  0.34973637850E+01  0.84580488294E+01  0.15445853080E+02  0.00000000000E+00 0.  1.
</event>
<event>
 7    1  0.3041451E-011  0.5052886E+02  0.7816164E-02  0.1300439E+00
        -11   -1    0    0    0    0  0.00000000000E+00  0.00000000000E+00  0.45593999997E+02  0.45594000000E+02  0.51100000000E-03 0. -1.
         11   -1    0    0    0    0 -0.00000000000E+00 -0.00000000000E+00 -0.45593999997E+02  0.45594000000E+02  0.51100000000E-03 0.  1.
    9900012    2    1    2    0    0  0.16004070486E+02 -0.37098202124E+02 -0.45561824726E+01  0.50528859924E+02  0.30000000225E+02 0.  0.
         12    1    1    2    0    0 -0.16004070486E+02  0.37098202124E+02  0.45561824726E+01  0.40659140076E+02  0.00000000000E+00 0. -1.
         11    1    3    3    0    0  0.41326817008E+01 -0.76763573130E+01  0.11857953519E+02  0.14717900039E+02  0.51100000000E-03 0. -1.
        -11    1    3    3    0    0  0.80093374773E+01 -0.21287257193E+02 -0.12876139654E+02  0.26136024531E+02  0.51100000000E-03 0.  1.
         12    1    3    3    0    0  0.38620513084E+01 -0.81345876187E+01 -0.35379963368E+01  0.96749353546E+01  0.00000000000E+00 0. -1.
</event>
<event>
 7    1  0.3041451E-011  0.5052886E+02  0.7816164E-02  0.1300439E+00
        -11   -1    0    0    0    0  0.00000000000E+00  0.00000000000E+00  0.45593999997E+02  0.45594000000E+02  0.51100000000E-03 0.  1.
         11   -1    0    0    0    0 -0.00000000000E+00 -0.00000000000E+00 -0.45593999997E+02  0.45594000000E+02  0.51100000000E-03 0. -1.
    9900012    2    1    2    0    0  0.12700043970E+02 -0.95976119312E+01  0.37413370548E+02  0.50528861207E+02  0.30000004125E+02 0.  0.
         12    1    1    2    0    0 -0.12700043970E+02  0.95976119312E+01 -0.37413370548E+02  0.40659138793E+02  0.00000000000E+00 0. -1.
         11    1    3    3    0    0  0.19557520568E+01 -0.13865291017E+01  0.13007886862E+01  0.27275411133E+01  0.51100000000E-03 0.  1.
        -11    1    3    3    0    0  0.94745636940E+01 -0.44388726546E+00 -0.12966365246E+01  0.95731739582E+01  0.51100000000E-03 0. -1.
        -12    1    3    3    0    0  0.12697282192E+01 -0.77671955640E+01  0.37409218386E+02  0.38228146136E+02  0.00000000000E+00 0.  1.
</event>
<event>
 7    1  0.3041451E-011  0.5052886E+02  0.7816164E-02  0.1300439E+00
        -11   -1    0    0    0    0  0.00000000000E+00  0.00000000000E+00  0.45593999997E+02  0.45594000000E+02  0.51100000000E-03 0.  1.
         11   -1    0    0    0    0 -0.00000000000E+00 -0.00000000000E+00 -0.45593999997E+02  0.45594000000E+02  0.51100000000E-03 0. -1.
    9900012    2    1    2    0    0  0.13271770220E+02  0.34559626385E+02  0.16812437039E+02  0.50528859579E+02  0.29999999175E+02 0.  0.
         12    1    1    2    0    0 -0.13271770220E+02 -0.34559626385E+02 -0.16812437039E+02  0.40659140421E+02  0.00000000000E+00 0. -1.
         11    1    3    3    0    0  0.12049135786E+02  0.31085818553E+02  0.42101887708E+01  0.33604099125E+02  0.51100000000E-03 0.  1.
        -11    1    3    3    0    0  0.17681506728E+01 -0.28276865561E+01  0.91064860100E+01  0.96979511120E+01  0.51100000000E-03 0. -1.
        -12    1    3    3    0    0 -0.54551623868E+00  0.63014943885E+01  0.34957622579E+01  0.72268093415E+01  0.00000000000E+00 0.  1.
</event>
<event>
 7    1  0.3041451E-011  0.5052886E+02  0.7816164E-02  0.1300439E+00
        -11   -1    0    0    0    0  0.00000000000E+00  0.00000000000E+00  0.45593999997E+02  0.45594000000E+02  0.51100000000E-03 0.  1.
         11   -1    0    0    0    0 -0.00000000000E+00 -0.00000000000E+00 -0.45593999997E+02  0.45594000000E+02  0.51100000000E-03 0. -1.
    9900012    2    1    2    0    0  0.69240976494E+01  0.73806677139E+01  0.39379538903E+02  0.50528862425E+02  0.30000007826E+02 0.  0.
         12    1    1    2    0    0 -0.69240976494E+01 -0.73806677139E+01 -0.39379538903E+02  0.40659137575E+02  0.00000000000E+00 0. -1.
         11    1    3    3    0    0 -0.18086397676E+01 -0.65749801467E+01  0.24433531869E+02  0.25367282503E+02  0.51100000000E-03 0. -1.
        -11    1    3    3    0    0  0.80047631501E+01  0.21390760939E+01  0.74983187430E+01  0.11174822766E+02  0.51100000000E-03 0.  1.
         12    1    3    3    0    0  0.72797426686E+00  0.11816571767E+02  0.74476882913E+01  0.13986757156E+02  0.00000000000E+00 0. -1.
</event>
<event>
 7    1  0.3041451E-011  0.5052887E+02  0.7816164E-02  0.1300439E+00
        -11   -1    0    0    0    0  0.00000000000E+00  0.00000000000E+00  0.45593999997E+02  0.45594000000E+02  0.51100000000E-03 0. -1.
         11   -1    0    0    0    0 -0.00000000000E+00 -0.00000000000E+00 -0.45593999997E+02  0.45594000000E+02  0.51100000000E-03 0.  1.
    9900012    2    1    2    0    0 -0.39916293601E+02 -0.74591134969E+01 -0.20532179471E+01  0.50528873436E+02  0.30000041295E+02 0.  0.
         12    1    1    2    0    0  0.39916293601E+02  0.74591134969E+01  0.20532179471E+01  0.40659126564E+02  0.00000000000E+00 0. -1.
         11    1    3    3    0    0 -0.17460946954E+02 -0.41460643665E+01  0.10079989269E+02  0.20583505585E+02  0.51100000000E-03 0. -1.
        -11    1    3    3    0    0 -0.54064444488E+01 -0.34491289911E+01 -0.11156068590E+02  0.12867944631E+02  0.51100000000E-03 0.  1.
         12    1    3    3    0    0 -0.17048902199E+02  0.13607986077E+00 -0.97713862588E+00  0.17077423219E+02  0.00000000000E+00 0. -1.
</event>
<event>
 7    1  0.3041451E-011  0.5052886E+02  0.7816164E-02  0.1300439E+00
        -11   -1    0    0    0    0  0.00000000000E+00  0.00000000000E+00  0.45593999997E+02  0.45594000000E+02  0.51100000000E-03 0.  1.
         11   -1    0    0    0    0 -0.00000000000E+00 -0.00000000000E+00 -0.45593999997E+02  0.45594000000E+02  0.51100000000E-03 0. -1.
    9900012    2    1    2    0    0 -0.29843798863E+02 -0.27500952788E+02  0.24921720585E+01  0.50528860112E+02  0.30000000797E+02 0.  0.
         12    1    1    2    0    0  0.29843798863E+02  0.27500952788E+02 -0.24921720585E+01  0.40659139888E+02  0.00000000000E+00 0. -1.
         11    1    3    3    0    0 -0.84909458980E+01 -0.18435017574E+00  0.66106151063E+00  0.85186354430E+01  0.51100000000E-03 0. -1.
        -11    1    3    3    0    0 -0.45339320152E+00 -0.15235845673E+02 -0.63632449347E+01  0.16517489068E+02  0.51100000000E-03 0.  1.
        -12    1    3    3    0    0 -0.20899459764E+02 -0.12080756940E+02  0.81943554826E+01  0.25492735601E+02  0.00000000000E+00 0.  1.
</event>
<event>
 7    1  0.3041451E-011  0.5052884E+02  0.7816164E-02  0.1300439E+00
        -11   -1    0    0    0    0  0.00000000000E+00  0.00000000000E+00  0.45593999997E+02  0.45594000000E+02  0.51100000000E-03 0.  1.
         11   -1    0    0    0    0 -0.00000000000E+00 -0.00000000000E+00 -0.45593999997E+02  0.45594000000E+02  0.51100000000E-03 0. -1.
    9900012    2    1    2    0    0  0.28850761038E+02 -0.16735354064E+02  0.23253569523E+02  0.50528843790E+02  0.29999951185E+02 0.  0.
         12    1    1    2    0    0 -0.28850761038E+02  0.16735354064E+02 -0.23253569523E+02  0.40659156210E+02  0.00000000000E+00 0. -1.
         11    1    3    3    0    0  0.14158574118E+02 -0.22372871059E+01 -0.24729374389E+01  0.14545999260E+02  0.51100000000E-03 0. -1.
        -11    1    3    3    0    0  0.12673619799E+02 -0.28839461679E+01  0.16551016896E+02  0.21044570437E+02  0.51100000000E-03 0.  1.
         12    1    3    3    0    0  0.20185671216E+01 -0.11614120790E+02  0.91754900656E+01  0.14938274094E+02  0.00000000000E+00 0. -1.
</event>
<event>
 7    1  0.3041451E-011  0.5052890E+02  0.7816164E-02  0.1300439E+00
        -11   -1    0    0    0    0  0.00000000000E+00  0.00000000000E+00  0.45593999997E+02  0.45594000000E+02  0.51100000000E-03 0.  1.
         11   -1    0    0    0    0 -0.00000000000E+00 -0.00000000000E+00 -0.45593999997E+02  0.45594000000E+02  0.51100000000E-03 0. -1.
    9900012    2    1    2    0    0  0.17420505310E+02  0.11616176833E+02  0.34853304583E+02  0.50528900037E+02  0.30000122152E+02 0.  0.
         12    1    1    2    0    0 -0.17420505310E+02 -0.11616176833E+02 -0.34853304583E+02  0.40659099963E+02  0.00000000000E+00 0. -1.
         11    1    3    3    0    0  0.54603579504E+01 -0.90799098535E+01  0.11943917768E+02  0.15966134279E+02  0.51100000000E-03 0. -1.
        -11    1    3    3    0    0  0.31868290199E+01  0.73912661312E+01  0.14398456476E+02  0.16495521919E+02  0.51100000000E-03 0.  1.
         12    1    3    3    0    0  0.87733183400E+01  0.13304820555E+02  0.85109303378E+01  0.18067243839E+02  0.00000000000E+00 0. -1.
</event>
<event>
 7    1  0.3041451E-011  0.5052885E+02  0.7816164E-02  0.1300439E+00
        -11   -1    0    0    0    0  0.00000000000E+00  0.00000000000E+00  0.45593999997E+02  0.45594000000E+02  0.51100000000E-03 0. -1.
         11   -1    0    0    0    0 -0.00000000000E+00 -0.00000000000E+00 -0.45593999997E+02  0.45594000000E+02  0.51100000000E-03 0.  1.
    9900012    2    1    2    0    0  0.32033425324E+02  0.20293023380E+02 -0.14670345965E+02  0.50528853592E+02  0.29999980979E+02 0.  0.
         12    1    1    2    0    0 -0.32033425324E+02 -0.20293023380E+02  0.14670345965E+02  0.40659146408E+02  0.00000000000E+00 0. -1.
         11    1    3    3    0    0  0.10496753605E+02  0.16806092082E+00 -0.72685497831E+01  0.12768786040E+02  0.51100000000E-03 0. -1.
        -11    1    3    3    0    0  0.11572221901E+02  0.77301755444E+01  0.76349905610E+01  0.15873405898E+02  0.51100000000E-03 0.  1.
        -12    1    3    3    0    0  0.99644498180E+01  0.12394786915E+02 -0.15036786743E+02  0.21886661654E+02  0.00000000000E+00 0.  1.
</event>
<event>
 7    1  0.3041451E-011  0.5052886E+02  0.7816164E-02  0.1300439E+00
        -11   -1    0    0    0    0  0.00000000000E+00  0.00000000000E+00  0.45593999997E+02  0.45594000000E+02  0.51100000000E-03 0.  1.
         11   -1    0    0    0    0 -0.00000000000E+00 -0.00000000000E+00 -0.45593999997E+02  0.45594000000E+02  0.51100000000E-03 0. -1.
    9900012    2    1    2    0    0  0.22553858591E+01  0.40248629158E+02  0.53034550443E+01  0.50528861422E+02  0.30000004779E+02 0.  0.
         12    1    1    2    0    0 -0.22553858591E+01 -0.40248629158E+02 -0.53034550443E+01  0.40659138578E+02  0.00000000000E+00 0. -1.
         11    1    3    3    0    0  0.65908096003E+01  0.13664151398E+02 -0.48122648603E+01  0.15915580352E+02  0.51100000000E-03 0. -1.
        -11    1    3    3    0    0  0.36422648638E+01  0.19614414884E+02  0.12776878359E+02  0.23690504120E+02  0.51100000000E-03 0.  1.
        -12    1    3    3    0    0 -0.79776886051E+01  0.69700628761E+01 -0.26611584548E+01  0.10922776950E+02  0.00000000000E+00 0.  1.
</event>
<event>
 7    1  0.3041451E-011  0.5052886E+02  0.7816164E-02  0.1300439E+00
        -11   -1    0    0    0    0  0.00000000000E+00  0.00000000000E+00  0.45593999997E+02  0.45594000000E+02  0.51100000000E-03 0. -1.
         11   -1    0    0    0    0 -0.00000000000E+00 -0.00000000000E+00 -0.45593999997E+02  0.45594000000E+02  0.51100000000E-03 0.  1.
    9900012    2    1    2    0    0 -0.28707604977E+02  0.27698099953E+02 -0.78647718703E+01  0.50528856365E+02  0.29999989408E+02 0.  0.
         12    1    1    2    0    0  0.28707604977E+02 -0.27698099953E+02  0.78647718703E+01  0.40659143635E+02  0.00000000000E+00 0. -1.
         11    1    3    3    0    0 -0.10602689755E+02  0.27035009695E+02  0.28682070400E-01  0.29039793425E+02  0.51100000000E-03 0. -1.
        -11    1    3    3    0    0 -0.16311779015E+02  0.32400003366E+01 -0.54168677433E+01  0.17490402889E+02  0.51100000000E-03 0.  1.
         12    1    3    3    0    0 -0.17931362065E+01 -0.25769100784E+01 -0.24765861974E+01  0.39986600506E+01  0.00000000000E+00 0. -1.
</event>
<event>
 7    1  0.3041451E-011  0.5052886E+02  0.7816164E-02  0.1300439E+00
        -11   -1    0    0    0    0  0.00000000000E+00  0.00000000000E+00  0.45593999997E+02  0.45594000000E+02  0.51100000000E-03 0. -1.
         11   -1    0    0    0    0 -0.00000000000E+00 -0.00000000000E+00 -0.45593999997E+02  0.45594000000E+02  0.51100000000E-03 0.  1.
    9900012    2    1    2    0    0 -0.13862544266E+01 -0.14518917987E+02 -0.37953193164E+02  0.50528861394E+02  0.30000004693E+02 0.  0.
         12    1    1    2    0    0  0.13862544266E+01  0.14518917987E+02  0.37953193164E+02  0.40659138606E+02  0.00000000000E+00 0. -1.
         11    1    3    3    0    0  0.61620938695E+01 -0.87020908383E+01 -0.25528333525E+01  0.10964248456E+02  0.51100000000E-03 0. -1.
        -11    1    3    3    0    0 -0.11214616620E+02 -0.60261681252E+00 -0.24159183963E+02  0.26642014619E+02  0.51100000000E-03 0.  1.
         12    1    3    3    0    0  0.36662683237E+01 -0.52142103360E+01 -0.11241175849E+02  0.12922598319E+02  0.00000000000E+00 0. -1.
</event>
<event>
 7    1  0.3041451E-011  0.5052886E+02  0.7816164E-02  0.1300439E+00
        -11   -1    0    0    0    0  0.00000000000E+00  0.00000000000E+00  0.45593999997E+02  0.45594000000E+02  0.51100000000E-03 0. -1.
         11   -1    0    0    0    0 -0.00000000000E+00 -0.00000000000E+00 -0.45593999997E+02  0.45594000000E+02  0.51100000000E-03 0.  1.
    9900012    2    1    2    0    0  0.16521920270E+02  0.62172752724E+01 -0.36626999032E+02  0.50528863028E+02  0.30000009660E+02 0.  0.
         12    1    1    2    0    0 -0.16521920270E+02 -0.62172752724E+01  0.36626999032E+02  0.40659136972E+02  0.00000000000E+00 0. -1.
         11    1    3    3    0    0  0.19037322501E+02  0.66855808461E+01 -0.10876236197E+02  0.22921805194E+02  0.51100000000E-03 0. -1.
        -11    1    3    3    0    0  0.31415315318E-02 -0.34991899398E+01 -0.21607571939E+02  0.21889072741E+02  0.51100000000E-03 0.  1.
        -12    1    3    3    0    0 -0.25185437629E+01  0.30308843660E+01 -0.41431908964E+01  0.57179850935E+01  0.00000000000E+00 0.  1.
</event>
<event>
 7    1  0.3041451E-011  0.5052886E+02  0.7816164E-02  0.1300439E+00
        -11   -1    0    0    0    0  0.00000000000E+00  0.00000000000E+00  0.45593999997E+02  0.45594000000E+02  0.51100000000E-03 0. -1.
         11   -1    0    0    0    0 -0.00000000000E+00 -0.00000000000E+00 -0.45593999997E+02  0.45594000000E+02  0.51100000000E-03 0.  1.
    9900012    2    1    2    0    0 -0.39732887299E+01 -0.16879311866E+02  0.36775907243E+02  0.50528861471E+02  0.30000004927E+02 0.  0.
         12    1    1    2    0    0  0.39732887299E+01  0.16879311866E+02 -0.36775907243E+02  0.40659138529E+02  0.00000000000E+00 0. -1.
         11    1    3    3    0    0 -0.71156720211E+01 -0.23829259380E+02  0.29611325010E+02  0.38669069810E+02  0.51100000000E-03 0. -1.
        -11    1    3    3    0    0  0.27505354327E+01  0.20564497597E+01  0.33737907415E+00  0.34508340559E+01  0.51100000000E-03 0.  1.
         12    1    3    3    0    0  0.39184785847E+00  0.48934977547E+01  0.68272031591E+01  0.84089576045E+01  0.00000000000E+00 0. -1.
</event>
<event>
 7    1  0.3041451E-011  0.5052886E+02  0.7816164E-02  0.1300439E+00
        -11   -1    0    0    0    0  0.00000000000E+00  0.00000000000E+00  0.45593999997E+02  0.45594000000E+02  0.51100000000E-03 0. -1.
         11   -1    0    0    0    0 -0.00000000000E+00 -0.00000000000E+00 -0.45593999997E+02  0.45594000000E+02  0.51100000000E-03 0.  1.
    9900012    2    1    2    0    0 -0.11593854348E+02  0.20068344679E+02 -0.33406736498E+02  0.50528856376E+02  0.29999989439E+02 0.  0.
         12    1    1    2    0    0  0.11593854348E+02 -0.20068344679E+02  0.33406736498E+02  0.40659143624E+02  0.00000000000E+00 0. -1.
         11    1    3    3    0    0 -0.44448568828E+01  0.32386003290E+01  0.11528196906E+01  0.56190994207E+01  0.51100000000E-03 0. -1.
        -11    1    3    3    0    0  0.41816617730E+01  0.43475619129E+01 -0.24601810544E+02  0.25330548199E+02  0.51100000000E-03 0.  1.
        -12    1    3    3    0    0 -0.11330659238E+02  0.12482182438E+02 -0.99577456448E+01  0.19579208756E+02  0.00000000000E+00 0.  1.
</event>
<event>
 7    1  0.3041451E-011  0.5052886E+02  0.7816164E-02  0.1300439E+00
        -11   -1    0    0    0    0  0.00000000000E+00  0.00000000000E+00  0.45593999997E+02  0.45594000000E+02  0.51100000000E-03 0.  1.
         11   -1    0    0    0    0 -0.00000000000E+00 -0.00000000000E+00 -0.45593999997E+02  0.45594000000E+02  0.51100000000E-03 0. -1.
    9900012    2    1    2    0    0 -0.33904206049E+02  0.20838198896E+02 -0.83330786782E+01  0.50528856855E+02  0.29999990896E+02 0.  0.
         12    1    1    2    0    0  0.33904206049E+02 -0.20838198896E+02  0.83330786782E+01  0.40659143145E+02  0.00000000000E+00 0. -1.
         11    1    3    3    0    0 -0.21607081250E+02 -0.36233973977E+01 -0.31863843252E+01  0.22139286669E+02  0.51100000000E-03 0. -1.
        -11    1    3    3    0    0 -0.42236182959E+01  0.74736028530E+01 -0.42000737548E+01  0.95568986037E+01  0.51100000000E-03 0.  1.
         12    1    3    3    0    0 -0.80735065029E+01  0.16987993440E+02 -0.94662059812E+00  0.18832671582E+02  0.00000000000E+00 0. -1.
</event>
<event>
 7    1  0.3041451E-011  0.5052887E+02  0.7816164E-02  0.1300439E+00
        -11   -1    0    0    0    0  0.00000000000E+00  0.00000000000E+00  0.45593999997E+02  0.45594000000E+02  0.51100000000E-03 0.  1.
         11   -1    0    0    0    0 -0.00000000000E+00 -0.00000000000E+00 -0.45593999997E+02  0.45594000000E+02  0.51100000000E-03 0. -1.
    9900012    2    1    2    0    0 -0.38439042555E+01 -0.73914341207E+01  0.39796434816E+02  0.50528866680E+02  0.30000020761E+02 0.  0.
         12    1    1    2    0    0  0.38439042555E+01  0.73914341207E+01 -0.39796434816E+02  0.40659133320E+02  0.00000000000E+00 0. -1.
         11    1    3    3    0    0 -0.45626715165E+01  0.63178133083E+01  0.13696177115E+02  0.15758109156E+02  0.51100000000E-03 0. -1.
        -11    1    3    3    0    0 -0.51388836137E+01 -0.12044870377E+02  0.25481987359E+02  0.28649933808E+02  0.51100000000E-03 0.  1.
        -12    1    3    3    0    0  0.58576508747E+01 -0.16643770524E+01  0.61827034200E+00  0.61208237157E+01  0.00000000000E+00 0.  1.
</event>
<event>
 7    1  0.3041451E-011  0.5052888E+02  0.7816164E-02  0.1300439E+00
        -11   -1    0    0    0    0  0.00000000000E+00  0.00000000000E+00  0.45593999997E+02  0.45594000000E+02  0.51100000000E-03 0.  1.
         11   -1    0    0    0    0 -0.00000000000E+00 -0.00000000000E+00 -0.45593999997E+02  0.45594000000E+02  0.51100000000E-03 0. -1.
    9900012    2    1    2    0    0 -0.55495658155E+01  0.10766609678E+02  0.38812970678E+02  0.50528877315E+02  0.30000053085E+02 0.  0.
         12    1    1    2    0    0  0.55495658155E+01 -0.10766609678E+02 -0.38812970678E+02  0.40659122685E+02  0.00000000000E+00 0. -1.
         11    1    3    3    0    0 -0.53632234147E+00 -0.26117326251E+01  0.44411058993E+00  0.27029656743E+01  0.51100000000E-03 0. -1.
        -11    1    3    3    0    0  0.88865027155E+01  0.99244630868E+01  0.24508378508E+02  0.27894901244E+02  0.51100000000E-03 0.  1.
        -12    1    3    3    0    0 -0.13899746190E+02  0.34538792168E+01  0.13860481580E+02  0.19931010396E+02  0.00000000000E+00 0.  1.
</event>
<event>
 7    1  0.3041451E-011  0.5052882E+02  0.7816164E-02  0.1300439E+00
        -11   -1    0    0    0    0  0.00000000000E+00  0.00000000000E+00  0.45593999997E+02  0.45594000000E+02  0.51100000000E-03 0.  1.
         11   -1    0    0    0    0 -0.00000000000E+00 -0.00000000000E+00 -0.45593999997E+02  0.45594000000E+02  0.51100000000E-03 0. -1.
    9900012    2    1    2    0    0  0.23195444173E+02 -0.25830818242E+02 -0.21163870734E+02  0.50528816217E+02  0.29999867374E+02 0.  0.
         12    1    1    2    0    0 -0.23195444173E+02  0.25830818242E+02  0.21163870734E+02  0.40659183783E+02  0.00000000000E+00 0. -1.
         11    1    3    3    0    0  0.10319327725E+02 -0.10851946118E+01 -0.19553354932E+02  0.22135940491E+02  0.51100000000E-03 0. -1.
        -11    1    3    3    0    0  0.55784108370E+01 -0.15342417370E+02  0.35463260270E+00  0.16328937588E+02  0.51100000000E-03 0.  1.
         12    1    3    3    0    0  0.72977056108E+01 -0.94032062606E+01 -0.19651484049E+01  0.12063938139E+02  0.00000000000E+00 0. -1.
</event>
<event>
 7    1  0.3041451E-011  0.5052886E+02  0.7816164E-02  0.1300439E+00
        -11   -1    0    0    0    0  0.00000000000E+00  0.00000000000E+00  0.45593999997E+02  0.45594000000E+02  0.51100000000E-03 0.  1.
         11   -1    0    0    0    0 -0.00000000000E+00 -0.00000000000E+00 -0.45593999997E+02  0.45594000000E+02  0.51100000000E-03 0. -1.
    9900012    2    1    2    0    0 -0.16140579953E+02  0.25258325519E+02  0.27471153952E+02  0.50528860453E+02  0.30000001833E+02 0.  0.
         12    1    1    2    0    0  0.16140579953E+02 -0.25258325519E+02 -0.27471153952E+02  0.40659139547E+02  0.00000000000E+00 0. -1.
         11    1    3    3    0    0 -0.19353345047E+02  0.14097837747E+02  0.18974991597E+02  0.30550798681E+02  0.51100000000E-03 0. -1.
        -11    1    3    3    0    0  0.72991281161E+00 -0.24131847177E+01  0.52179743197E+01  0.57951263538E+01  0.51100000000E-03 0.  1.
         12    1    3    3    0    0  0.24828522823E+01  0.13573672489E+02  0.32781880357E+01  0.14182935419E+02  0.00000000000E+00 0. -1.
</event>
<event>
 7    1  0.3041451E-011  0.5052885E+02  0.7816164E-02  0.1300439E+00
        -11   -1    0    0    0    0  0.00000000000E+00  0.00000000000E+00  0.45593999997E+02  0.45594000000E+02  0.51100000000E-03 0. -1.
         11   -1    0    0    0    0 -0.00000000000E+00 -0.00000000000E+00 -0.45593999997E+02  0.45594000000E+02  0.51100000000E-03 0.  1.
    9900012    2    1    2    0    0  0.39411568913E+01 -0.19587889216E+02 -0.35411138104E+02  0.50528845762E+02  0.29999957177E+02 0.  0.
         12    1    1    2    0    0 -0.39411568913E+01  0.19587889216E+02  0.35411138104E+02  0.40659154238E+02  0.00000000000E+00 0. -1.
         11    1    3    3    0    0 -0.13906876007E+01 -0.14765670578E+01  0.49124818929E+01  0.53147663061E+01  0.51100000000E-03 0. -1.
        -11    1    3    3    0    0 -0.35177564321E+00 -0.10078325899E+02 -0.15292877049E+02  0.18318528536E+02  0.51100000000E-03 0.  1.
         12    1    3    3    0    0  0.56836201353E+01 -0.80329962584E+01 -0.25030742948E+02  0.26895550919E+02  0.00000000000E+00 0. -1.
</event>
<event>
 7    1  0.3041451E-011  0.5052886E+02  0.7816164E-02  0.1300439E+00
        -11   -1    0    0    0    0  0.00000000000E+00  0.00000000000E+00  0.45593999997E+02  0.45594000000E+02  0.51100000000E-03 0.  1.
         11   -1    0    0    0    0 -0.00000000000E+00 -0.00000000000E+00 -0.45593999997E+02  0.45594000000E+02  0.51100000000E-03 0. -1.
    9900012    2    1    2    0    0 -0.54401874156E+01 -0.17238178158E+02  0.36419985833E+02  0.50528858428E+02  0.29999995677E+02 0.  0.
         12    1    1    2    0    0  0.54401874156E+01  0.17238178158E+02 -0.36419985833E+02  0.40659141572E+02  0.00000000000E+00 0. -1.
         11    1    3    3    0    0  0.20940496482E+01  0.72706006422E+01  0.13195479655E+02  0.15210764650E+02  0.51100000000E-03 0. -1.
        -11    1    3    3    0    0 -0.61407851400E+01 -0.16468389309E+02  0.11393636110E+02  0.20945931171E+02  0.51100000000E-03 0.  1.
         12    1    3    3    0    0 -0.13934519237E+01 -0.80403894915E+01  0.11830870068E+02  0.14372162607E+02  0.00000000000E+00 0. -1.
</event>
<event>
 7    1  0.3041451E-011  0.5052884E+02  0.7816164E-02  0.1300439E+00
        -11   -1    0    0    0    0  0.00000000000E+00  0.00000000000E+00  0.45593999997E+02  0.45594000000E+02  0.51100000000E-03 0. -1.
         11   -1    0    0    0    0 -0.00000000000E+00 -0.00000000000E+00 -0.45593999997E+02  0.45594000000E+02  0.51100000000E-03 0.  1.
    9900012    2    1    2    0    0  0.17572620885E+02 -0.36586675011E+02 -0.24052226393E+01  0.50528844954E+02  0.29999954721E+02 0.  0.
         12    1    1    2    0    0 -0.17572620885E+02  0.36586675011E+02  0.24052226393E+01  0.40659155046E+02  0.00000000000E+00 0. -1.
         11    1    3    3    0    0  0.45632893879E+01 -0.19980487185E+02 -0.13578728839E+02  0.24585063663E+02  0.51100000000E-03 0. -1.
        -11    1    3    3    0    0 -0.74681892109E+00 -0.68595739208E+00 -0.11715079617E+01  0.15494215727E+01  0.51100000000E-03 0.  1.
         12    1    3    3    0    0  0.13756150418E+02 -0.15920230434E+02  0.12345014161E+02  0.24394359718E+02  0.00000000000E+00 0. -1.
</event>
<event>
 7    1  0.3041451E-011  0.5052887E+02  0.7816164E-02  0.1300439E+00
        -11   -1    0    0    0    0  0.00000000000E+00  0.00000000000E+00  0.45593999997E+02  0.45594000000E+02  0.51100000000E-03 0.  1.
         11   -1    0    0    0    0 -0.00000000000E+00 -0.00000000000E+00 -0.45593999997E+02  0.45594000000E+02  0.51100000000E-03 0. -1.
    9900012    2    1    2    0    0 -0.29567289382E+02 -0.25283028110E+02  0.11819834050E+02  0.50528873241E+02  0.30000040704E+02 0.  0.
         12    1    1    2    0    0  0.29567289382E+02  0.25283028110E+02 -0.11819834050E+02  0.40659126759E+02  0.00000000000E+00 0. -1.
         11    1    3    3    0    0 -0.91417834848E+01 -0.12835202170E+02  0.15380887447E+02  0.22020134399E+02  0.51100000000E-03 0.  1.
        -11    1    3    3    0    0 -0.22259650063E+02 -0.11889600548E+02 -0.92980443774E+00  0.25253101961E+02  0.51100000000E-03 0. -1.
         12    1    3    3    0    0  0.18341441658E+01 -0.55822539208E+00 -0.26312489601E+01  0.32556368807E+01  0.00000000000E+00 0. -1.
</event>
<event>
 7    1  0.3041451E-011  0.5052889E+02  0.7816164E-02  0.1300439E+00
        -11   -1    0    0    0    0  0.00000000000E+00  0.00000000000E+00  0.45593999997E+02  0.45594000000E+02  0.51100000000E-03 0.  1.
         11   -1    0    0    0    0 -0.00000000000E+00 -0.00000000000E+00 -0.45593999997E+02  0.45594000000E+02  0.51100000000E-03 0. -1.
    9900012    2    1    2    0    0 -0.14073974746E+02 -0.27697016506E+02  0.26229030525E+02  0.50528886252E+02  0.30000080251E+02 0.  0.
         12    1    1    2    0    0  0.14073974746E+02  0.27697016506E+02 -0.26229030525E+02  0.40659113748E+02  0.00000000000E+00 0. -1.
         11    1    3    3    0    0 -0.67488398038E+01 -0.51451516310E-01  0.31161241750E+01  0.74336879199E+01  0.51100000000E-03 0. -1.
        -11    1    3    3    0    0  0.62918124354E+01 -0.86012913825E+01  0.69233976066E+00  0.10679346973E+02  0.51100000000E-03 0.  1.
        -12    1    3    3    0    0 -0.13616947378E+02 -0.19044273608E+02  0.22420566589E+02  0.32415851359E+02  0.00000000000E+00 0.  1.
</event>
<event>
 7    1  0.3041451E-011  0.5052885E+02  0.7816164E-02  0.1300439E+00
        -11   -1    0    0    0    0  0.00000000000E+00  0.00000000000E+00  0.45593999997E+02  0.45594000000E+02  0.51100000000E-03 0.  1.
         11   -1    0    0    0    0 -0.00000000000E+00 -0.00000000000E+00 -0.45593999997E+02  0.45594000000E+02  0.51100000000E-03 0. -1.
    9900012    2    1    2    0    0  0.26704686603E+02  0.12527536737E+02  0.27983692105E+02  0.50528849897E+02  0.29999969748E+02 0.  0.
         12    1    1    2    0    0 -0.26704686603E+02 -0.12527536737E+02 -0.27983692105E+02  0.40659150103E+02  0.00000000000E+00 0. -1.
         11    1    3    3    0    0  0.16275723761E+02  0.14124734455E+02  0.15964876254E+02  0.26819481379E+02  0.51100000000E-03 0. -1.
        -11    1    3    3    0    0 -0.95212573643E+00 -0.43277070575E+01  0.11120556059E+02  0.11970896338E+02  0.51100000000E-03 0.  1.
        -12    1    3    3    0    0  0.11381088579E+02  0.27305093403E+01  0.89825979086E+00  0.11738472181E+02  0.00000000000E+00 0.  1.
</event>
<event>
 7    1  0.3041451E-011  0.5052884E+02  0.7816164E-02  0.1300439E+00
        -11   -1    0    0    0    0  0.00000000000E+00  0.00000000000E+00  0.45593999997E+02  0.45594000000E+02  0.51100000000E-03 0.  1.
         11   -1    0    0    0    0 -0.00000000000E+00 -0.00000000000E+00 -0.45593999997E+02  0.45594000000E+02  0.51100000000E-03 0. -1.
    9900012    2    1    2    0    0 -0.81711562187E+01 -0.28453195867E+02  0.27871400172E+02  0.50528842402E+02  0.29999946966E+02 0.  0.
         12    1    1    2    0    0  0.81711562187E+01  0.28453195867E+02 -0.27871400172E+02  0.40659157598E+02  0.00000000000E+00 0. -1.
         11    1    3    3    0    0 -0.14376894643E+02 -0.13480916808E+02  0.69577204626E+01  0.20900719889E+02  0.51100000000E-03 0. -1.
        -11    1    3    3    0    0  0.60454063979E+01 -0.13257644133E+02  0.80442430293E+01  0.16643975266E+02  0.51100000000E-03 0.  1.
         12    1    3    3    0    0  0.16033202656E+00 -0.17146349255E+01  0.12869436680E+02  0.12984147248E+02  0.00000000000E+00 0. -1.
</event>
<event>
 7    1  0.3041451E-011  0.5052884E+02  0.7816164E-02  0.1300439E+00
        -11   -1    0    0    0    0  0.00000000000E+00  0.00000000000E+00  0.45593999997E+02  0.45594000000E+02  0.51100000000E-03 0.  1.
         11   -1    0    0    0    0 -0.00000000000E+00 -0.00000000000E+00 -0.45593999997E+02  0.45594000000E+02  0.51100000000E-03 0. -1.
    9900012    2    1    2    0    0  0.12348462535E+02  0.30981108316E+02  0.23256261918E+02  0.50528839681E+02  0.29999938693E+02 0.  0.
         12    1    1    2    0    0 -0.12348462535E+02 -0.30981108316E+02 -0.23256261918E+02  0.40659160319E+02  0.00000000000E+00 0. -1.
         11    1    3    3    0    0 -0.17594214580E+01  0.27093323388E+02  0.12853241743E+02  0.30039133803E+02  0.51100000000E-03 0. -1.
        -11    1    3    3    0    0  0.48038475029E+00  0.10931801021E+01  0.56717048374E+01  0.57960372901E+01  0.51100000000E-03 0.  1.
         12    1    3    3    0    0  0.13627499243E+02  0.27946048265E+01  0.47313153376E+01  0.14693668588E+02  0.00000000000E+00 0. -1.
</event>
<event>
 7    1  0.3041451E-011  0.5052886E+02  0.7816164E-02  0.1300439E+00
        -11   -1    0    0    0    0  0.00000000000E+00  0.00000000000E+00  0.45593999997E+02  0.45594000000E+02  0.51100000000E-03 0. -1.
         11   -1    0    0    0    0 -0.00000000000E+00 -0.00000000000E+00 -0.45593999997E+02  0.45594000000E+02  0.51100000000E-03 0.  1.
    9900012    2    1    2    0    0  0.34927112091E+02 -0.31466915145E+01  0.20575740200E+02  0.50528856978E+02  0.29999991272E+02 0.  0.
         12    1    1    2    0    0 -0.34927112091E+02  0.31466915145E+01 -0.20575740200E+02  0.40659143022E+02  0.00000000000E+00 0. -1.
         11    1    3    3    0    0  0.43433186432E+01  0.35156843340E+01  0.10614605478E+02  0.11995595145E+02  0.51100000000E-03 0. -1.
        -11    1    3    3    0    0  0.31577906335E+02 -0.10208249303E+02  0.72746244478E+01  0.33974883126E+02  0.51100000000E-03 0.  1.
        -12    1    3    3    0    0 -0.99411288741E+00  0.35458734542E+01  0.26865102743E+01  0.45583787074E+01  0.00000000000E+00 0.  1.
</event>
<event>
 7    1  0.3041451E-011  0.5052886E+02  0.7816164E-02  0.1300439E+00
        -11   -1    0    0    0    0  0.00000000000E+00  0.00000000000E+00  0.45593999997E+02  0.45594000000E+02  0.51100000000E-03 0.  1.
         11   -1    0    0    0    0 -0.00000000000E+00 -0.00000000000E+00 -0.45593999997E+02  0.45594000000E+02  0.51100000000E-03 0. -1.
    9900012    2    1    2    0    0 -0.22516216192E+02  0.21990075101E+02  0.25741451576E+02  0.50528859284E+02  0.29999998279E+02 0.  0.
         12    1    1    2    0    0  0.22516216192E+02 -0.21990075101E+02 -0.25741451576E+02  0.40659140716E+02  0.00000000000E+00 0. -1.
         11    1    3    3    0    0  0.54640538108E+01  0.11682333839E+01  0.38592089512E+01  0.67907398180E+01  0.51100000000E-03 0. -1.
        -11    1    3    3    0    0 -0.28591536534E+02  0.18337735932E+02  0.16464789627E+02  0.37747023965E+02  0.51100000000E-03 0.  1.
        -12    1    3    3    0    0  0.61126653083E+00  0.24841057859E+01  0.54174529970E+01  0.59910955010E+01  0.00000000000E+00 0.  1.
</event>
<event>
 7    1  0.3041451E-011  0.5052886E+02  0.7816164E-02  0.1300439E+00
        -11   -1    0    0    0    0  0.00000000000E+00  0.00000000000E+00  0.45593999997E+02  0.45594000000E+02  0.51100000000E-03 0.  1.
         11   -1    0    0    0    0 -0.00000000000E+00 -0.00000000000E+00 -0.45593999997E+02  0.45594000000E+02  0.51100000000E-03 0. -1.
    9900012    2    1    2    0    0 -0.16317546806E+02 -0.36190188458E+02  0.87848696480E+01  0.50528855775E+02  0.29999987614E+02 0.  0.
         12    1    1    2    0    0  0.16317546806E+02  0.36190188458E+02 -0.87848696480E+01  0.40659144225E+02  0.00000000000E+00 0. -1.
         11    1    3    3    0    0  0.47753860066E+01 -0.66697778524E+01  0.34942570060E+00  0.82105022193E+01  0.51100000000E-03 0. -1.
        -11    1    3    3    0    0 -0.15832196698E+02 -0.74726300957E+01 -0.14969430705E+01  0.17570984368E+02  0.51100000000E-03 0.  1.
        -12    1    3    3    0    0 -0.52607361145E+01 -0.22047780509E+02  0.99323870179E+01  0.24747369188E+02  0.00000000000E+00 0.  1.
</event>
<event>
 7    1  0.3041451E-011  0.5052885E+02  0.7816164E-02  0.1300439E+00
        -11   -1    0    0    0    0  0.00000000000E+00  0.00000000000E+00  0.45593999997E+02  0.45594000000E+02  0.51100000000E-03 0. -1.
         11   -1    0    0    0    0 -0.00000000000E+00 -0.00000000000E+00 -0.45593999997E+02  0.45594000000E+02  0.51100000000E-03 0.  1.
    9900012    2    1    2    0    0  0.11814004519E+02  0.38819976095E+02 -0.25701415240E+01  0.50528845136E+02  0.29999955276E+02 0.  0.
         12    1    1    2    0    0 -0.11814004519E+02 -0.38819976095E+02  0.25701415240E+01  0.40659154864E+02  0.00000000000E+00 0. -1.
         11    1    3    3    0    0 -0.34969730991E+01  0.87238667004E+01 -0.81366273731E+01  0.12431386742E+02  0.51100000000E-03 0. -1.
        -11    1    3    3    0    0  0.16612380350E+02  0.21013078399E+02 -0.10143230124E+01  0.26805773560E+02  0.51100000000E-03 0.  1.
         12    1    3    3    0    0 -0.13014027315E+01  0.90830309953E+01  0.65808088615E+01  0.11291684835E+02  0.00000000000E+00 0. -1.
</event>
<event>
 7    1  0.3679432E-011  0.5052884E+02  0.7816164E-02  0.1300439E+00
        -11   -1    0    0    0    0  0.00000000000E+00  0.00000000000E+00  0.45593999997E+02  0.45594000000E+02  0.51100000000E-03 0. -1.
         11   -1    0    0    0    0 -0.00000000000E+00 -0.00000000000E+00 -0.45593999997E+02  0.45594000000E+02  0.51100000000E-03 0.  1.
    9900012    2    1    2    0    0  0.33945227842E+02 -0.21860238172E+02  0.47977509543E+01  0.50528844568E+02  0.29999953550E+02 0.  0.
         12    1    1    2    0    0 -0.33945227842E+02  0.21860238172E+02 -0.47977509543E+01  0.40659155432E+02  0.00000000000E+00 0. -1.
         11    1    3    3    0    0 -0.27421046159E+01 -0.71560643284E+01 -0.41730816806E+01  0.87259959530E+01  0.51100000000E-03 0. -1.
        -11    1    3    3    0    0  0.17882288335E+02 -0.77160111864E+01 -0.79173617949E+00  0.19492047383E+02  0.51100000000E-03 0.  1.
         12    1    3    3    0    0  0.18805044122E+02 -0.69881626573E+01  0.97625688144E+01  0.22310801232E+02  0.00000000000E+00 0. -1.
</event>
<event>
 7    1  0.3041451E-011  0.5052884E+02  0.7816164E-02  0.1300439E+00
        -11   -1    0    0    0    0  0.00000000000E+00  0.00000000000E+00  0.45593999997E+02  0.45594000000E+02  0.51100000000E-03 0.  1.
         11   -1    0    0    0    0 -0.00000000000E+00 -0.00000000000E+00 -0.45593999997E+02  0.45594000000E+02  0.51100000000E-03 0. -1.
    9900012    2    1    2    0    0  0.37535468664E+02  0.15419347240E+02  0.25494013199E+01  0.50528842062E+02  0.29999945932E+02 0.  0.
         12    1    1    2    0    0 -0.37535468664E+02 -0.15419347240E+02 -0.25494013199E+01  0.40659157938E+02  0.00000000000E+00 0. -1.
         11    1    3    3    0    0 -0.24546682852E+01 -0.64583912956E+00 -0.28783835072E+01  0.38376550714E+01  0.51100000000E-03 0.  1.
        -11    1    3    3    0    0  0.21102345495E+02  0.76373049513E+01  0.11389106181E+02  0.25166429071E+02  0.51100000000E-03 0. -1.
        -12    1    3    3    0    0  0.18887791454E+02  0.84278814185E+01 -0.59613213540E+01  0.21524757920E+02  0.00000000000E+00 0.  1.
</event>
<event>
 7    1  0.3041451E-011  0.5052887E+02  0.7816164E-02  0.1300439E+00
        -11   -1    0    0    0    0  0.00000000000E+00  0.00000000000E+00  0.45593999997E+02  0.45594000000E+02  0.51100000000E-03 0.  1.
         11   -1    0    0    0    0 -0.00000000000E+00 -0.00000000000E+00 -0.45593999997E+02  0.45594000000E+02  0.51100000000E-03 0. -1.
    9900012    2    1    2    0    0 -0.40079505849E+01 -0.38155254323E+02  0.13463950084E+02  0.50528867542E+02  0.30000023381E+02 0.  0.
         12    1    1    2    0    0  0.40079505849E+01  0.38155254323E+02 -0.13463950084E+02  0.40659132458E+02  0.00000000000E+00 0. -1.
         11    1    3    3    0    0  0.37979462746E+01 -0.82571186297E-02  0.39556010371E+01  0.54837253679E+01  0.51100000000E-03 0. -1.
        -11    1    3    3    0    0 -0.19839139537E+01 -0.37592136095E+02  0.57188236840E+01  0.38076364786E+02  0.51100000000E-03 0.  1.
        -12    1    3    3    0    0 -0.58219829057E+01 -0.55486110959E+00  0.37895253628E+01  0.69687773878E+01  0.00000000000E+00 0.  1.
</event>
<event>
 7    1  0.3210976E-011  0.5052886E+02  0.7816164E-02  0.1300439E+00
        -11   -1    0    0    0    0  0.00000000000E+00  0.00000000000E+00  0.45593999997E+02  0.45594000000E+02  0.51100000000E-03 0. -1.
         11   -1    0    0    0    0 -0.00000000000E+00 -0.00000000000E+00 -0.45593999997E+02  0.45594000000E+02  0.51100000000E-03 0.  1.
    9900012    2    1    2    0    0 -0.12498771181E+02 -0.11761382516E+02 -0.36859413278E+02  0.50528858999E+02  0.29999997414E+02 0.  0.
         12    1    1    2    0    0  0.12498771181E+02  0.11761382516E+02  0.36859413278E+02  0.40659141001E+02  0.00000000000E+00 0. -1.
         11    1    3    3    0    0  0.59934837303E+01  0.22233676272E+00 -0.32403103440E+01  0.68169562305E+01  0.51100000000E-03 0. -1.
        -11    1    3    3    0    0 -0.12841133441E+02 -0.16286818575E+02 -0.26551277345E+02  0.33691623532E+02  0.51100000000E-03 0.  1.
         12    1    3    3    0    0 -0.56511214699E+01  0.43030992956E+01 -0.70678255895E+01  0.10020279237E+02  0.00000000000E+00 0. -1.
</event>
<event>
 7    1  0.3041451E-011  0.5052889E+02  0.7816164E-02  0.1300439E+00
        -11   -1    0    0    0    0  0.00000000000E+00  0.00000000000E+00  0.45593999997E+02  0.45594000000E+02  0.51100000000E-03 0.  1.
         11   -1    0    0    0    0 -0.00000000000E+00 -0.00000000000E+00 -0.45593999997E+02  0.45594000000E+02  0.51100000000E-03 0. -1.
    9900012    2    1    2    0    0  0.25058585076E+02 -0.23975338810E+02  0.21222951955E+02  0.50528889745E+02  0.30000090869E+02 0.  0.
         12    1    1    2    0    0 -0.25058585076E+02  0.23975338810E+02 -0.21222951955E+02  0.40659110255E+02  0.00000000000E+00 0. -1.
         11    1    3    3    0    0 -0.17940233047E+01 -0.16431402727E+01 -0.18210015814E+00  0.24395881420E+01  0.51100000000E-03 0. -1.
        -11    1    3    3    0    0  0.23389061727E+02 -0.15415110211E+02  0.30584535682E+01  0.28178501908E+02  0.51100000000E-03 0.  1.
        -12    1    3    3    0    0  0.34635466533E+01 -0.69170883262E+01  0.18346598545E+02  0.19910799695E+02  0.00000000000E+00 0.  1.
</event>
<event>
 7    1  0.3041451E-011  0.5052886E+02  0.7816164E-02  0.1300439E+00
        -11   -1    0    0    0    0  0.00000000000E+00  0.00000000000E+00  0.45593999997E+02  0.45594000000E+02  0.51100000000E-03 0. -1.
         11   -1    0    0    0    0 -0.00000000000E+00 -0.00000000000E+00 -0.45593999997E+02  0.45594000000E+02  0.51100000000E-03 0.  1.
    9900012    2    1    2    0    0 -0.24883339389E+02  0.35517168278E+01 -0.31958883677E+02  0.50528861821E+02  0.30000005991E+02 0.  0.
         12    1    1    2    0    0  0.24883339389E+02 -0.35517168278E+01  0.31958883677E+02  0.40659138179E+02  0.00000000000E+00 0. -1.
         11    1    3    3    0    0 -0.16432304447E+02 -0.21119472234E+01 -0.10506873470E+02  0.19618240005E+02  0.51100000000E-03 0. -1.
        -11    1    3    3    0    0 -0.77180357111E+01  0.12276930472E+02 -0.98314256788E+01  0.17519932311E+02  0.51100000000E-03 0.  1.
        -12    1    3    3    0    0 -0.73299923100E+00 -0.66132664210E+01 -0.11620584528E+02  0.13390689504E+02  0.00000000000E+00 0.  1.
</event>
<event>
 7    1  0.3041451E-011  0.5052884E+02  0.7816164E-02  0.1300439E+00
        -11   -1    0    0    0    0  0.00000000000E+00  0.00000000000E+00  0.45593999997E+02  0.45594000000E+02  0.51100000000E-03 0. -1.
         11   -1    0    0    0    0 -0.00000000000E+00 -0.00000000000E+00 -0.45593999997E+02  0.45594000000E+02  0.51100000000E-03 0.  1.
    9900012    2    1    2    0    0 -0.44260798424E+01  0.20551174921E+02 -0.34802680529E+02  0.50528836883E+02  0.29999930188E+02 0.  0.
         12    1    1    2    0    0  0.44260798424E+01 -0.20551174921E+02  0.34802680529E+02  0.40659163117E+02  0.00000000000E+00 0. -1.
         11    1    3    3    0    0 -0.11408412490E+02  0.42613107311E-01 -0.15585032534E+02  0.19314422869E+02  0.51100000000E-03 0. -1.
        -11    1    3    3    0    0  0.38177344151E+01  0.20696413301E+02 -0.14602781732E+02  0.25615578349E+02  0.51100000000E-03 0.  1.
         12    1    3    3    0    0  0.31645982330E+01 -0.18785148824E+00 -0.46148662640E+01  0.55988356640E+01  0.00000000000E+00 0. -1.
</event>
<event>
 7    1  0.3041451E-011  0.5052885E+02  0.7816164E-02  0.1300439E+00
        -11   -1    0    0    0    0  0.00000000000E+00  0.00000000000E+00  0.45593999997E+02  0.45594000000E+02  0.51100000000E-03 0.  1.
         11   -1    0    0    0    0 -0.00000000000E+00 -0.00000000000E+00 -0.45593999997E+02  0.45594000000E+02  0.51100000000E-03 0. -1.
    9900012    2    1    2    0    0 -0.24701845070E+01 -0.40363725800E+02  0.42230435979E+01  0.50528852577E+02  0.29999977892E+02 0.  0.
         12    1    1    2    0    0  0.24701845070E+01  0.40363725800E+02 -0.42230435979E+01  0.40659147423E+02  0.00000000000E+00 0. -1.
         11    1    3    3    0    0 -0.30314263196E+01 -0.24391096727E+02 -0.67781714619E+01  0.25496249797E+02  0.51100000000E-03 0. -1.
        -11    1    3    3    0    0 -0.50623961296E+01 -0.12163208235E+01  0.70323322073E+01  0.87499135684E+01  0.51100000000E-03 0.  1.
         12    1    3    3    0    0  0.56236379422E+01 -0.14756308249E+02  0.39688828525E+01  0.16282689211E+02  0.00000000000E+00 0. -1.
</event>
<event>
 7    1  0.3041451E-011  0.5052886E+02  0.7816164E-02  0.1300439E+00
        -11   -1    0    0    0    0  0.00000000000E+00  0.00000000000E+00  0.45593999997E+02  0.45594000000E+02  0.51100000000E-03 0.  1.
         11   -1    0    0    0    0 -0.00000000000E+00 -0.00000000000E+00 -0.45593999997E+02  0.45594000000E+02  0.51100000000E-03 0. -1.
    9900012    2    1    2    0    0  0.13877508151E+02  0.31428856465E+01  0.38088088141E+02  0.50528863008E+02  0.30000009599E+02 0.  0.
         12    1    1    2    0    0 -0.13877508151E+02 -0.31428856465E+01 -0.38088088141E+02  0.40659136992E+02  0.00000000000E+00 0. -1.
         11    1    3    3    0    0  0.24731460058E+01 -0.93740545725E+01  0.44846995185E+01  0.10681848170E+02  0.51100000000E-03 0. -1.
        -11    1    3    3    0    0  0.10591745163E+02  0.29031775148E+01  0.12477701091E+02  0.16622470636E+02  0.51100000000E-03 0.  1.
         12    1    3    3    0    0  0.81261698290E+00  0.96137627043E+01  0.21125687532E+02  0.23224544202E+02  0.00000000000E+00 0. -1.
</event>
<event>
 7    1  0.3041451E-011  0.5052882E+02  0.7816164E-02  0.1300439E+00
        -11   -1    0    0    0    0  0.00000000000E+00  0.00000000000E+00  0.45593999997E+02  0.45594000000E+02  0.51100000000E-03 0. -1.
         11   -1    0    0    0    0 -0.00000000000E+00 -0.00000000000E+00 -0.45593999997E+02  0.45594000000E+02  0.51100000000E-03 0.  1.
    9900012    2    1    2    0    0 -0.34503624431E+02  0.20699484290E+02 -0.58480619401E+01  0.50528824194E+02  0.29999891620E+02 0.  0.
         12    1    1    2    0    0  0.34503624431E+02 -0.20699484290E+02  0.58480619401E+01  0.40659175806E+02  0.00000000000E+00 0. -1.
         11    1    3    3    0    0 -0.11520411168E+02 -0.66539056427E+01 -0.83590578261E+00  0.13330156508E+02  0.51100000000E-03 0. -1.
        -11    1    3    3    0    0 -0.10193294135E+02  0.72044514153E+01  0.11944872198E+01  0.12539304825E+02  0.51100000000E-03 0.  1.
         12    1    3    3    0    0 -0.12789919128E+02  0.20148938518E+02 -0.62066433773E+01  0.24659362861E+02  0.00000000000E+00 0. -1.
</event>
<event>
 7    1  0.3041451E-011  0.5052885E+02  0.7816164E-02  0.1300439E+00
        -11   -1    0    0    0    0  0.00000000000E+00  0.00000000000E+00  0.45593999997E+02  0.45594000000E+02  0.51100000000E-03 0.  1.
         11   -1    0    0    0    0 -0.00000000000E+00 -0.00000000000E+00 -0.45593999997E+02  0.45594000000E+02  0.51100000000E-03 0. -1.
    9900012    2    1    2    0    0  0.18282452495E+01 -0.31085261425E+02  0.26144416405E+02  0.50528850136E+02  0.29999970473E+02 0.  0.
         12    1    1    2    0    0 -0.18282452495E+01  0.31085261425E+02 -0.26144416405E+02  0.40659149864E+02  0.00000000000E+00 0. -1.
         11    1    3    3    0    0 -0.88363621989E+01 -0.70425746522E+01  0.18502391057E+01  0.11450001731E+02  0.51100000000E-03 0. -1.
        -11    1    3    3    0    0  0.98437994870E+01 -0.25619337092E+02  0.18703819128E+02  0.33212703467E+02  0.51100000000E-03 0.  1.
         12    1    3    3    0    0  0.82080796135E+00  0.15766503196E+01  0.55903581713E+01  0.58661449371E+01  0.00000000000E+00 0. -1.
</event>
<event>
 7    1  0.3041451E-011  0.5052887E+02  0.7816164E-02  0.1300439E+00
        -11   -1    0    0    0    0  0.00000000000E+00  0.00000000000E+00  0.45593999997E+02  0.45594000000E+02  0.51100000000E-03 0. -1.
         11   -1    0    0    0    0 -0.00000000000E+00 -0.00000000000E+00 -0.45593999997E+02  0.45594000000E+02  0.51100000000E-03 0.  1.
    9900012    2    1    2    0    0  0.33019730706E+02  0.11336231340E+02 -0.20841113532E+02  0.50528871011E+02  0.30000033924E+02 0.  0.
         12    1    1    2    0    0 -0.33019730706E+02 -0.11336231340E+02  0.20841113532E+02  0.40659128989E+02  0.00000000000E+00 0. -1.
         11    1    3    3    0    0  0.14121580307E+00 -0.35424185747E+01 -0.11773081198E+02  0.12295288221E+02  0.51100000000E-03 0. -1.
        -11    1    3    3    0    0  0.10552022382E+02  0.10184438502E+01 -0.57597272927E+00  0.10616692002E+02  0.51100000000E-03 0.  1.
         12    1    3    3    0    0  0.22326492522E+02  0.13860206064E+02 -0.84920596048E+01  0.27616890788E+02  0.00000000000E+00 0. -1.
</event>
<event>
 7    1  0.3041451E-011  0.5052879E+02  0.7816164E-02  0.1300439E+00
        -11   -1    0    0    0    0  0.00000000000E+00  0.00000000000E+00  0.45593999997E+02  0.45594000000E+02  0.51100000000E-03 0.  1.
         11   -1    0    0    0    0 -0.00000000000E+00 -0.00000000000E+00 -0.45593999997E+02  0.45594000000E+02  0.51100000000E-03 0. -1.
    9900012    2    1    2    0    0  0.99380120990E+00  0.39631232834E+02 -0.90304391498E+01  0.50528793318E+02  0.29999797768E+02 0.  0.
         12    1    1    2    0    0 -0.99380120990E+00 -0.39631232834E+02  0.90304391498E+01  0.40659206682E+02  0.00000000000E+00 0. -1.
         11    1    3    3    0    0 -0.47618711061E+01 -0.70299045086E+00 -0.14609442711E+01  0.50303052025E+01  0.51100000000E-03 0. -1.
        -11    1    3    3    0    0  0.91400932748E+01  0.39331873660E+02 -0.94900335396E+01  0.41480095558E+02  0.51100000000E-03 0.  1.
        -12    1    3    3    0    0 -0.33844209587E+01  0.10023496255E+01  0.19205386610E+01  0.40183925574E+01  0.00000000000E+00 0.  1.
</event>
<event>
 7    1  0.3041451E-011  0.5052882E+02  0.7816164E-02  0.1300439E+00
        -11   -1    0    0    0    0  0.00000000000E+00  0.00000000000E+00  0.45593999997E+02  0.45594000000E+02  0.51100000000E-03 0. -1.
         11   -1    0    0    0    0 -0.00000000000E+00 -0.00000000000E+00 -0.45593999997E+02  0.45594000000E+02  0.51100000000E-03 0.  1.
    9900012    2    1    2    0    0 -0.11442309600E+02 -0.37407150916E+02 -0.11088161465E+02  0.50528822521E+02  0.29999886533E+02 0.  0.
         12    1    1    2    0    0  0.11442309600E+02  0.37407150916E+02  0.11088161465E+02  0.40659177479E+02  0.00000000000E+00 0. -1.
         11    1    3    3    0    0 -0.75981886712E+01 -0.28401795062E+02 -0.19179397745E+02  0.35103329357E+02  0.51100000000E-03 0. -1.
        -11    1    3    3    0    0 -0.58389791625E+01 -0.93965611526E+01  0.72410093851E+01  0.13221998954E+02  0.51100000000E-03 0.  1.
        -12    1    3    3    0    0  0.19948582337E+01  0.39120529906E+00  0.85022689494E+00  0.22034942095E+01  0.00000000000E+00 0.  1.
</event>
<event>
 7    1  0.3041451E-011  0.5052887E+02  0.7816164E-02  0.1300439E+00
        -11   -1    0    0    0    0  0.00000000000E+00  0.00000000000E+00  0.45593999997E+02  0.45594000000E+02  0.51100000000E-03 0.  1.
         11   -1    0    0    0    0 -0.00000000000E+00 -0.00000000000E+00 -0.45593999997E+02  0.45594000000E+02  0.51100000000E-03 0. -1.
    9900012    2    1    2    0    0  0.19147262832E+02 -0.24113200088E+02  0.26553740351E+02  0.50528865491E+02  0.30000017146E+02 0.  0.
         12    1    1    2    0    0 -0.19147262832E+02  0.24113200088E+02 -0.26553740351E+02  0.40659134509E+02  0.00000000000E+00 0. -1.
         11    1    3    3    0    0 -0.19125410305E+01 -0.31690415049E+01 -0.42967505429E+01  0.56712170424E+01  0.51100000000E-03 0. -1.
        -11    1    3    3    0    0  0.12073362077E+02 -0.15263548080E+02  0.27540963527E+02  0.33723087701E+02  0.51100000000E-03 0.  1.
        -12    1    3    3    0    0  0.89864417852E+01 -0.56806105030E+01  0.33095273670E+01  0.11134560747E+02  0.00000000000E+00 0.  1.
</event>
<event>
 7    1  0.3041451E-011  0.5052886E+02  0.7816164E-02  0.1300439E+00
        -11   -1    0    0    0    0  0.00000000000E+00  0.00000000000E+00  0.45593999997E+02  0.45594000000E+02  0.51100000000E-03 0.  1.
         11   -1    0    0    0    0 -0.00000000000E+00 -0.00000000000E+00 -0.45593999997E+02  0.45594000000E+02  0.51100000000E-03 0. -1.
    9900012    2    1    2    0    0 -0.19152860168E+02  0.34350558848E+02  0.10313703374E+02  0.50528862981E+02  0.30000009518E+02 0.  0.
         12    1    1    2    0    0  0.19152860168E+02 -0.34350558848E+02 -0.10313703374E+02  0.40659137019E+02  0.00000000000E+00 0. -1.
         11    1    3    3    0    0 -0.11097304158E+02  0.69732655302E+01 -0.61867939410E+01  0.14493205693E+02  0.51100000000E-03 0. -1.
        -11    1    3    3    0    0  0.42007122103E+01  0.88793394447E+01  0.57003317320E+01  0.11357043372E+02  0.51100000000E-03 0.  1.
         12    1    3    3    0    0 -0.12256268220E+02  0.18497953873E+02  0.10800165583E+02  0.24678613916E+02  0.00000000000E+00 0. -1.
</event>
<event>
 7    1  0.3041451E-011  0.5052888E+02  0.7816164E-02  0.1300439E+00
        -11   -1    0    0    0    0  0.00000000000E+00  0.00000000000E+00  0.45593999997E+02  0.45594000000E+02  0.51100000000E-03 0.  1.
         11   -1    0    0    0    0 -0.00000000000E+00 -0.00000000000E+00 -0.45593999997E+02  0.45594000000E+02  0.51100000000E-03 0. -1.
    9900012    2    1    2    0    0 -0.14244405349E+02  0.28759807303E+02  0.24962653252E+02  0.50528884697E+02  0.30000075524E+02 0.  0.
         12    1    1    2    0    0  0.14244405349E+02 -0.28759807303E+02 -0.24962653252E+02  0.40659115303E+02  0.00000000000E+00 0. -1.
         11    1    3    3    0    0  0.16310862119E+01  0.16669522457E+02  0.62413586331E+00  0.16760756756E+02  0.51100000000E-03 0. -1.
        -11    1    3    3    0    0 -0.16658818076E+02  0.13484468168E+02  0.20713183237E+02  0.29805755510E+02  0.51100000000E-03 0.  1.
         12    1    3    3    0    0  0.78332651563E+00 -0.13941833224E+01  0.36253341521E+01  0.39623724309E+01  0.00000000000E+00 0. -1.
</event>
<event>
 7    1  0.3041451E-011  0.5052886E+02  0.7816164E-02  0.1300439E+00
        -11   -1    0    0    0    0  0.00000000000E+00  0.00000000000E+00  0.45593999997E+02  0.45594000000E+02  0.51100000000E-03 0. -1.
         11   -1    0    0    0    0 -0.00000000000E+00 -0.00000000000E+00 -0.45593999997E+02  0.45594000000E+02  0.51100000000E-03 0.  1.
    9900012    2    1    2    0    0 -0.87957834223E+01  0.82446709325E+01 -0.38830724819E+02  0.50528860870E+02  0.30000003102E+02 0.  0.
         12    1    1    2    0    0  0.87957834223E+01 -0.82446709325E+01  0.38830724819E+02  0.40659139130E+02  0.00000000000E+00 0. -1.
         11    1    3    3    0    0  0.28979473172E+01  0.43314518754E+01 -0.37189874773E+00  0.52247375955E+01  0.51100000000E-03 0. -1.
        -11    1    3    3    0    0 -0.89310089372E+01 -0.36677420249E+01 -0.35370620779E+02  0.36664643278E+02  0.51100000000E-03 0.  1.
        -12    1    3    3    0    0 -0.27627218023E+01  0.75809610820E+01 -0.30882052927E+01  0.86394799967E+01  0.00000000000E+00 0.  1.
</event>
<event>
 7    1  0.3041451E-011  0.5052886E+02  0.7816164E-02  0.1300439E+00
        -11   -1    0    0    0    0  0.00000000000E+00  0.00000000000E+00  0.45593999997E+02  0.45594000000E+02  0.51100000000E-03 0.  1.
         11   -1    0    0    0    0 -0.00000000000E+00 -0.00000000000E+00 -0.45593999997E+02  0.45594000000E+02  0.51100000000E-03 0. -1.
    9900012    2    1    2    0    0  0.24805140606E+02 -0.25952607303E+02  0.19087510616E+02  0.50528857266E+02  0.29999992146E+02 0.  0.
         12    1    1    2    0    0 -0.24805140606E+02  0.25952607303E+02 -0.19087510616E+02  0.40659142734E+02  0.00000000000E+00 0. -1.
         11    1    3    3    0    0 -0.17157575918E+01 -0.46305433403E+01  0.14469939263E+02  0.15289372070E+02  0.51100000000E-03 0. -1.
        -11    1    3    3    0    0  0.12972085524E+02 -0.14601652593E+02  0.38886871429E+00  0.19535467244E+02  0.51100000000E-03 0.  1.
         12    1    3    3    0    0  0.13548812674E+02 -0.67204113699E+01  0.42287026384E+01  0.15704017953E+02  0.00000000000E+00 0. -1.
</event>
<event>
 7    1  0.3041451E-011  0.5052885E+02  0.7816164E-02  0.1300439E+00
        -11   -1    0    0    0    0  0.00000000000E+00  0.00000000000E+00  0.45593999997E+02  0.45594000000E+02  0.51100000000E-03 0. -1.
         11   -1    0    0    0    0 -0.00000000000E+00 -0.00000000000E+00 -0.45593999997E+02  0.45594000000E+02  0.51100000000E-03 0.  1.
    9900012    2    1    2    0    0 -0.23830040693E+02 -0.30077076549E+02  0.13441163594E+02  0.50528852789E+02  0.29999978537E+02 0.  0.
         12    1    1    2    0    0  0.23830040693E+02  0.30077076549E+02 -0.13441163594E+02  0.40659147211E+02  0.00000000000E+00 0. -1.
         11    1    3    3    0    0 -0.19048179781E+02 -0.43767657929E+01  0.15003091666E+01  0.19602044782E+02  0.51100000000E-03 0.  1.
        -11    1    3    3    0    0 -0.82263399251E+01 -0.21750757665E+02  0.10318258729E+02  0.25440805628E+02  0.51100000000E-03 0. -1.
        -12    1    3    3    0    0  0.34444790131E+01 -0.39495530918E+01  0.16225956985E+01  0.54860023785E+01  0.00000000000E+00 0.  1.
</event>
<event>
 7    1  0.3041451E-011  0.5052885E+02  0.7816164E-02  0.1300439E+00
        -11   -1    0    0    0    0  0.00000000000E+00  0.00000000000E+00  0.45593999997E+02  0.45594000000E+02  0.51100000000E-03 0.  1.
         11   -1    0    0    0    0 -0.00000000000E+00 -0.00000000000E+00 -0.45593999997E+02  0.45594000000E+02  0.51100000000E-03 0. -1.
    9900012    2    1    2    0    0 -0.26781331083E+02  0.16497684441E+02  0.25763403864E+02  0.50528852626E+02  0.29999978043E+02 0.  0.
         12    1    1    2    0    0  0.26781331083E+02 -0.16497684441E+02 -0.25763403864E+02  0.40659147374E+02  0.00000000000E+00 0. -1.
         11    1    3    3    0    0 -0.10031665069E+02  0.18604745584E+02  0.61156534745E+01  0.22003910561E+02  0.51100000000E-03 0.  1.
        -11    1    3    3    0    0 -0.15983898742E+02 -0.30085137058E+01  0.10630580580E+02  0.19430527976E+02  0.51100000000E-03 0. -1.
         12    1    3    3    0    0 -0.76576727209E+00  0.90145256250E+00  0.90171698095E+01  0.90944140884E+01  0.00000000000E+00 0. -1.
</event>
<event>
 7    1  0.3041451E-011  0.5052886E+02  0.7816164E-02  0.1300439E+00
        -11   -1    0    0    0    0  0.00000000000E+00  0.00000000000E+00  0.45593999997E+02  0.45594000000E+02  0.51100000000E-03 0.  1.
         11   -1    0    0    0    0 -0.00000000000E+00 -0.00000000000E+00 -0.45593999997E+02  0.45594000000E+02  0.51100000000E-03 0. -1.
    9900012    2    1    2    0    0  0.82163125518E+01  0.38111531725E+02  0.11539887929E+02  0.50528860119E+02  0.30000000819E+02 0.  0.
         12    1    1    2    0    0 -0.82163125518E+01 -0.38111531725E+02 -0.11539887929E+02  0.40659139881E+02  0.00000000000E+00 0. -1.
         11    1    3    3    0    0  0.44502595457E+01  0.24275403440E+02  0.16811548724E+01  0.24737144220E+02  0.51100000000E-03 0. -1.
        -11    1    3    3    0    0 -0.36230411218E+01  0.66930841709E+01  0.12983653334E+02  0.15049885609E+02  0.51100000000E-03 0.  1.
        -12    1    3    3    0    0  0.73890941279E+01  0.71430441148E+01 -0.31249202769E+01  0.10741830291E+02  0.00000000000E+00 0.  1.
</event>
<event>
 7    1  0.3041451E-011  0.5052886E+02  0.7816164E-02  0.1300439E+00
        -11   -1    0    0    0    0  0.00000000000E+00  0.00000000000E+00  0.45593999997E+02  0.45594000000E+02  0.51100000000E-03 0. -1.
         11   -1    0    0    0    0 -0.00000000000E+00 -0.00000000000E+00 -0.45593999997E+02  0.45594000000E+02  0.51100000000E-03 0.  1.
    9900012    2    1    2    0    0 -0.16836756297E+02  0.22062039562E+02 -0.29714567434E+02  0.50528862404E+02  0.30000007763E+02 0.  0.
         12    1    1    2    0    0  0.16836756297E+02 -0.22062039562E+02  0.29714567434E+02  0.40659137596E+02  0.00000000000E+00 0. -1.
         11    1    3    3    0    0  0.25227797139E+00 -0.31639271100E+01 -0.83829809402E+01  0.89637296165E+01  0.51100000000E-03 0. -1.
        -11    1    3    3    0    0 -0.20896810706E+02  0.23289300486E+02 -0.19791940996E+02  0.37024169720E+02  0.51100000000E-03 0.  1.
         12    1    3    3    0    0  0.38077764382E+01  0.19366661863E+01 -0.15396454986E+01  0.45409630676E+01  0.00000000000E+00 0. -1.
</event>
<event>
 7    1  0.3041451E-011  0.5052886E+02  0.7816164E-02  0.1300439E+00
        -11   -1    0    0    0    0  0.00000000000E+00  0.00000000000E+00  0.45593999997E+02  0.45594000000E+02  0.51100000000E-03 0.  1.
         11   -1    0    0    0    0 -0.00000000000E+00 -0.00000000000E+00 -0.45593999997E+02  0.45594000000E+02  0.51100000000E-03 0. -1.
    9900012    2    1    2    0    0  0.12073601879E+02  0.36159268977E+02 -0.14138644234E+02  0.50528857657E+02  0.29999993334E+02 0.  0.
         12    1    1    2    0    0 -0.12073601879E+02 -0.36159268977E+02  0.14138644234E+02  0.40659142343E+02  0.00000000000E+00 0. -1.
         11    1    3    3    0    0  0.33377446183E+01  0.19261998423E+02  0.65958611446E+01  0.20631783900E+02  0.51100000000E-03 0.  1.
        -11    1    3    3    0    0  0.10699757766E+02  0.14683547301E+02 -0.15490350880E+02  0.23875559642E+02  0.51100000000E-03 0. -1.
        -12    1    3    3    0    0 -0.19639005045E+01  0.22137232529E+01 -0.52441544980E+01  0.60215141145E+01  0.00000000000E+00 0.  1.
</event>
<event>
 7    1  0.3041451E-011  0.5052886E+02  0.7816164E-02  0.1300439E+00
        -11   -1    0    0    0    0  0.00000000000E+00  0.00000000000E+00  0.45593999997E+02  0.45594000000E+02  0.51100000000E-03 0. -1.
         11   -1    0    0    0    0 -0.00000000000E+00 -0.00000000000E+00 -0.45593999997E+02  0.45594000000E+02  0.51100000000E-03 0.  1.
    9900012    2    1    2    0    0  0.18130914143E+02 -0.28518985299E+02 -0.22607586345E+02  0.50528861661E+02  0.30000005504E+02 0.  0.
         12    1    1    2    0    0 -0.18130914143E+02  0.28518985299E+02  0.22607586345E+02  0.40659138339E+02  0.00000000000E+00 0. -1.
         11    1    3    3    0    0  0.63203225556E+01 -0.10049939897E+02  0.16221221859E+01  0.11982447570E+02  0.51100000000E-03 0.  1.
        -11    1    3    3    0    0  0.91184815698E+01  0.76951355335E+00 -0.13629383314E+02  0.16416423089E+02  0.51100000000E-03 0. -1.
        -12    1    3    3    0    0  0.26921100177E+01 -0.19238558956E+02 -0.10600325217E+02  0.22129991002E+02  0.00000000000E+00 0.  1.
</event>
<event>
 7    1  0.3041451E-011  0.5052887E+02  0.7816164E-02  0.1300439E+00
        -11   -1    0    0    0    0  0.00000000000E+00  0.00000000000E+00  0.45593999997E+02  0.45594000000E+02  0.51100000000E-03 0.  1.
         11   -1    0    0    0    0 -0.00000000000E+00 -0.00000000000E+00 -0.45593999997E+02  0.45594000000E+02  0.51100000000E-03 0. -1.
    9900012    2    1    2    0    0 -0.29033487614E+02  0.45166954392E+01  0.28103758027E+02  0.50528866267E+02  0.30000019504E+02 0.  0.
         12    1    1    2    0    0  0.29033487614E+02 -0.45166954392E+01 -0.28103758027E+02  0.40659133733E+02  0.00000000000E+00 0. -1.
         11    1    3    3    0    0 -0.17024039514E+02  0.80322908081E+01  0.13137271119E+02  0.22954814521E+02  0.51100000000E-03 0.  1.
        -11    1    3    3    0    0  0.57302944088E+00 -0.86180421029E+01  0.97585691663E+01  0.13031833519E+02  0.51100000000E-03 0. -1.
         12    1    3    3    0    0 -0.12582477541E+02  0.51024467340E+01  0.52079177418E+01  0.14542218227E+02  0.00000000000E+00 0. -1.
</event>
<event>
 7    1  0.3041451E-011  0.5052885E+02  0.7816164E-02  0.1300439E+00
        -11   -1    0    0    0    0  0.00000000000E+00  0.00000000000E+00  0.45593999997E+02  0.45594000000E+02  0.51100000000E-03 0. -1.
         11   -1    0    0    0    0 -0.00000000000E+00 -0.00000000000E+00 -0.45593999997E+02  0.45594000000E+02  0.51100000000E-03 0.  1.
    9900012    2    1    2    0    0 -0.52077839908E+01  0.46970101382E+01 -0.40049767752E+02  0.50528845860E+02  0.29999957477E+02 0.  0.
         12    1    1    2    0    0  0.52077839908E+01 -0.46970101382E+01  0.40049767752E+02  0.40659154140E+02  0.00000000000E+00 0. -1.
         11    1    3    3    0    0  0.44767986313E+01 -0.17125762377E+00 -0.57179622987E+01  0.72640311308E+01  0.51100000000E-03 0. -1.
        -11    1    3    3    0    0 -0.11687036766E+02  0.13269130205E+02 -0.22506598754E+02  0.28621733569E+02  0.51100000000E-03 0.  1.
        -12    1    3    3    0    0  0.20024541437E+01 -0.84008624432E+01 -0.11825206699E+02  0.14643081160E+02  0.00000000000E+00 0.  1.
</event>
<event>
 7    1  0.3041451E-011  0.5052886E+02  0.7816164E-02  0.1300439E+00
        -11   -1    0    0    0    0  0.00000000000E+00  0.00000000000E+00  0.45593999997E+02  0.45594000000E+02  0.51100000000E-03 0.  1.
         11   -1    0    0    0    0 -0.00000000000E+00 -0.00000000000E+00 -0.45593999997E+02  0.45594000000E+02  0.51100000000E-03 0. -1.
    9900012    2    1    2    0    0  0.12853678089E+02  0.14342353605E+02  0.35808456311E+02  0.50528859691E+02  0.29999999516E+02 0.  0.
         12    1    1    2    0    0 -0.12853678089E+02 -0.14342353605E+02 -0.35808456311E+02  0.40659140309E+02  0.00000000000E+00 0. -1.
         11    1    3    3    0    0  0.74520527233E+01  0.70310243352E+00  0.11693697353E+02  0.13884163672E+02  0.51100000000E-03 0. -1.
        -11    1    3    3    0    0 -0.32381729295E+01  0.83569646294E+00 -0.36016974359E+01  0.49149137510E+01  0.51100000000E-03 0.  1.
        -12    1    3    3    0    0  0.86397982951E+01  0.12803554709E+02  0.27716456394E+02  0.31729782268E+02  0.00000000000E+00 0.  1.
</event>
<event>
 7    1  0.3041451E-011  0.5052886E+02  0.7816164E-02  0.1300439E+00
        -11   -1    0    0    0    0  0.00000000000E+00  0.00000000000E+00  0.45593999997E+02  0.45594000000E+02  0.51100000000E-03 0.  1.
         11   -1    0    0    0    0 -0.00000000000E+00 -0.00000000000E+00 -0.45593999997E+02  0.45594000000E+02  0.51100000000E-03 0. -1.
    9900012    2    1    2    0    0 -0.28617443569E+02  0.22003311510E+02  0.18709939440E+02  0.50528860466E+02  0.30000001871E+02 0.  0.
         12    1    1    2    0    0  0.28617443569E+02 -0.22003311510E+02 -0.18709939440E+02  0.40659139534E+02  0.00000000000E+00 0. -1.
         11    1    3    3    0    0 -0.13953107315E+02 -0.41618365142E+01  0.45876596371E+01  0.15266194946E+02  0.51100000000E-03 0. -1.
        -11    1    3    3    0    0 -0.15516476015E+02  0.16666925823E+02  0.10181030898E+02  0.24943953871E+02  0.51100000000E-03 0.  1.
         12    1    3    3    0    0  0.85213976118E+00  0.94982222019E+01  0.39412489041E+01  0.10318711649E+02  0.00000000000E+00 0. -1.
</event>
<event>
 7    1  0.3041451E-011  0.5052886E+02  0.7816164E-02  0.1300439E+00
        -11   -1    0    0    0    0  0.00000000000E+00  0.00000000000E+00  0.45593999997E+02  0.45594000000E+02  0.51100000000E-03 0. -1.
         11   -1    0    0    0    0 -0.00000000000E+00 -0.00000000000E+00 -0.45593999997E+02  0.45594000000E+02  0.51100000000E-03 0.  1.
    9900012    2    1    2    0    0  0.18384458200E+02 -0.53022292881E+01 -0.35875674747E+02  0.50528856166E+02  0.29999988803E+02 0.  0.
         12    1    1    2    0    0 -0.18384458200E+02  0.53022292881E+01  0.35875674747E+02  0.40659143834E+02  0.00000000000E+00 0. -1.
         11    1    3    3    0    0 -0.33861138817E+01 -0.63431679150E+01 -0.46619309591E+01  0.85694309581E+01  0.51100000000E-03 0. -1.
        -11    1    3    3    0    0  0.22925865843E+02 -0.33963819097E+01 -0.28063408527E+02  0.36396231029E+02  0.51100000000E-03 0.  1.
        -12    1    3    3    0    0 -0.11552937606E+01  0.44373205366E+01 -0.31503352612E+01  0.55631941792E+01  0.00000000000E+00 0.  1.
</event>
<event>
 7    1  0.3041451E-011  0.5052886E+02  0.7816164E-02  0.1300439E+00
        -11   -1    0    0    0    0  0.00000000000E+00  0.00000000000E+00  0.45593999997E+02  0.45594000000E+02  0.51100000000E-03 0. -1.
         11   -1    0    0    0    0 -0.00000000000E+00 -0.00000000000E+00 -0.45593999997E+02  0.45594000000E+02  0.51100000000E-03 0.  1.
    9900012    2    1    2    0    0  0.38433606507E+02 -0.13241256389E+02  0.83221228090E+00  0.50528861332E+02  0.30000004506E+02 0.  0.
         12    1    1    2    0    0 -0.38433606507E+02  0.13241256389E+02 -0.83221228090E+00  0.40659138668E+02  0.00000000000E+00 0. -1.
         11    1    3    3    0    0 -0.18864132744E+01  0.20494091887E+01  0.73586849601E+00  0.28809956211E+01  0.51100000000E-03 0. -1.
        -11    1    3    3    0    0  0.21471152132E+02 -0.18650054515E+02 -0.11326246595E+01  0.28462567456E+02  0.51100000000E-03 0.  1.
        -12    1    3    3    0    0  0.18848867650E+02  0.33593889382E+01  0.12289684443E+01  0.19185298255E+02  0.00000000000E+00 0.  1.
</event>
<event>
 7    1  0.3041451E-011  0.5052885E+02  0.7816164E-02  0.1300439E+00
        -11   -1    0    0    0    0  0.00000000000E+00  0.00000000000E+00  0.45593999997E+02  0.45594000000E+02  0.51100000000E-03 0.  1.
         11   -1    0    0    0    0 -0.00000000000E+00 -0.00000000000E+00 -0.45593999997E+02  0.45594000000E+02  0.51100000000E-03 0. -1.
    9900012    2    1    2    0    0  0.13501829217E+02  0.67967059230E+00  0.38345861972E+02  0.50528850050E+02  0.29999970212E+02 0.  0.
         12    1    1    2    0    0 -0.13501829217E+02 -0.67967059230E+00 -0.38345861972E+02  0.40659149950E+02  0.00000000000E+00 0. -1.
         11    1    3    3    0    0  0.11609708367E+01 -0.10184872850E+02  0.72517706776E+01  0.12556578613E+02  0.51100000000E-03 0. -1.
        -11    1    3    3    0    0  0.14719625469E+02  0.74189756854E+01  0.28837071402E+02  0.33215738159E+02  0.51100000000E-03 0.  1.
         12    1    3    3    0    0 -0.23787670887E+01  0.34455677566E+01  0.22570198920E+01  0.47565332775E+01  0.00000000000E+00 0. -1.
</event>
<event>
 7    1  0.3041451E-011  0.5052884E+02  0.7816164E-02  0.1300439E+00
        -11   -1    0    0    0    0  0.00000000000E+00  0.00000000000E+00  0.45593999997E+02  0.45594000000E+02  0.51100000000E-03 0.  1.
         11   -1    0    0    0    0 -0.00000000000E+00 -0.00000000000E+00 -0.45593999997E+02  0.45594000000E+02  0.51100000000E-03 0. -1.
    9900012    2    1    2    0    0 -0.20785885566E+01  0.28234728898E+02  0.29182989152E+02  0.50528839874E+02  0.29999939279E+02 0.  0.
         12    1    1    2    0    0  0.20785885566E+01 -0.28234728898E+02 -0.29182989152E+02  0.40659160126E+02  0.00000000000E+00 0. -1.
         11    1    3    3    0    0 -0.44611965654E+01  0.29968676744E+02  0.13876909339E+02  0.33325552863E+02  0.51100000000E-03 0. -1.
        -11    1    3    3    0    0  0.11629386874E+00  0.26594976625E+01  0.75515837722E+01  0.80070512556E+01  0.51100000000E-03 0.  1.
         12    1    3    3    0    0  0.22663141400E+01 -0.43934455078E+01  0.77544960408E+01  0.91962357548E+01  0.00000000000E+00 0. -1.
</event>
<event>
 7    1  0.3041451E-011  0.5052889E+02  0.7816164E-02  0.1300439E+00
        -11   -1    0    0    0    0  0.00000000000E+00  0.00000000000E+00  0.45593999997E+02  0.45594000000E+02  0.51100000000E-03 0. -1.
         11   -1    0    0    0    0 -0.00000000000E+00 -0.00000000000E+00 -0.45593999997E+02  0.45594000000E+02  0.51100000000E-03 0.  1.
    9900012    2    1    2    0    0 -0.19286315507E+02  0.35089877585E+02 -0.70641242452E+01  0.50528888769E+02  0.30000087902E+02 0.  0.
         12    1    1    2    0    0  0.19286315507E+02 -0.35089877585E+02  0.70641242452E+01  0.40659111231E+02  0.00000000000E+00 0. -1.
         11    1    3    3    0    0 -0.18007230947E+02  0.18188895090E+02  0.58986660015E+01  0.26265767299E+02  0.51100000000E-03 0. -1.
        -11    1    3    3    0    0  0.64218120175E+00  0.15698424457E+02 -0.14615111859E+02  0.21458201743E+02  0.51100000000E-03 0.  1.
        -12    1    3    3    0    0 -0.19212657620E+01  0.12025580373E+01  0.16523216123E+01  0.28049197264E+01  0.00000000000E+00 0.  1.
</event>
<event>
 7    1  0.3041451E-011  0.5052887E+02  0.7816164E-02  0.1300439E+00
        -11   -1    0    0    0    0  0.00000000000E+00  0.00000000000E+00  0.45593999997E+02  0.45594000000E+02  0.51100000000E-03 0.  1.
         11   -1    0    0    0    0 -0.00000000000E+00 -0.00000000000E+00 -0.45593999997E+02  0.45594000000E+02  0.51100000000E-03 0. -1.
    9900012    2    1    2    0    0 -0.39050756132E+02  0.11252963788E+02  0.12546490273E+01  0.50528869504E+02  0.30000029344E+02 0.  0.
         12    1    1    2    0    0  0.39050756132E+02 -0.11252963788E+02 -0.12546490273E+01  0.40659130496E+02  0.00000000000E+00 0. -1.
         11    1    3    3    0    0 -0.25799468114E+02  0.10372116064E+01 -0.17211261931E+01  0.25877608826E+02  0.51100000000E-03 0. -1.
        -11    1    3    3    0    0 -0.27815205133E+01  0.42994480761E+01  0.96303164899E+01  0.10907112637E+02  0.51100000000E-03 0.  1.
        -12    1    3    3    0    0 -0.10469767505E+02  0.59163041056E+01 -0.66545412695E+01  0.13744148041E+02  0.00000000000E+00 0.  1.
</event>
<event>
 7    1  0.3041451E-011  0.5052888E+02  0.7816164E-02  0.1300439E+00
        -11   -1    0    0    0    0  0.00000000000E+00  0.00000000000E+00  0.45593999997E+02  0.45594000000E+02  0.51100000000E-03 0.  1.
         11   -1    0    0    0    0 -0.00000000000E+00 -0.00000000000E+00 -0.45593999997E+02  0.45594000000E+02  0.51100000000E-03 0. -1.
    9900012    2    1    2    0    0  0.16318338169E+02  0.80241187794E+01  0.36366052207E+02  0.50528875613E+02  0.30000047914E+02 0.  0.
         12    1    1    2    0    0 -0.16318338169E+02 -0.80241187794E+01 -0.36366052207E+02  0.40659124387E+02  0.00000000000E+00 0. -1.
         11    1    3    3    0    0  0.28497227459E+01 -0.61178631101E+01  0.13004238497E+02  0.14651258919E+02  0.51100000000E-03 0. -1.
        -11    1    3    3    0    0  0.15479394334E+01  0.14689367559E+02  0.93872608655E+01  0.17501265742E+02  0.51100000000E-03 0.  1.
        -12    1    3    3    0    0  0.11920675990E+02 -0.54738566906E+00  0.13974552844E+02  0.18376350952E+02  0.00000000000E+00 0.  1.
</event>
<event>
 7    1  0.3041451E-011  0.5052885E+02  0.7816164E-02  0.1300439E+00
        -11   -1    0    0    0    0  0.00000000000E+00  0.00000000000E+00  0.45593999997E+02  0.45594000000E+02  0.51100000000E-03 0. -1.
         11   -1    0    0    0    0 -0.00000000000E+00 -0.00000000000E+00 -0.45593999997E+02  0.45594000000E+02  0.51100000000E-03 0.  1.
    9900012    2    1    2    0    0  0.19511791305E+02  0.34395534831E+02 -0.94553583765E+01  0.50528848284E+02  0.29999964844E+02 0.  0.
         12    1    1    2    0    0 -0.19511791305E+02 -0.34395534831E+02  0.94553583765E+01  0.40659151716E+02  0.00000000000E+00 0. -1.
         11    1    3    3    0    0 -0.36220200992E+00  0.28644859244E+02 -0.80303257860E+01  0.29751391293E+02  0.51100000000E-03 0. -1.
        -11    1    3    3    0    0  0.11646886256E+02  0.28780241699E+01 -0.12420344915E+01  0.12061327975E+02  0.51100000000E-03 0.  1.
         12    1    3    3    0    0  0.82271070580E+01  0.28726514176E+01 -0.18299809900E+00  0.87161290155E+01  0.00000000000E+00 0. -1.
</event>
<event>
 7    1  0.3041451E-011  0.5052886E+02  0.7816164E-02  0.1300439E+00
        -11   -1    0    0    0    0  0.00000000000E+00  0.00000000000E+00  0.45593999997E+02  0.45594000000E+02  0.51100000000E-03 0. -1.
         11   -1    0    0    0    0 -0.00000000000E+00 -0.00000000000E+00 -0.45593999997E+02  0.45594000000E+02  0.51100000000E-03 0.  1.
    9900012    2    1    2    0    0  0.83842749067E+01 -0.39745063754E+02 -0.17886315822E+01  0.50528863739E+02  0.30000011822E+02 0.  0.
         12    1    1    2    0    0 -0.83842749067E+01  0.39745063754E+02  0.17886315822E+01  0.40659136261E+02  0.00000000000E+00 0. -1.
         11    1    3    3    0    0 -0.35990623942E+01 -0.26072707728E+02  0.41287419912E+01  0.26641806415E+02  0.51100000000E-03 0. -1.
        -11    1    3    3    0    0  0.98610432041E+01 -0.16730318921E+02 -0.49450498060E+01  0.20039891769E+02  0.51100000000E-03 0.  1.
         12    1    3    3    0    0  0.21222940968E+01  0.30579628948E+01 -0.97232376734E+00  0.38471655550E+01  0.00000000000E+00 0. -1.
</event>
<event>
 7    1  0.3041451E-011  0.5052884E+02  0.7816164E-02  0.1300439E+00
        -11   -1    0    0    0    0  0.00000000000E+00  0.00000000000E+00  0.45593999997E+02  0.45594000000E+02  0.51100000000E-03 0.  1.
         11   -1    0    0    0    0 -0.00000000000E+00 -0.00000000000E+00 -0.45593999997E+02  0.45594000000E+02  0.51100000000E-03 0. -1.
    9900012    2    1    2    0    0  0.12929682543E+02  0.16906750239E+02  0.34643212854E+02  0.50528842469E+02  0.29999947168E+02 0.  0.
         12    1    1    2    0    0 -0.12929682543E+02 -0.16906750239E+02 -0.34643212854E+02  0.40659157531E+02  0.00000000000E+00 0. -1.
         11    1    3    3    0    0  0.38656935488E+01  0.33379169823E+01 -0.43407949170E+00  0.51257879063E+01  0.51100000000E-03 0. -1.
        -11    1    3    3    0    0 -0.86558100211E-01 -0.66124437681E+01  0.92848007316E+01  0.11399097762E+02  0.51100000000E-03 0.  1.
        -12    1    3    3    0    0  0.91505470942E+01  0.20181277024E+02  0.25792491614E+02  0.34003956801E+02  0.00000000000E+00 0.  1.
</event>
<event>
 7    1  0.3041451E-011  0.5052886E+02  0.7816164E-02  0.1300439E+00
        -11   -1    0    0    0    0  0.00000000000E+00  0.00000000000E+00  0.45593999997E+02  0.45594000000E+02  0.51100000000E-03 0. -1.
         11   -1    0    0    0    0 -0.00000000000E+00 -0.00000000000E+00 -0.45593999997E+02  0.45594000000E+02  0.51100000000E-03 0.  1.
    9900012    2    1    2    0    0  0.40457932948E+02  0.12541506211E+01 -0.38404188278E+01  0.50528855284E+02  0.29999986123E+02 0.  0.
         12    1    1    2    0    0 -0.40457932948E+02 -0.12541506211E+01  0.38404188278E+01  0.40659144716E+02  0.00000000000E+00 0. -1.
         11    1    3    3    0    0  0.98887873059E+01 -0.35315297682E+01  0.11360504202E+02  0.15469999123E+02  0.51100000000E-03 0. -1.
        -11    1    3    3    0    0  0.30599519127E+02  0.49133235677E+01 -0.15558740542E+02  0.34677741085E+02  0.51100000000E-03 0.  1.
        -12    1    3    3    0    0 -0.30373484172E-01 -0.12764317842E+00  0.35781751230E+00  0.38111507664E+00  0.00000000000E+00 0.  1.
</event>
<event>
 7    1  0.3041451E-011  0.5052886E+02  0.7816164E-02  0.1300439E+00
        -11   -1    0    0    0    0  0.00000000000E+00  0.00000000000E+00  0.45593999997E+02  0.45594000000E+02  0.51100000000E-03 0.  1.
         11   -1    0    0    0    0 -0.00000000000E+00 -0.00000000000E+00 -0.45593999997E+02  0.45594000000E+02  0.51100000000E-03 0. -1.
    9900012    2    1    2    0    0  0.31723839120E+02 -0.16440138156E+01  0.25378348936E+02  0.50528863946E+02  0.30000012449E+02 0.  0.
         12    1    1    2    0    0 -0.31723839120E+02  0.16440138156E+01 -0.25378348936E+02  0.40659136054E+02  0.00000000000E+00 0. -1.
         11    1    3    3    0    0  0.22308148361E+02 -0.10538389155E+02  0.41806479538E+01  0.25023767639E+02  0.51100000000E-03 0. -1.
        -11    1    3    3    0    0  0.64548091028E+01  0.84724041571E+01  0.13167565681E+02  0.16936085114E+02  0.51100000000E-03 0.  1.
         12    1    3    3    0    0  0.29608816561E+01  0.42197118250E+00  0.80301353012E+01  0.85690111924E+01  0.00000000000E+00 0. -1.
</event>
<event>
 7    1  0.3041451E-011  0.5052886E+02  0.7816164E-02  0.1300439E+00
        -11   -1    0    0    0    0  0.00000000000E+00  0.00000000000E+00  0.45593999997E+02  0.45594000000E+02  0.51100000000E-03 0. -1.
         11   -1    0    0    0    0 -0.00000000000E+00 -0.00000000000E+00 -0.45593999997E+02  0.45594000000E+02  0.51100000000E-03 0.  1.
    9900012    2    1    2    0    0  0.64146635457E+01 -0.86849077434E+00 -0.40140549360E+02  0.50528857270E+02  0.29999992158E+02 0.  0.
         12    1    1    2    0    0 -0.64146635457E+01  0.86849077434E+00  0.40140549360E+02  0.40659142730E+02  0.00000000000E+00 0. -1.
         11    1    3    3    0    0  0.60261092767E+01 -0.10885730614E+02 -0.16426743640E+02  0.20607062646E+02  0.51100000000E-03 0. -1.
        -11    1    3    3    0    0  0.39155508429E+01  0.12966659878E+02 -0.16241885122E+02  0.21148632092E+02  0.51100000000E-03 0.  1.
        -12    1    3    3    0    0 -0.35269965739E+01 -0.29494200382E+01 -0.74719205982E+01  0.87731625323E+01  0.00000000000E+00 0.  1.
</event>
<event>
 7    1  0.3041451E-011  0.5052886E+02  0.7816164E-02  0.1300439E+00
        -11   -1    0    0    0    0  0.00000000000E+00  0.00000000000E+00  0.45593999997E+02  0.45594000000E+02  0.51100000000E-03 0. -1.
         11   -1    0    0    0    0 -0.00000000000E+00 -0.00000000000E+00 -0.45593999997E+02  0.45594000000E+02  0.51100000000E-03 0.  1.
    9900012    2    1    2    0    0 -0.28751921623E+02  0.28748305336E+02  0.16655037251E+00  0.50528858399E+02  0.29999995590E+02 0.  0.
         12    1    1    2    0    0  0.28751921623E+02 -0.28748305336E+02 -0.16655037251E+00  0.40659141601E+02  0.00000000000E+00 0. -1.
         11    1    3    3    0    0  0.80078253612E+00  0.16010756249E+01 -0.57240194708E+01  0.59974240295E+01  0.51100000000E-03 0. -1.
        -11    1    3    3    0    0 -0.18182270521E+02  0.45248802005E+01  0.11480277126E+01  0.18771986310E+02  0.51100000000E-03 0.  1.
         12    1    3    3    0    0 -0.11370433638E+02  0.22622349510E+02  0.47425421306E+01  0.25759448060E+02  0.00000000000E+00 0. -1.
</event>
<event>
 7    1  0.3041451E-011  0.5052886E+02  0.7816164E-02  0.1300439E+00
        -11   -1    0    0    0    0  0.00000000000E+00  0.00000000000E+00  0.45593999997E+02  0.45594000000E+02  0.51100000000E-03 0. -1.
         11   -1    0    0    0    0 -0.00000000000E+00 -0.00000000000E+00 -0.45593999997E+02  0.45594000000E+02  0.51100000000E-03 0.  1.
    9900012    2    1    2    0    0  0.23364373254E+02  0.23701298537E+02 -0.23356369668E+02  0.50528862110E+02  0.30000006870E+02 0.  0.
         12    1    1    2    0    0 -0.23364373254E+02 -0.23701298537E+02  0.23356369668E+02  0.40659137890E+02  0.00000000000E+00 0. -1.
         11    1    3    3    0    0 -0.38409352723E+00 -0.21340524003E+01  0.17180603042E+01  0.27664849457E+01  0.51100000000E-03 0. -1.
        -11    1    3    3    0    0  0.25824157121E+02  0.19478087213E+02 -0.25308539060E+02  0.41070733158E+02  0.51100000000E-03 0.  1.
        -12    1    3    3    0    0 -0.20756903402E+01  0.63572637243E+01  0.23410908782E+00  0.66916440068E+01  0.00000000000E+00 0.  1.
</event>
<event>
 7    1  0.3041451E-011  0.5052894E+02  0.7816164E-02  0.1300439E+00
        -11   -1    0    0    0    0  0.00000000000E+00  0.00000000000E+00  0.45593999997E+02  0.45594000000E+02  0.51100000000E-03 0. -1.
         11   -1    0    0    0    0 -0.00000000000E+00 -0.00000000000E+00 -0.45593999997E+02  0.45594000000E+02  0.51100000000E-03 0.  1.
    9900012    2    1    2    0    0  0.34009223524E+02 -0.20779578073E+02 -0.80461680360E+01  0.50528942342E+02  0.30000250741E+02 0.  0.
         12    1    1    2    0    0 -0.34009223524E+02  0.20779578073E+02  0.80461680360E+01  0.40659057658E+02  0.00000000000E+00 0. -1.
         11    1    3    3    0    0  0.36013226606E+02 -0.17203172801E+02 -0.83487535833E+01  0.40775033190E+02  0.51100000000E-03 0. -1.
        -11    1    3    3    0    0 -0.25546345539E+01 -0.55216317258E+01 -0.22597450395E+01  0.64900710723E+01  0.51100000000E-03 0.  1.
         12    1    3    3    0    0  0.55063147134E+00  0.19452264534E+01  0.25623305869E+01  0.32638380794E+01  0.00000000000E+00 0. -1.
</event>
<event>
 7    1  0.3041451E-011  0.5052885E+02  0.7816164E-02  0.1300439E+00
        -11   -1    0    0    0    0  0.00000000000E+00  0.00000000000E+00  0.45593999997E+02  0.45594000000E+02  0.51100000000E-03 0.  1.
         11   -1    0    0    0    0 -0.00000000000E+00 -0.00000000000E+00 -0.45593999997E+02  0.45594000000E+02  0.51100000000E-03 0. -1.
    9900012    2    1    2    0    0  0.32878173332E+02 -0.19975883127E+01  0.23836977404E+02  0.50528854258E+02  0.29999983003E+02 0.  0.
         12    1    1    2    0    0 -0.32878173332E+02  0.19975883127E+01 -0.23836977404E+02  0.40659145742E+02  0.00000000000E+00 0. -1.
         11    1    3    3    0    0  0.19002667047E+02 -0.74708612464E+01 -0.11707961844E+01  0.20452038691E+02  0.51100000000E-03 0. -1.
        -11    1    3    3    0    0  0.63658934540E+01  0.20494942446E+01  0.18161115973E+02  0.19353324257E+02  0.51100000000E-03 0.  1.
         12    1    3    3    0    0  0.75096128313E+01  0.34237786892E+01  0.68466576148E+01  0.10723491310E+02  0.00000000000E+00 0. -1.
</event>
<event>
 7    1  0.3041451E-011  0.5052885E+02  0.7816164E-02  0.1300439E+00
        -11   -1    0    0    0    0  0.00000000000E+00  0.00000000000E+00  0.45593999997E+02  0.45594000000E+02  0.51100000000E-03 0.  1.
         11   -1    0    0    0    0 -0.00000000000E+00 -0.00000000000E+00 -0.45593999997E+02  0.45594000000E+02  0.51100000000E-03 0. -1.
    9900012    2    1    2    0    0 -0.17598613723E+02 -0.28112011935E+02  0.23519559134E+02  0.50528854880E+02  0.29999984894E+02 0.  0.
         12    1    1    2    0    0  0.17598613723E+02  0.28112011935E+02 -0.23519559134E+02  0.40659145120E+02  0.00000000000E+00 0. -1.
         11    1    3    3    0    0 -0.17370206968E+01 -0.15694137173E+02 -0.19463280228E+01  0.15909474396E+02  0.51100000000E-03 0. -1.
        -11    1    3    3    0    0 -0.16938082914E+02 -0.12149315539E+02  0.19475692633E+02  0.28527304896E+02  0.51100000000E-03 0.  1.
         12    1    3    3    0    0  0.10764898883E+01 -0.26855922343E+00  0.59901945240E+01  0.60920755881E+01  0.00000000000E+00 0. -1.
</event>
<event>
 7    1  0.3041451E-011  0.5052886E+02  0.7816164E-02  0.1300439E+00
        -11   -1    0    0    0    0  0.00000000000E+00  0.00000000000E+00  0.45593999997E+02  0.45594000000E+02  0.51100000000E-03 0. -1.
         11   -1    0    0    0    0 -0.00000000000E+00 -0.00000000000E+00 -0.45593999997E+02  0.45594000000E+02  0.51100000000E-03 0.  1.
    9900012    2    1    2    0    0 -0.33446442819E+02 -0.14782557504E+02 -0.17775748791E+02  0.50528858486E+02  0.29999995854E+02 0.  0.
         12    1    1    2    0    0  0.33446442819E+02  0.14782557504E+02  0.17775748791E+02  0.40659141514E+02  0.00000000000E+00 0. -1.
         11    1    3    3    0    0  0.40083438246E+01 -0.23219374613E+01  0.12992363969E+01  0.48110528231E+01  0.51100000000E-03 0. -1.
        -11    1    3    3    0    0 -0.32800306239E+02 -0.10797384265E+02 -0.10984143538E+02  0.36236652796E+02  0.51100000000E-03 0.  1.
         12    1    3    3    0    0 -0.46544804041E+01 -0.16632357777E+01 -0.80908416492E+01  0.94811528665E+01  0.00000000000E+00 0. -1.
</event>
<event>
 7    1  0.3041451E-011  0.5052886E+02  0.7816164E-02  0.1300439E+00
        -11   -1    0    0    0    0  0.00000000000E+00  0.00000000000E+00  0.45593999997E+02  0.45594000000E+02  0.51100000000E-03 0.  1.
         11   -1    0    0    0    0 -0.00000000000E+00 -0.00000000000E+00 -0.45593999997E+02  0.45594000000E+02  0.51100000000E-03 0. -1.
    9900012    2    1    2    0    0  0.67772279841E+01  0.29605984737E+02  0.27031840743E+02  0.50528861232E+02  0.30000004201E+02 0.  0.
         12    1    1    2    0    0 -0.67772279841E+01 -0.29605984737E+02 -0.27031840743E+02  0.40659138768E+02  0.00000000000E+00 0. -1.
         11    1    3    3    0    0 -0.40223938822E+01  0.67887107789E+01  0.13766514739E+02  0.15867677048E+02  0.51100000000E-03 0. -1.
        -11    1    3    3    0    0  0.13499650859E+02  0.10922794413E+02  0.14195050387E+02  0.22428719688E+02  0.51100000000E-03 0.  1.
        -12    1    3    3    0    0 -0.27000289924E+01  0.11894479545E+02 -0.92972438353E+00  0.12232464496E+02  0.00000000000E+00 0.  1.
</event>
<event>
 7    1  0.3041451E-011  0.5052887E+02  0.7816164E-02  0.1300439E+00
        -11   -1    0    0    0    0  0.00000000000E+00  0.00000000000E+00  0.45593999997E+02  0.45594000000E+02  0.51100000000E-03 0.  1.
         11   -1    0    0    0    0 -0.00000000000E+00 -0.00000000000E+00 -0.45593999997E+02  0.45594000000E+02  0.51100000000E-03 0. -1.
    9900012    2    1    2    0    0 -0.10304795465E+02  0.99353281898E+01  0.38056080817E+02  0.50528870116E+02  0.30000031204E+02 0.  0.
         12    1    1    2    0    0  0.10304795465E+02 -0.99353281898E+01 -0.38056080817E+02  0.40659129884E+02  0.00000000000E+00 0. -1.
         11    1    3    3    0    0 -0.11748428948E+01  0.15509437950E+02  0.11778659827E+02  0.19510503554E+02  0.51100000000E-03 0. -1.
        -11    1    3    3    0    0 -0.10964155162E+02 -0.92414523962E+00  0.14326669160E+02  0.18064334815E+02  0.51100000000E-03 0.  1.
         12    1    3    3    0    0  0.18342025918E+01 -0.46499645203E+01  0.11950751830E+02  0.12954031747E+02  0.00000000000E+00 0. -1.
</event>
<event>
 7    1  0.3041451E-011  0.5052886E+02  0.7816164E-02  0.1300439E+00
        -11   -1    0    0    0    0  0.00000000000E+00  0.00000000000E+00  0.45593999997E+02  0.45594000000E+02  0.51100000000E-03 0.  1.
         11   -1    0    0    0    0 -0.00000000000E+00 -0.00000000000E+00 -0.45593999997E+02  0.45594000000E+02  0.51100000000E-03 0. -1.
    9900012    2    1    2    0    0  0.14692445109E+02 -0.34368791115E+02  0.16002631458E+02  0.50528856384E+02  0.29999989466E+02 0.  0.
         12    1    1    2    0    0 -0.14692445109E+02  0.34368791115E+02 -0.16002631458E+02  0.40659143616E+02  0.00000000000E+00 0. -1.
         11    1    3    3    0    0  0.87860846780E+00 -0.66183047294E+01  0.76558737156E+01  0.10158066398E+02  0.51100000000E-03 0. -1.
        -11    1    3    3    0    0  0.17154557693E+02 -0.26753916017E+02  0.50086520409E+00  0.31785244031E+02  0.51100000000E-03 0.  1.
        -12    1    3    3    0    0 -0.33407210513E+01 -0.99657036832E+00  0.78458925383E+01  0.85855459560E+01  0.00000000000E+00 0.  1.
</event>
<event>
 7    1  0.3041451E-011  0.5052887E+02  0.7816164E-02  0.1300439E+00
        -11   -1    0    0    0    0  0.00000000000E+00  0.00000000000E+00  0.45593999997E+02  0.45594000000E+02  0.51100000000E-03 0. -1.
         11   -1    0    0    0    0 -0.00000000000E+00 -0.00000000000E+00 -0.45593999997E+02  0.45594000000E+02  0.51100000000E-03 0.  1.
    9900012    2    1    2    0    0  0.24689818311E+02 -0.32207420708E+02 -0.25018834121E+01  0.50528874364E+02  0.30000044117E+02 0.  0.
         12    1    1    2    0    0 -0.24689818311E+02  0.32207420708E+02  0.25018834121E+01  0.40659125636E+02  0.00000000000E+00 0. -1.
         11    1    3    3    0    0  0.81158118021E+01 -0.11407167041E+02 -0.13426591272E+02  0.19397505369E+02  0.51100000000E-03 0.  1.
        -11    1    3    3    0    0 -0.35106203780E+00 -0.63886095127E+01  0.50156424066E+01  0.81298367186E+01  0.51100000000E-03 0. -1.
         12    1    3    3    0    0  0.16925068546E+02 -0.14411644154E+02  0.59090654530E+01  0.23001532276E+02  0.00000000000E+00 0. -1.
</event>
<event>
 7    1  0.3041451E-011  0.5052886E+02  0.7816164E-02  0.1300439E+00
        -11   -1    0    0    0    0  0.00000000000E+00  0.00000000000E+00  0.45593999997E+02  0.45594000000E+02  0.51100000000E-03 0.  1.
         11   -1    0    0    0    0 -0.00000000000E+00 -0.00000000000E+00 -0.45593999997E+02  0.45594000000E+02  0.51100000000E-03 0. -1.
    9900012    2    1    2    0    0 -0.11393575234E+02 -0.17503488367E+02  0.34885237912E+02  0.50528862210E+02  0.30000007173E+02 0.  0.
         12    1    1    2    0    0  0.11393575234E+02  0.17503488367E+02 -0.34885237912E+02  0.40659137790E+02  0.00000000000E+00 0. -1.
         11    1    3    3    0    0  0.53807578731E+01  0.14922011339E+01  0.10267918125E+02  0.11688000787E+02  0.51100000000E-03 0. -1.
        -11    1    3    3    0    0 -0.19301178709E+02 -0.12593947634E+02  0.17478790824E+02  0.28924922567E+02  0.51100000000E-03 0.  1.
        -12    1    3    3    0    0  0.25268456018E+01 -0.64017418672E+01  0.71385289640E+01  0.99159388562E+01  0.00000000000E+00 0.  1.
</event>
<event>
 7    1  0.3041451E-011  0.5052892E+02  0.7816164E-02  0.1300439E+00
        -11   -1    0    0    0    0  0.00000000000E+00  0.00000000000E+00  0.45593999997E+02  0.45594000000E+02  0.51100000000E-03 0. -1.
         11   -1    0    0    0    0 -0.00000000000E+00 -0.00000000000E+00 -0.45593999997E+02  0.45594000000E+02  0.51100000000E-03 0.  1.
    9900012    2    1    2    0    0  0.76257413931E+01  0.39636681234E+02 -0.48930567865E+01  0.50528924313E+02  0.30000195941E+02 0.  0.
         12    1    1    2    0    0 -0.76257413931E+01 -0.39636681234E+02  0.48930567865E+01  0.40659075687E+02  0.00000000000E+00 0. -1.
         11    1    3    3    0    0 -0.26911946863E+01  0.15617999702E+02  0.20384711043E+01  0.15978729870E+02  0.51100000000E-03 0. -1.
        -11    1    3    3    0    0 -0.59450209582E-01  0.14294422508E+01 -0.94562378738E+01  0.95638524906E+01  0.51100000000E-03 0.  1.
        -12    1    3    3    0    0  0.10376386289E+02  0.22589239280E+02  0.25247099830E+01  0.24986341953E+02  0.00000000000E+00 0.  1.
</event>
<event>
 7    1  0.3041451E-011  0.5052886E+02  0.7816164E-02  0.1300439E+00
        -11   -1    0    0    0    0  0.00000000000E+00  0.00000000000E+00  0.45593999997E+02  0.45594000000E+02  0.51100000000E-03 0. -1.
         11   -1    0    0    0    0 -0.00000000000E+00 -0.00000000000E+00 -0.45593999997E+02  0.45594000000E+02  0.51100000000E-03 0.  1.
    9900012    2    1    2    0    0  0.15893104774E+02 -0.17130970376E+02 -0.33273185466E+02  0.50528858390E+02  0.29999995563E+02 0.  0.
         12    1    1    2    0    0 -0.15893104774E+02  0.17130970376E+02  0.33273185466E+02  0.40659141610E+02  0.00000000000E+00 0. -1.
         11    1    3    3    0    0  0.62443617154E+01 -0.91747376186E+01  0.27123422467E+01  0.11424739136E+02  0.51100000000E-03 0. -1.
        -11    1    3    3    0    0  0.95522800925E+01 -0.25965716770E+01 -0.24717703632E+02  0.26626173449E+02  0.51100000000E-03 0.  1.
        -12    1    3    3    0    0  0.96462965998E-01 -0.53596610802E+01 -0.11267824081E+02  0.12477945805E+02  0.00000000000E+00 0.  1.
</event>
<event>
 7    1  0.3041451E-011  0.5052885E+02  0.7816164E-02  0.1300439E+00
        -11   -1    0    0    0    0  0.00000000000E+00  0.00000000000E+00  0.45593999997E+02  0.45594000000E+02  0.51100000000E-03 0.  1.
         11   -1    0    0    0    0 -0.00000000000E+00 -0.00000000000E+00 -0.45593999997E+02  0.45594000000E+02  0.51100000000E-03 0. -1.
    9900012    2    1    2    0    0 -0.21895483542E+02  0.14277396778E+02  0.31143375423E+02  0.50528854767E+02  0.29999984550E+02 0.  0.
         12    1    1    2    0    0  0.21895483542E+02 -0.14277396778E+02 -0.31143375423E+02  0.40659145233E+02  0.00000000000E+00 0. -1.
         11    1    3    3    0    0  0.41856082322E+01  0.72570044837E+01  0.51197097578E+01  0.98180883381E+01  0.51100000000E-03 0. -1.
        -11    1    3    3    0    0 -0.23865378369E+02  0.15630155982E+01  0.25235527955E+02  0.34768249508E+02  0.51100000000E-03 0.  1.
        -12    1    3    3    0    0 -0.22157134056E+01  0.54573766963E+01  0.78813771086E+00  0.59425169207E+01  0.00000000000E+00 0.  1.
</event>
<event>
 7    1  0.3041451E-011  0.5052886E+02  0.7816164E-02  0.1300439E+00
        -11   -1    0    0    0    0  0.00000000000E+00  0.00000000000E+00  0.45593999997E+02  0.45594000000E+02  0.51100000000E-03 0.  1.
         11   -1    0    0    0    0 -0.00000000000E+00 -0.00000000000E+00 -0.45593999997E+02  0.45594000000E+02  0.51100000000E-03 0. -1.
    9900012    2    1    2    0    0 -0.87352756814E+01 -0.37712869619E+02  0.12433828563E+02  0.50528859959E+02  0.30000000330E+02 0.  0.
         12    1    1    2    0    0  0.87352756814E+01  0.37712869619E+02 -0.12433828563E+02  0.40659140041E+02  0.00000000000E+00 0. -1.
         11    1    3    3    0    0  0.30642076172E+01 -0.98464444516E+01  0.38357144980E+01  0.11002478931E+02  0.51100000000E-03 0. -1.
        -11    1    3    3    0    0  0.63573055666E+01 -0.14500983401E+02  0.15711124805E+01  0.15911073136E+02  0.51100000000E-03 0.  1.
        -12    1    3    3    0    0 -0.18156788865E+02 -0.13365441767E+02  0.70270015849E+01  0.23615307891E+02  0.00000000000E+00 0.  1.
</event>
<event>
 7    1  0.3041451E-011  0.5052882E+02  0.7816164E-02  0.1300439E+00
        -11   -1    0    0    0    0  0.00000000000E+00  0.00000000000E+00  0.45593999997E+02  0.45594000000E+02  0.51100000000E-03 0. -1.
         11   -1    0    0    0    0 -0.00000000000E+00 -0.00000000000E+00 -0.45593999997E+02  0.45594000000E+02  0.51100000000E-03 0.  1.
    9900012    2    1    2    0    0  0.13894090179E+02  0.11665647440E+02 -0.36387299709E+02  0.50528823272E+02  0.29999888816E+02 0.  0.
         12    1    1    2    0    0 -0.13894090179E+02 -0.11665647440E+02  0.36387299709E+02  0.40659176728E+02  0.00000000000E+00 0. -1.
         11    1    3    3    0    0  0.79851317223E+01 -0.16547355501E+01 -0.27714725523E+01  0.86128705281E+01  0.51100000000E-03 0. -1.
        -11    1    3    3    0    0  0.12481276614E+02  0.13102693644E+02 -0.27600378383E+02  0.33003692730E+02  0.51100000000E-03 0.  1.
         12    1    3    3    0    0 -0.65723181570E+01  0.21768934615E+00 -0.60154487735E+01  0.89122600139E+01  0.00000000000E+00 0. -1.
</event>
<event>
 7    1  0.3041451E-011  0.5052885E+02  0.7816164E-02  0.1300439E+00
        -11   -1    0    0    0    0  0.00000000000E+00  0.00000000000E+00  0.45593999997E+02  0.45594000000E+02  0.51100000000E-03 0. -1.
         11   -1    0    0    0    0 -0.00000000000E+00 -0.00000000000E+00 -0.45593999997E+02  0.45594000000E+02  0.51100000000E-03 0.  1.
    9900012    2    1    2    0    0  0.11077143993E+02  0.27590673959E+02 -0.27734776209E+02  0.50528853183E+02  0.29999979735E+02 0.  0.
         12    1    1    2    0    0 -0.11077143993E+02 -0.27590673959E+02  0.27734776209E+02  0.40659146817E+02  0.00000000000E+00 0. -1.
         11    1    3    3    0    0  0.12143289362E+02  0.19809769771E+02 -0.12057052182E+02  0.26177451414E+02  0.51100000000E-03 0. -1.
        -11    1    3    3    0    0 -0.86620732145E+00 -0.44732571888E+01 -0.13553110740E+00  0.45583674647E+01  0.51100000000E-03 0.  1.
         12    1    3    3    0    0 -0.19993804811E+00  0.12254161376E+02 -0.15542192919E+02  0.19793034305E+02  0.00000000000E+00 0. -1.
</event>
<event>
 7    1  0.3041451E-011  0.5052886E+02  0.7816164E-02  0.1300439E+00
        -11   -1    0    0    0    0  0.00000000000E+00  0.00000000000E+00  0.45593999997E+02  0.45594000000E+02  0.51100000000E-03 0.  1.
         11   -1    0    0    0    0 -0.00000000000E+00 -0.00000000000E+00 -0.45593999997E+02  0.45594000000E+02  0.51100000000E-03 0. -1.
    9900012    2    1    2    0    0  0.19083795552E+02  0.26724726872E+02  0.23974229164E+02  0.50528856587E+02  0.29999990083E+02 0.  0.
         12    1    1    2    0    0 -0.19083795552E+02 -0.26724726872E+02 -0.23974229164E+02  0.40659143413E+02  0.00000000000E+00 0. -1.
         11    1    3    3    0    0  0.80553533917E+01 -0.47566422065E+01  0.85643467424E+01  0.12683154132E+02  0.51100000000E-03 0. -1.
        -11    1    3    3    0    0  0.18570101088E+01  0.17838916472E+02  0.10028127747E+02  0.20548449426E+02  0.51100000000E-03 0.  1.
         12    1    3    3    0    0  0.91714320516E+01  0.13642452606E+02  0.53817546743E+01  0.17297253029E+02  0.00000000000E+00 0. -1.
</event>
<event>
 7    1  0.3041451E-011  0.5052886E+02  0.7816164E-02  0.1300439E+00
        -11   -1    0    0    0    0  0.00000000000E+00  0.00000000000E+00  0.45593999997E+02  0.45594000000E+02  0.51100000000E-03 0.  1.
         11   -1    0    0    0    0 -0.00000000000E+00 -0.00000000000E+00 -0.45593999997E+02  0.45594000000E+02  0.51100000000E-03 0. -1.
    9900012    2    1    2    0    0 -0.11220743481E+02  0.96313266532E+01  0.37874766155E+02  0.50528862667E+02  0.30000008563E+02 0.  0.
         12    1    1    2    0    0  0.11220743481E+02 -0.96313266532E+01 -0.37874766155E+02  0.40659137333E+02  0.00000000000E+00 0. -1.
         11    1    3    3    0    0 -0.13132271290E+02  0.12329197773E+02  0.28920845658E+02  0.34071703520E+02  0.51100000000E-03 0. -1.
        -11    1    3    3    0    0 -0.51196977425E+01 -0.31928337885E+01  0.15395650452E+01  0.62270180155E+01  0.51100000000E-03 0.  1.
         12    1    3    3    0    0  0.70312255513E+01  0.49496266848E+00  0.74143554523E+01  0.10230141131E+02  0.00000000000E+00 0. -1.
</event>
<event>
 7    1  0.3041451E-011  0.5052892E+02  0.7816164E-02  0.1300439E+00
        -11   -1    0    0    0    0  0.00000000000E+00  0.00000000000E+00  0.45593999997E+02  0.45594000000E+02  0.51100000000E-03 0. -1.
         11   -1    0    0    0    0 -0.00000000000E+00 -0.00000000000E+00 -0.45593999997E+02  0.45594000000E+02  0.51100000000E-03 0.  1.
    9900012    2    1    2    0    0 -0.33396523208E+02  0.10479415217E+02 -0.20688519574E+02  0.50528920474E+02  0.30000184273E+02 0.  0.
         12    1    1    2    0    0  0.33396523208E+02 -0.10479415217E+02  0.20688519574E+02  0.40659079526E+02  0.00000000000E+00 0. -1.
         11    1    3    3    0    0 -0.38131609260E+01  0.25486935986E+01 -0.14473149487E+02  0.15182492932E+02  0.51100000000E-03 0. -1.
        -11    1    3    3    0    0 -0.27844926895E+02  0.29029648479E+01 -0.89147316857E+01  0.29380939399E+02  0.51100000000E-03 0.  1.
        -12    1    3    3    0    0 -0.17384353875E+01  0.50277567706E+01  0.26993615987E+01  0.59654881427E+01  0.00000000000E+00 0.  1.
</event>
<event>
 7    1  0.3041451E-011  0.5052886E+02  0.7816164E-02  0.1300439E+00
        -11   -1    0    0    0    0  0.00000000000E+00  0.00000000000E+00  0.45593999997E+02  0.45594000000E+02  0.51100000000E-03 0. -1.
         11   -1    0    0    0    0 -0.00000000000E+00 -0.00000000000E+00 -0.45593999997E+02  0.45594000000E+02  0.51100000000E-03 0.  1.
    9900012    2    1    2    0    0  0.31546506593E+02 -0.25264856746E+01 -0.25526467933E+02  0.50528858676E+02  0.29999996431E+02 0.  0.
         12    1    1    2    0    0 -0.31546506593E+02  0.25264856746E+01  0.25526467933E+02  0.40659141324E+02  0.00000000000E+00 0. -1.
         11    1    3    3    0    0  0.13027776344E+02 -0.16619292165E+01  0.50604377905E+01  0.14074551364E+02  0.51100000000E-03 0. -1.
        -11    1    3    3    0    0  0.74125330242E+01 -0.79310162460E-01 -0.62675237938E+01  0.97074090624E+01  0.51100000000E-03 0.  1.
         12    1    3    3    0    0  0.11106197224E+02 -0.78524629569E+00 -0.24319381930E+02  0.26746898250E+02  0.00000000000E+00 0. -1.
</event>
<event>
 7    1  0.3041451E-011  0.5052887E+02  0.7816164E-02  0.1300439E+00
        -11   -1    0    0    0    0  0.00000000000E+00  0.00000000000E+00  0.45593999997E+02  0.45594000000E+02  0.51100000000E-03 0.  1.
         11   -1    0    0    0    0 -0.00000000000E+00 -0.00000000000E+00 -0.45593999997E+02  0.45594000000E+02  0.51100000000E-03 0. -1.
    9900012    2    1    2    0    0  0.27499388634E+02 -0.23939343071E+02  0.17996018226E+02  0.50528865800E+02  0.30000018086E+02 0.  0.
         12    1    1    2    0    0 -0.27499388634E+02  0.23939343071E+02 -0.17996018226E+02  0.40659134200E+02  0.00000000000E+00 0. -1.
         11    1    3    3    0    0  0.19236846066E+02 -0.20071888134E+02  0.17111393097E+00  0.27802270052E+02  0.51100000000E-03 0. -1.
        -11    1    3    3    0    0  0.10804026398E+02 -0.24169690386E+01  0.12914500107E+02  0.17010380331E+02  0.51100000000E-03 0.  1.
         12    1    3    3    0    0 -0.25414838296E+01 -0.14504858982E+01  0.49104041879E+01  0.57162154163E+01  0.00000000000E+00 0. -1.
</event>
<event>
 7    1  0.3041451E-011  0.5052886E+02  0.7816164E-02  0.1300439E+00
        -11   -1    0    0    0    0  0.00000000000E+00  0.00000000000E+00  0.45593999997E+02  0.45594000000E+02  0.51100000000E-03 0. -1.
         11   -1    0    0    0    0 -0.00000000000E+00 -0.00000000000E+00 -0.45593999997E+02  0.45594000000E+02  0.51100000000E-03 0.  1.
    9900012    2    1    2    0    0  0.10161147539E+02  0.38773980605E+01 -0.39177577464E+02  0.50528859441E+02  0.29999998757E+02 0.  0.
         12    1    1    2    0    0 -0.10161147539E+02 -0.38773980605E+01  0.39177577464E+02  0.40659140559E+02  0.00000000000E+00 0. -1.
         11    1    3    3    0    0 -0.69979691844E+01 -0.29472610330E+01 -0.34705755523E+01  0.83488211879E+01  0.51100000000E-03 0. -1.
        -11    1    3    3    0    0  0.15784773407E+02  0.76572800623E+01 -0.20905759934E+02  0.27291826764E+02  0.51100000000E-03 0.  1.
        -12    1    3    3    0    0  0.13743433161E+01 -0.83262096886E+00 -0.14801241979E+02  0.14888211489E+02  0.00000000000E+00 0.  1.
</event>
<event>
 7    1  0.3041451E-011  0.5052886E+02  0.7816164E-02  0.1300439E+00
        -11   -1    0    0    0    0  0.00000000000E+00  0.00000000000E+00  0.45593999997E+02  0.45594000000E+02  0.51100000000E-03 0. -1.
         11   -1    0    0    0    0 -0.00000000000E+00 -0.00000000000E+00 -0.45593999997E+02  0.45594000000E+02  0.51100000000E-03 0.  1.
    9900012    2    1    2    0    0 -0.22719341174E+02 -0.27924927836E+02  0.18899616747E+02  0.50528861160E+02  0.30000003981E+02 0.  0.
         12    1    1    2    0    0  0.22719341174E+02  0.27924927836E+02 -0.18899616747E+02  0.40659138840E+02  0.00000000000E+00 0. -1.
         11    1    3    3    0    0  0.88713739325E+00 -0.83157059365E+01  0.54908201322E+01  0.10004353251E+02  0.51100000000E-03 0. -1.
        -11    1    3    3    0    0 -0.26843286491E+02 -0.12753467088E+02  0.14133527550E+02  0.32908502756E+02  0.51100000000E-03 0.  1.
        -12    1    3    3    0    0  0.32368079230E+01 -0.68557548115E+01 -0.72473093463E+00  0.76160051532E+01  0.00000000000E+00 0.  1.
</event>
<event>
 7    1  0.3041451E-011  0.5052886E+02  0.7816164E-02  0.1300439E+00
        -11   -1    0    0    0    0  0.00000000000E+00  0.00000000000E+00  0.45593999997E+02  0.45594000000E+02  0.51100000000E-03 0. -1.
         11   -1    0    0    0    0 -0.00000000000E+00 -0.00000000000E+00 -0.45593999997E+02  0.45594000000E+02  0.51100000000E-03 0.  1.
    9900012    2    1    2    0    0 -0.12417209548E+01  0.16208780430E+02 -0.37267936628E+02  0.50528861611E+02  0.30000005354E+02 0.  0.
         12    1    1    2    0    0  0.12417209548E+01 -0.16208780430E+02  0.37267936628E+02  0.40659138389E+02  0.00000000000E+00 0. -1.
         11    1    3    3    0    0  0.30493634731E+01  0.18305265415E+02 -0.13665632404E+02  0.23046276679E+02  0.51100000000E-03 0. -1.
        -11    1    3    3    0    0 -0.35899498156E+01 -0.42263847318E+01 -0.24460833026E+02  0.25081515508E+02  0.51100000000E-03 0.  1.
        -12    1    3    3    0    0 -0.70113461230E+00  0.21298997473E+01  0.85852880206E+00  0.24010694247E+01  0.00000000000E+00 0.  1.
</event>
<event>
 7    1  0.3041451E-011  0.5052886E+02  0.7816164E-02  0.1300439E+00
        -11   -1    0    0    0    0  0.00000000000E+00  0.00000000000E+00  0.45593999997E+02  0.45594000000E+02  0.51100000000E-03 0. -1.
         11   -1    0    0    0    0 -0.00000000000E+00 -0.00000000000E+00 -0.45593999997E+02  0.45594000000E+02  0.51100000000E-03 0.  1.
    9900012    2    1    2    0    0 -0.18126382425E+02  0.36394918198E+02 -0.98602277432E-01  0.50528861632E+02  0.30000005416E+02 0.  0.
         12    1    1    2    0    0  0.18126382425E+02 -0.36394918198E+02  0.98602277432E-01  0.40659138368E+02  0.00000000000E+00 0. -1.
         11    1    3    3    0    0 -0.43297632933E+01  0.14838132108E+02  0.11020103454E+02  0.18983142391E+02  0.51100000000E-03 0. -1.
        -11    1    3    3    0    0 -0.16441889530E+02  0.15339003498E+02 -0.66653688013E+01  0.23453100033E+02  0.51100000000E-03 0.  1.
        -12    1    3    3    0    0  0.26452703980E+01  0.62177825920E+01 -0.44533369301E+01  0.80926192085E+01  0.00000000000E+00 0.  1.
</event>
<event>
 7    1  0.3041451E-011  0.5052885E+02  0.7816164E-02  0.1300439E+00
        -11   -1    0    0    0    0  0.00000000000E+00  0.00000000000E+00  0.45593999997E+02  0.45594000000E+02  0.51100000000E-03 0.  1.
         11   -1    0    0    0    0 -0.00000000000E+00 -0.00000000000E+00 -0.45593999997E+02  0.45594000000E+02  0.51100000000E-03 0. -1.
    9900012    2    1    2    0    0 -0.14749756394E+02 -0.37854167195E+02  0.16349654284E+01  0.50528850972E+02  0.29999973016E+02 0.  0.
         12    1    1    2    0    0  0.14749756394E+02  0.37854167195E+02 -0.16349654284E+01  0.40659149028E+02  0.00000000000E+00 0. -1.
         11    1    3    3    0    0 -0.82446804380E+01 -0.41261683251E+02  0.21014375494E+01  0.42129767389E+02  0.51100000000E-03 0.  1.
        -11    1    3    3    0    0 -0.63775373139E+01  0.28990863625E+01  0.77810357373E+00  0.70486260619E+01  0.51100000000E-03 0. -1.
        -12    1    3    3    0    0 -0.12753864178E+00  0.50842969315E+00 -0.12445756947E+01  0.13504575217E+01  0.00000000000E+00 0.  1.
</event>
<event>
 7    1  0.3041451E-011  0.5052886E+02  0.7816164E-02  0.1300439E+00
        -11   -1    0    0    0    0  0.00000000000E+00  0.00000000000E+00  0.45593999997E+02  0.45594000000E+02  0.51100000000E-03 0. -1.
         11   -1    0    0    0    0 -0.00000000000E+00 -0.00000000000E+00 -0.45593999997E+02  0.45594000000E+02  0.51100000000E-03 0.  1.
    9900012    2    1    2    0    0  0.40194805927E+02  0.48486137290E+01  0.37462583626E+01  0.50528856744E+02  0.29999990559E+02 0.  0.
         12    1    1    2    0    0 -0.40194805927E+02 -0.48486137290E+01 -0.37462583626E+01  0.40659143256E+02  0.00000000000E+00 0. -1.
         11    1    3    3    0    0  0.15784837333E+02  0.49281809138E+01 -0.11384771609E+02  0.20076381188E+02  0.51100000000E-03 0.  1.
        -11    1    3    3    0    0  0.19634395917E+02  0.29792815690E+01  0.14807738952E+02  0.24772055926E+02  0.51100000000E-03 0. -1.
         12    1    3    3    0    0  0.47755726769E+01 -0.30588487538E+01  0.32329101921E+00  0.56804196301E+01  0.00000000000E+00 0. -1.
</event>
<event>
 7    1  0.3041451E-011  0.5052886E+02  0.7816164E-02  0.1300439E+00
        -11   -1    0    0    0    0  0.00000000000E+00  0.00000000000E+00  0.45593999997E+02  0.45594000000E+02  0.51100000000E-03 0. -1.
         11   -1    0    0    0    0 -0.00000000000E+00 -0.00000000000E+00 -0.45593999997E+02  0.45594000000E+02  0.51100000000E-03 0.  1.
    9900012    2    1    2    0    0  0.11402209861E+02 -0.38859903542E+02 -0.36142639062E+01  0.50528863308E+02  0.30000010510E+02 0.  0.
         12    1    1    2    0    0 -0.11402209861E+02  0.38859903542E+02  0.36142639062E+01  0.40659136692E+02  0.00000000000E+00 0. -1.
         11    1    3    3    0    0 -0.44910195180E+01 -0.19353040128E+02  0.20253662015E+01  0.19970266073E+02  0.51100000000E-03 0. -1.
        -11    1    3    3    0    0  0.90910917687E+01  0.25114513340E+00 -0.24649909696E+01  0.94226962260E+01  0.51100000000E-03 0.  1.
         12    1    3    3    0    0  0.68021376102E+01 -0.19758008546E+02 -0.31746391381E+01  0.21135901009E+02  0.00000000000E+00 0. -1.
</event>
<event>
 7    1  0.3041451E-011  0.5052895E+02  0.7816164E-02  0.1300438E+00
        -11   -1    0    0    0    0  0.00000000000E+00  0.00000000000E+00  0.45593999997E+02  0.45594000000E+02  0.51100000000E-03 0.  1.
         11   -1    0    0    0    0 -0.00000000000E+00 -0.00000000000E+00 -0.45593999997E+02  0.45594000000E+02  0.51100000000E-03 0. -1.
    9900012    2    1    2    0    0 -0.40534899549E+02  0.30150704981E+01 -0.99465302965E+00  0.50528953452E+02  0.30000284510E+02 0.  0.
         12    1    1    2    0    0  0.40534899549E+02 -0.30150704981E+01  0.99465302965E+00  0.40659046548E+02  0.00000000000E+00 0. -1.
         11    1    3    3    0    0 -0.25014328124E+02 -0.39142616031E+01 -0.12196970726E+02  0.28103454424E+02  0.51100000000E-03 0. -1.
        -11    1    3    3    0    0 -0.15551866030E+01 -0.13750400978E+01  0.42949003934E+01  0.47702736075E+01  0.51100000000E-03 0.  1.
         12    1    3    3    0    0 -0.13965384822E+02  0.83043721990E+01  0.69074173029E+01  0.17655225420E+02  0.00000000000E+00 0. -1.
</event>
<event>
 7    1  0.3041451E-011  0.5052886E+02  0.7816164E-02  0.1300439E+00
        -11   -1    0    0    0    0  0.00000000000E+00  0.00000000000E+00  0.45593999997E+02  0.45594000000E+02  0.51100000000E-03 0. -1.
         11   -1    0    0    0    0 -0.00000000000E+00 -0.00000000000E+00 -0.45593999997E+02  0.45594000000E+02  0.51100000000E-03 0.  1.
    9900012    2    1    2    0    0 -0.37954007266E+02  0.11092243836E+01  0.14540591640E+02  0.50528857713E+02  0.29999993503E+02 0.  0.
         12    1    1    2    0    0  0.37954007266E+02 -0.11092243836E+01 -0.14540591640E+02  0.40659142287E+02  0.00000000000E+00 0. -1.
         11    1    3    3    0    0 -0.20954998605E+02  0.58568704775E+01  0.20774554973E+02  0.30083168598E+02  0.51100000000E-03 0.  1.
        -11    1    3    3    0    0 -0.59701715055E+01 -0.35897762296E+00 -0.61453933401E+01  0.85754109117E+01  0.51100000000E-03 0. -1.
        -12    1    3    3    0    0 -0.11028837156E+02 -0.43886684709E+01 -0.88569993006E-01  0.11870278202E+02  0.00000000000E+00 0.  1.
</event>
<event>
 7    1  0.3041451E-011  0.5052886E+02  0.7816164E-02  0.1300439E+00
        -11   -1    0    0    0    0  0.00000000000E+00  0.00000000000E+00  0.45593999997E+02  0.45594000000E+02  0.51100000000E-03 0. -1.
         11   -1    0    0    0    0 -0.00000000000E+00 -0.00000000000E+00 -0.45593999997E+02  0.45594000000E+02  0.51100000000E-03 0.  1.
    9900012    2    1    2    0    0 -0.37340243820E+01  0.35200379022E+02 -0.20003891299E+02  0.50528864637E+02  0.30000014549E+02 0.  0.
         12    1    1    2    0    0  0.37340243820E+01 -0.35200379022E+02  0.20003891299E+02  0.40659135363E+02  0.00000000000E+00 0. -1.
         11    1    3    3    0    0 -0.58305967745E+01  0.68226866621E+01  0.57137940931E+01  0.10639189595E+02  0.51100000000E-03 0. -1.
        -11    1    3    3    0    0  0.65413656166E+01  0.17607252528E+02 -0.17053568291E+02  0.25369844253E+02  0.51100000000E-03 0.  1.
        -12    1    3    3    0    0 -0.44447932240E+01  0.10770439832E+02 -0.86641171010E+01  0.14519830788E+02  0.00000000000E+00 0.  1.
</event>
<event>
 7    1  0.3041451E-011  0.5052886E+02  0.7816164E-02  0.1300439E+00
        -11   -1    0    0    0    0  0.00000000000E+00  0.00000000000E+00  0.45593999997E+02  0.45594000000E+02  0.51100000000E-03 0. -1.
         11   -1    0    0    0    0 -0.00000000000E+00 -0.00000000000E+00 -0.45593999997E+02  0.45594000000E+02  0.51100000000E-03 0.  1.
    9900012    2    1    2    0    0 -0.21184501691E+02  0.31441411977E+02 -0.14690814258E+02  0.50528861759E+02  0.30000005801E+02 0.  0.
         12    1    1    2    0    0  0.21184501691E+02 -0.31441411977E+02  0.14690814258E+02  0.40659138241E+02  0.00000000000E+00 0. -1.
         11    1    3    3    0    0  0.43201832156E+01  0.16918260912E+02 -0.79205526554E+01  0.19173593558E+02  0.51100000000E-03 0.  1.
        -11    1    3    3    0    0 -0.81310432363E+00  0.31892788223E+01  0.23008571859E+00  0.32993298935E+01  0.51100000000E-03 0. -1.
         12    1    3    3    0    0 -0.24691580583E+02  0.11333872243E+02 -0.70003473211E+01  0.28055938307E+02  0.00000000000E+00 0. -1.
</event>
<event>
 7    1  0.3041451E-011  0.5052886E+02  0.7816164E-02  0.1300439E+00
        -11   -1    0    0    0    0  0.00000000000E+00  0.00000000000E+00  0.45593999997E+02  0.45594000000E+02  0.51100000000E-03 0.  1.
         11   -1    0    0    0    0 -0.00000000000E+00 -0.00000000000E+00 -0.45593999997E+02  0.45594000000E+02  0.51100000000E-03 0. -1.
    9900012    2    1    2    0    0 -0.39702827953E+02 -0.70976643146E+01  0.51453183101E+01  0.50528859740E+02  0.29999999666E+02 0.  0.
         12    1    1    2    0    0  0.39702827953E+02  0.70976643146E+01 -0.51453183101E+01  0.40659140260E+02  0.00000000000E+00 0. -1.
         11    1    3    3    0    0 -0.82895871942E+01 -0.13796118796E+02  0.19172612560E+01  0.16208826012E+02  0.51100000000E-03 0. -1.
        -11    1    3    3    0    0 -0.25638822629E+02  0.41583989102E+01 -0.21055882870E+01  0.26059067704E+02  0.51100000000E-03 0.  1.
        -12    1    3    3    0    0 -0.57744181290E+01  0.25400555714E+01  0.53336453411E+01  0.82609660246E+01  0.00000000000E+00 0.  1.
</event>
<event>
 7    1  0.3041451E-011  0.5052886E+02  0.7816164E-02  0.1300439E+00
        -11   -1    0    0    0    0  0.00000000000E+00  0.00000000000E+00  0.45593999997E+02  0.45594000000E+02  0.51100000000E-03 0.  1.
         11   -1    0    0    0    0 -0.00000000000E+00 -0.00000000000E+00 -0.45593999997E+02  0.45594000000E+02  0.51100000000E-03 0. -1.
    9900012    2    1    2    0    0 -0.34794810303E+02  0.64123957560E+01 -0.20034172750E+02  0.50528859316E+02  0.29999998377E+02 0.  0.
         12    1    1    2    0    0  0.34794810303E+02 -0.64123957560E+01  0.20034172750E+02  0.40659140684E+02  0.00000000000E+00 0. -1.
         11    1    3    3    0    0 -0.21015615955E+02 -0.18694025470E+01 -0.77134609659E+01  0.22464377583E+02  0.51100000000E-03 0. -1.
        -11    1    3    3    0    0  0.32408517059E+01  0.55181482596E+01 -0.80808150577E+01  0.10307892716E+02  0.51100000000E-03 0.  1.
        -12    1    3    3    0    0 -0.17020046055E+02  0.27636500434E+01 -0.42398967267E+01  0.17756589017E+02  0.00000000000E+00 0.  1.
</event>
<event>
 7    1  0.3041451E-011  0.5052885E+02  0.7816164E-02  0.1300439E+00
        -11   -1    0    0    0    0  0.00000000000E+00  0.00000000000E+00  0.45593999997E+02  0.45594000000E+02  0.51100000000E-03 0. -1.
         11   -1    0    0    0    0 -0.00000000000E+00 -0.00000000000E+00 -0.45593999997E+02  0.45594000000E+02  0.51100000000E-03 0.  1.
    9900012    2    1    2    0    0  0.25519627646E+01 -0.31636988977E+02 -0.25411713740E+02  0.50528846287E+02  0.29999958772E+02 0.  0.
         12    1    1    2    0    0 -0.25519627646E+01  0.31636988977E+02  0.25411713740E+02  0.40659153713E+02  0.00000000000E+00 0. -1.
         11    1    3    3    0    0 -0.86211714189E-01 -0.19190891977E+02 -0.27869024899E+01  0.19392384925E+02  0.51100000000E-03 0. -1.
        -11    1    3    3    0    0 -0.66162499880E+01 -0.14055423168E+01 -0.93995907820E+01  0.11580268574E+02  0.51100000000E-03 0.  1.
        -12    1    3    3    0    0  0.92544244668E+01 -0.11040554684E+02 -0.13225220468E+02  0.19556192788E+02  0.00000000000E+00 0.  1.
</event>
<event>
 7    1  0.3041451E-011  0.5052886E+02  0.7816164E-02  0.1300439E+00
        -11   -1    0    0    0    0  0.00000000000E+00  0.00000000000E+00  0.45593999997E+02  0.45594000000E+02  0.51100000000E-03 0.  1.
         11   -1    0    0    0    0 -0.00000000000E+00 -0.00000000000E+00 -0.45593999997E+02  0.45594000000E+02  0.51100000000E-03 0. -1.
    9900012    2    1    2    0    0  0.17165853580E+02 -0.27524782722E+02  0.24512972033E+02  0.50528855999E+02  0.29999988294E+02 0.  0.
         12    1    1    2    0    0 -0.17165853580E+02  0.27524782722E+02 -0.24512972033E+02  0.40659144001E+02  0.00000000000E+00 0. -1.
         11    1    3    3    0    0 -0.40184510249E+01  0.40939561803E+01  0.52855734989E+01  0.78003662298E+01  0.51100000000E-03 0. -1.
        -11    1    3    3    0    0  0.70274753805E+01 -0.12540397886E+02  0.64920908181E+01  0.15773212508E+02  0.51100000000E-03 0.  1.
         12    1    3    3    0    0  0.14156829225E+02 -0.19078341016E+02  0.12735307716E+02  0.26955277261E+02  0.00000000000E+00 0. -1.
</event>
<event>
 7    1  0.3041451E-011  0.5052886E+02  0.7816164E-02  0.1300439E+00
        -11   -1    0    0    0    0  0.00000000000E+00  0.00000000000E+00  0.45593999997E+02  0.45594000000E+02  0.51100000000E-03 0. -1.
         11   -1    0    0    0    0 -0.00000000000E+00 -0.00000000000E+00 -0.45593999997E+02  0.45594000000E+02  0.51100000000E-03 0.  1.
    9900012    2    1    2    0    0  0.82760170574E+01  0.18355803943E+02 -0.35323331708E+02  0.50528858842E+02  0.29999996936E+02 0.  0.
         12    1    1    2    0    0 -0.82760170574E+01 -0.18355803943E+02  0.35323331708E+02  0.40659141158E+02  0.00000000000E+00 0. -1.
         11    1    3    3    0    0  0.93506382570E+01  0.19426435412E+02 -0.15603324580E+02  0.26613616192E+02  0.51100000000E-03 0. -1.
        -11    1    3    3    0    0 -0.34031748855E+00 -0.35791477335E+01 -0.20784386708E+02  0.21093052068E+02  0.51100000000E-03 0.  1.
         12    1    3    3    0    0 -0.73430371107E+00  0.25085162644E+01  0.10643795786E+01  0.28221905811E+01  0.00000000000E+00 0. -1.
</event>
<event>
 7    1  0.3041451E-011  0.5052880E+02  0.7816164E-02  0.1300439E+00
        -11   -1    0    0    0    0  0.00000000000E+00  0.00000000000E+00  0.45593999997E+02  0.45594000000E+02  0.51100000000E-03 0.  1.
         11   -1    0    0    0    0 -0.00000000000E+00 -0.00000000000E+00 -0.45593999997E+02  0.45594000000E+02  0.51100000000E-03 0. -1.
    9900012    2    1    2    0    0  0.49301252124E+01 -0.24168337103E+02  0.32322686576E+02  0.50528797839E+02  0.29999811511E+02 0.  0.
         12    1    1    2    0    0 -0.49301252124E+01  0.24168337103E+02 -0.32322686576E+02  0.40659202161E+02  0.00000000000E+00 0. -1.
         11    1    3    3    0    0  0.54830693460E+01  0.15039672676E+01  0.42667851351E+00  0.57015806414E+01  0.51100000000E-03 0. -1.
        -11    1    3    3    0    0 -0.45088436486E+01 -0.23256338950E+02  0.32430469287E+02  0.40161204051E+02  0.51100000000E-03 0.  1.
        -12    1    3    3    0    0  0.39558995150E+01 -0.24159654206E+01 -0.53446122453E+00  0.46660131469E+01  0.00000000000E+00 0.  1.
</event>
<event>
 7    1  0.3041451E-011  0.5052886E+02  0.7816164E-02  0.1300439E+00
        -11   -1    0    0    0    0  0.00000000000E+00  0.00000000000E+00  0.45593999997E+02  0.45594000000E+02  0.51100000000E-03 0.  1.
         11   -1    0    0    0    0 -0.00000000000E+00 -0.00000000000E+00 -0.45593999997E+02  0.45594000000E+02  0.51100000000E-03 0. -1.
    9900012    2    1    2    0    0 -0.17045097162E+01 -0.25498282744E+02  0.31624330665E+02  0.50528855072E+02  0.29999985477E+02 0.  0.
         12    1    1    2    0    0  0.17045097162E+01  0.25498282744E+02 -0.31624330665E+02  0.40659144928E+02  0.00000000000E+00 0. -1.
         11    1    3    3    0    0 -0.12101117666E+01  0.49136315527E+01  0.11720000200E+01  0.51943940774E+01  0.51100000000E-03 0. -1.
        -11    1    3    3    0    0  0.38354021582E+01 -0.23583737328E+02  0.28159334762E+02  0.36930354867E+02  0.51100000000E-03 0.  1.
         12    1    3    3    0    0 -0.43298001079E+01 -0.68281769685E+01  0.22929958828E+01  0.84041061277E+01  0.00000000000E+00 0. -1.
</event>
<event>
 7    1  0.3041451E-011  0.5052886E+02  0.7816164E-02  0.1300439E+00
        -11   -1    0    0    0    0  0.00000000000E+00  0.00000000000E+00  0.45593999997E+02  0.45594000000E+02  0.51100000000E-03 0.  1.
         11   -1    0    0    0    0 -0.00000000000E+00 -0.00000000000E+00 -0.45593999997E+02  0.45594000000E+02  0.51100000000E-03 0. -1.
    9900012    2    1    2    0    0 -0.49961598886E+01 -0.10819764290E+02  0.38873344388E+02  0.50528858140E+02  0.29999994801E+02 0.  0.
         12    1    1    2    0    0  0.49961598886E+01  0.10819764290E+02 -0.38873344388E+02  0.40659141860E+02  0.00000000000E+00 0. -1.
         11    1    3    3    0    0 -0.70781116143E+01  0.59007098445E+01  0.10956951408E+02  0.14316872043E+02  0.51100000000E-03 0. -1.
        -11    1    3    3    0    0  0.87976233992E+01 -0.11895414658E+02  0.17833388270E+02  0.23171724252E+02  0.51100000000E-03 0.  1.
         12    1    3    3    0    0 -0.67156716734E+01 -0.48250594768E+01  0.10083004710E+02  0.13040261844E+02  0.00000000000E+00 0. -1.
</event>
<event>
 7    1  0.3041451E-011  0.5052886E+02  0.7816164E-02  0.1300439E+00
        -11   -1    0    0    0    0  0.00000000000E+00  0.00000000000E+00  0.45593999997E+02  0.45594000000E+02  0.51100000000E-03 0.  1.
         11   -1    0    0    0    0 -0.00000000000E+00 -0.00000000000E+00 -0.45593999997E+02  0.45594000000E+02  0.51100000000E-03 0. -1.
    9900012    2    1    2    0    0 -0.15188090795E+01 -0.38837911566E+02  0.11936312779E+02  0.50528859348E+02  0.29999998474E+02 0.  0.
         12    1    1    2    0    0  0.15188090795E+01  0.38837911566E+02 -0.11936312779E+02  0.40659140652E+02  0.00000000000E+00 0. -1.
         11    1    3    3    0    0 -0.11799430726E+02 -0.20792968558E+02 -0.32026288868E+01  0.24121172006E+02  0.51100000000E-03 0. -1.
        -11    1    3    3    0    0  0.36250290925E+01 -0.39272416581E+01  0.69943385772E+01  0.88025470948E+01  0.51100000000E-03 0.  1.
         12    1    3    3    0    0  0.66555925541E+01 -0.14117701350E+02  0.81446030884E+01  0.17605140247E+02  0.00000000000E+00 0. -1.
</event>
<event>
 7    1  0.3041451E-011  0.5052885E+02  0.7816164E-02  0.1300439E+00
        -11   -1    0    0    0    0  0.00000000000E+00  0.00000000000E+00  0.45593999997E+02  0.45594000000E+02  0.51100000000E-03 0.  1.
         11   -1    0    0    0    0 -0.00000000000E+00 -0.00000000000E+00 -0.45593999997E+02  0.45594000000E+02  0.51100000000E-03 0. -1.
    9900012    2    1    2    0    0 -0.62643138961E+01 -0.36805585919E+02  0.16101968337E+02  0.50528853824E+02  0.29999981683E+02 0.  0.
         12    1    1    2    0    0  0.62643138961E+01  0.36805585919E+02 -0.16101968337E+02  0.40659146176E+02  0.00000000000E+00 0. -1.
         11    1    3    3    0    0 -0.44582347222E+01  0.13642064013E+01  0.26170248604E+01  0.53465629450E+01  0.51100000000E-03 0. -1.
        -11    1    3    3    0    0 -0.52434805385E+01 -0.28049362370E+02  0.17826545076E+02  0.33645899113E+02  0.51100000000E-03 0.  1.
        -12    1    3    3    0    0  0.34374013646E+01 -0.10120429950E+02 -0.43416015998E+01  0.11536391766E+02  0.00000000000E+00 0.  1.
</event>
<event>
 7    1  0.3041451E-011  0.5052885E+02  0.7816164E-02  0.1300439E+00
        -11   -1    0    0    0    0  0.00000000000E+00  0.00000000000E+00  0.45593999997E+02  0.45594000000E+02  0.51100000000E-03 0.  1.
         11   -1    0    0    0    0 -0.00000000000E+00 -0.00000000000E+00 -0.45593999997E+02  0.45594000000E+02  0.51100000000E-03 0. -1.
    9900012    2    1    2    0    0  0.21077128674E+02  0.32463220988E+02  0.12452322946E+02  0.50528850762E+02  0.29999972375E+02 0.  0.
         12    1    1    2    0    0 -0.21077128674E+02 -0.32463220988E+02 -0.12452322946E+02  0.40659149238E+02  0.00000000000E+00 0. -1.
         11    1    3    3    0    0  0.21277378001E+01  0.50875781156E+01  0.54086492665E+01  0.77242608952E+01  0.51100000000E-03 0.  1.
        -11    1    3    3    0    0 -0.23994117733E+01  0.14826705964E+02 -0.42175300526E+01  0.15600511101E+02  0.51100000000E-03 0. -1.
        -12    1    3    3    0    0  0.21348802647E+02  0.12548936908E+02  0.11261203732E+02  0.27204078766E+02  0.00000000000E+00 0.  1.
</event>
<event>
 7    1  0.3492873E-011  0.5052886E+02  0.7816164E-02  0.1300439E+00
        -11   -1    0    0    0    0  0.00000000000E+00  0.00000000000E+00  0.45593999997E+02  0.45594000000E+02  0.51100000000E-03 0. -1.
         11   -1    0    0    0    0 -0.00000000000E+00 -0.00000000000E+00 -0.45593999997E+02  0.45594000000E+02  0.51100000000E-03 0.  1.
    9900012    2    1    2    0    0  0.17869660079E+02  0.22413552685E+02 -0.28835285803E+02  0.50528858314E+02  0.29999995331E+02 0.  0.
         12    1    1    2    0    0 -0.17869660079E+02 -0.22413552685E+02  0.28835285803E+02  0.40659141686E+02  0.00000000000E+00 0. -1.
         11    1    3    3    0    0 -0.64502112215E+01  0.29564392558E+01 -0.94146275965E+01  0.11789019082E+02  0.51100000000E-03 0. -1.
        -11    1    3    3    0    0  0.14720181851E+02  0.13942083750E+02 -0.18802641622E+02  0.27651487939E+02  0.51100000000E-03 0.  1.
         12    1    3    3    0    0  0.95996894497E+01  0.55150296790E+01 -0.61801658406E+00  0.11088351293E+02  0.00000000000E+00 0. -1.
</event>
<event>
 7    1  0.3041451E-011  0.5052884E+02  0.7816164E-02  0.1300439E+00
        -11   -1    0    0    0    0  0.00000000000E+00  0.00000000000E+00  0.45593999997E+02  0.45594000000E+02  0.51100000000E-03 0.  1.
         11   -1    0    0    0    0 -0.00000000000E+00 -0.00000000000E+00 -0.45593999997E+02  0.45594000000E+02  0.51100000000E-03 0. -1.
    9900012    2    1    2    0    0  0.63595554653E+01  0.19392221441E+02  0.35166251876E+02  0.50528837821E+02  0.29999933040E+02 0.  0.
         12    1    1    2    0    0 -0.63595554653E+01 -0.19392221441E+02 -0.35166251876E+02  0.40659162179E+02  0.00000000000E+00 0. -1.
         11    1    3    3    0    0  0.81716359793E+01  0.10770546377E+02  0.23192115117E+02  0.26845008990E+02  0.51100000000E-03 0. -1.
        -11    1    3    3    0    0 -0.94926993468E+01  0.83056941569E+01  0.61096847119E+01  0.14015139809E+02  0.51100000000E-03 0.  1.
         12    1    3    3    0    0  0.76806188328E+01  0.31598090672E+00  0.58644520472E+01  0.96686890219E+01  0.00000000000E+00 0. -1.
</event>
<event>
 7    1  0.3041451E-011  0.5052886E+02  0.7816164E-02  0.1300439E+00
        -11   -1    0    0    0    0  0.00000000000E+00  0.00000000000E+00  0.45593999997E+02  0.45594000000E+02  0.51100000000E-03 0. -1.
         11   -1    0    0    0    0 -0.00000000000E+00 -0.00000000000E+00 -0.45593999997E+02  0.45594000000E+02  0.51100000000E-03 0.  1.
    9900012    2    1    2    0    0  0.68162525180E+00  0.25565991990E+02 -0.31608240456E+02  0.50528862969E+02  0.30000009480E+02 0.  0.
         12    1    1    2    0    0 -0.68162525180E+00 -0.25565991990E+02  0.31608240456E+02  0.40659137031E+02  0.00000000000E+00 0. -1.
         11    1    3    3    0    0 -0.45313051089E+00  0.29688556277E+02 -0.28639313418E+02  0.41253193505E+02  0.51100000000E-03 0.  1.
        -11    1    3    3    0    0 -0.52039934752E+00 -0.45585989405E+01  0.12224576232E+01  0.47482673348E+01  0.51100000000E-03 0. -1.
        -12    1    3    3    0    0  0.16551551102E+01  0.43603465337E+00 -0.41913846610E+01  0.45274021287E+01  0.00000000000E+00 0.  1.
</event>
<event>
 7    1  0.3041451E-011  0.5052886E+02  0.7816164E-02  0.1300439E+00
        -11   -1    0    0    0    0  0.00000000000E+00  0.00000000000E+00  0.45593999997E+02  0.45594000000E+02  0.51100000000E-03 0.  1.
         11   -1    0    0    0    0 -0.00000000000E+00 -0.00000000000E+00 -0.45593999997E+02  0.45594000000E+02  0.51100000000E-03 0. -1.
    9900012    2    1    2    0    0  0.20719676755E+02 -0.29649277717E+02  0.18568276156E+02  0.50528861379E+02  0.30000004647E+02 0.  0.
         12    1    1    2    0    0 -0.20719676755E+02  0.29649277717E+02 -0.18568276156E+02  0.40659138621E+02  0.00000000000E+00 0. -1.
         11    1    3    3    0    0  0.11683361369E+02  0.18054180207E+01  0.28216177692E+00  0.11825399893E+02  0.51100000000E-03 0. -1.
        -11    1    3    3    0    0  0.96190245525E+01 -0.17684024815E+02  0.87920725384E+01  0.21967041375E+02  0.51100000000E-03 0.  1.
         12    1    3    3    0    0 -0.58270916619E+00 -0.13770670923E+02  0.94940418410E+01  0.16736420111E+02  0.00000000000E+00 0. -1.
</event>
<event>
 7    1  0.3041451E-011  0.5052887E+02  0.7816164E-02  0.1300439E+00
        -11   -1    0    0    0    0  0.00000000000E+00  0.00000000000E+00  0.45593999997E+02  0.45594000000E+02  0.51100000000E-03 0.  1.
         11   -1    0    0    0    0 -0.00000000000E+00 -0.00000000000E+00 -0.45593999997E+02  0.45594000000E+02  0.51100000000E-03 0. -1.
    9900012    2    1    2    0    0 -0.14134535517E+02 -0.27490831086E+02  0.26412762836E+02  0.50528869061E+02  0.30000027998E+02 0.  0.
         12    1    1    2    0    0  0.14134535517E+02  0.27490831086E+02 -0.26412762836E+02  0.40659130939E+02  0.00000000000E+00 0. -1.
         11    1    3    3    0    0  0.48455715598E+01 -0.17830819493E+00 -0.43646155328E+00  0.48684552480E+01  0.51100000000E-03 0. -1.
        -11    1    3    3    0    0 -0.77867154952E+01 -0.22520857308E+02  0.22378373370E+02  0.32689655046E+02  0.51100000000E-03 0.  1.
        -12    1    3    3    0    0 -0.11193391581E+02 -0.47916655827E+01  0.44708510197E+01  0.12970758767E+02  0.00000000000E+00 0.  1.
</event>
<event>
 7    1  0.3041451E-011  0.5052886E+02  0.7816164E-02  0.1300439E+00
        -11   -1    0    0    0    0  0.00000000000E+00  0.00000000000E+00  0.45593999997E+02  0.45594000000E+02  0.51100000000E-03 0.  1.
         11   -1    0    0    0    0 -0.00000000000E+00 -0.00000000000E+00 -0.45593999997E+02  0.45594000000E+02  0.51100000000E-03 0. -1.
    9900012    2    1    2    0    0 -0.23991923733E+02 -0.89389811210E+01  0.31585561252E+02  0.50528862435E+02  0.30000007859E+02 0.  0.
         12    1    1    2    0    0  0.23991923733E+02  0.89389811210E+01 -0.31585561252E+02  0.40659137565E+02  0.00000000000E+00 0. -1.
         11    1    3    3    0    0 -0.76784485828E+00  0.60338648012E+01 -0.17695568717E+01  0.63347014096E+01  0.51100000000E-03 0. -1.
        -11    1    3    3    0    0 -0.21142782137E+01 -0.26977989545E+01  0.93215622090E+01  0.99317578424E+01  0.51100000000E-03 0.  1.
         12    1    3    3    0    0 -0.21109800661E+02 -0.12275046968E+02  0.24033555915E+02  0.34262403183E+02  0.00000000000E+00 0. -1.
</event>
<event>
 7    1  0.3041451E-011  0.5052886E+02  0.7816164E-02  0.1300439E+00
        -11   -1    0    0    0    0  0.00000000000E+00  0.00000000000E+00  0.45593999997E+02  0.45594000000E+02  0.51100000000E-03 0.  1.
         11   -1    0    0    0    0 -0.00000000000E+00 -0.00000000000E+00 -0.45593999997E+02  0.45594000000E+02  0.51100000000E-03 0. -1.
    9900012    2    1    2    0    0  0.15737323423E+02 -0.45332480141E+01  0.37214937753E+02  0.50528864766E+02  0.30000014942E+02 0.  0.
         12    1    1    2    0    0 -0.15737323423E+02  0.45332480141E+01 -0.37214937753E+02  0.40659135234E+02  0.00000000000E+00 0. -1.
         11    1    3    3    0    0  0.53427760567E+01 -0.11663582270E+02  0.17838975619E+02  0.21973016606E+02  0.51100000000E-03 0. -1.
        -11    1    3    3    0    0  0.90593615519E+01  0.11895198221E+02  0.18038686799E+02  0.23429937988E+02  0.51100000000E-03 0.  1.
        -12    1    3    3    0    0  0.13351858147E+01 -0.47648639649E+01  0.13372753346E+01  0.51259101713E+01  0.00000000000E+00 0.  1.
</event>
<event>
 7    1  0.3041451E-011  0.5052885E+02  0.7816164E-02  0.1300439E+00
        -11   -1    0    0    0    0  0.00000000000E+00  0.00000000000E+00  0.45593999997E+02  0.45594000000E+02  0.51100000000E-03 0.  1.
         11   -1    0    0    0    0 -0.00000000000E+00 -0.00000000000E+00 -0.45593999997E+02  0.45594000000E+02  0.51100000000E-03 0. -1.
    9900012    2    1    2    0    0  0.26235873531E+02 -0.29340129938E+02  0.10198136460E+02  0.50528852543E+02  0.29999977789E+02 0.  0.
         12    1    1    2    0    0 -0.26235873531E+02  0.29340129938E+02 -0.10198136460E+02  0.40659147457E+02  0.00000000000E+00 0. -1.
         11    1    3    3    0    0 -0.58643422294E+01 -0.71014519185E+01  0.44364562441E+01  0.10222684256E+02  0.51100000000E-03 0. -1.
        -11    1    3    3    0    0  0.18920215957E+02 -0.17776315926E+02  0.43002301668E+01  0.26314709945E+02  0.51100000000E-03 0.  1.
         12    1    3    3    0    0  0.13179999803E+02 -0.44623620935E+01  0.14614500488E+01  0.13991458341E+02  0.00000000000E+00 0. -1.
</event>
<event>
 7    1  0.3041451E-011  0.5052886E+02  0.7816164E-02  0.1300439E+00
        -11   -1    0    0    0    0  0.00000000000E+00  0.00000000000E+00  0.45593999997E+02  0.45594000000E+02  0.51100000000E-03 0.  1.
         11   -1    0    0    0    0 -0.00000000000E+00 -0.00000000000E+00 -0.45593999997E+02  0.45594000000E+02  0.51100000000E-03 0. -1.
    9900012    2    1    2    0    0  0.24955200141E+02  0.15190121237E+02  0.28278328108E+02  0.50528860340E+02  0.30000001490E+02 0.  0.
         12    1    1    2    0    0 -0.24955200141E+02 -0.15190121237E+02 -0.28278328108E+02  0.40659139660E+02  0.00000000000E+00 0. -1.
         11    1    3    3    0    0  0.72362457212E+01  0.10085371813E+02 -0.14261678921E+01  0.12494476054E+02  0.51100000000E-03 0. -1.
        -11    1    3    3    0    0  0.12016421510E+02 -0.37163056514E+01  0.11637077845E+02  0.17135544773E+02  0.51100000000E-03 0.  1.
         12    1    3    3    0    0  0.57025329097E+01  0.88210550753E+01  0.18067418155E+02  0.20898839514E+02  0.00000000000E+00 0. -1.
</event>
<event>
 7    1  0.3041451E-011  0.5052886E+02  0.7816164E-02  0.1300439E+00
        -11   -1    0    0    0    0  0.00000000000E+00  0.00000000000E+00  0.45593999997E+02  0.45594000000E+02  0.51100000000E-03 0. -1.
         11   -1    0    0    0    0 -0.00000000000E+00 -0.00000000000E+00 -0.45593999997E+02  0.45594000000E+02  0.51100000000E-03 0.  1.
    9900012    2    1    2    0    0 -0.31265805523E+02 -0.24452722678E+02  0.88135831743E+01  0.50528862162E+02  0.30000007027E+02 0.  0.
         12    1    1    2    0    0  0.31265805523E+02  0.24452722678E+02 -0.88135831743E+01  0.40659137838E+02  0.00000000000E+00 0. -1.
         11    1    3    3    0    0 -0.53517585227E+01  0.98543214647E+00  0.19491161369E+01  0.57802638155E+01  0.51100000000E-03 0. -1.
        -11    1    3    3    0    0 -0.13964684785E+02 -0.21546348623E+02  0.15039533063E+02  0.29756429811E+02  0.51100000000E-03 0.  1.
        -12    1    3    3    0    0 -0.11949362215E+02 -0.38918062022E+01 -0.81750660254E+01  0.14992168535E+02  0.00000000000E+00 0.  1.
</event>
<event>
 7    1  0.3041451E-011  0.5052885E+02  0.7816164E-02  0.1300439E+00
        -11   -1    0    0    0    0  0.00000000000E+00  0.00000000000E+00  0.45593999997E+02  0.45594000000E+02  0.51100000000E-03 0. -1.
         11   -1    0    0    0    0 -0.00000000000E+00 -0.00000000000E+00 -0.45593999997E+02  0.45594000000E+02  0.51100000000E-03 0.  1.
    9900012    2    1    2    0    0  0.21915517826E+02  0.14072214143E+02 -0.31222574570E+02  0.50528852256E+02  0.29999976917E+02 0.  0.
         12    1    1    2    0    0 -0.21915517826E+02 -0.14072214143E+02  0.31222574570E+02  0.40659147744E+02  0.00000000000E+00 0. -1.
         11    1    3    3    0    0  0.18592696826E+02  0.26223388877E+01 -0.68392981154E+01  0.19983519097E+02  0.51100000000E-03 0. -1.
        -11    1    3    3    0    0  0.41711685730E+01  0.10809615043E+02 -0.78898759740E+01  0.14017723345E+02  0.51100000000E-03 0.  1.
         12    1    3    3    0    0 -0.84834757303E+00  0.64026021293E+00 -0.16493400481E+02  0.16527609814E+02  0.00000000000E+00 0. -1.
</event>
<event>
 7    1  0.3041451E-011  0.5052886E+02  0.7816164E-02  0.1300439E+00
        -11   -1    0    0    0    0  0.00000000000E+00  0.00000000000E+00  0.45593999997E+02  0.45594000000E+02  0.51100000000E-03 0.  1.
         11   -1    0    0    0    0 -0.00000000000E+00 -0.00000000000E+00 -0.45593999997E+02  0.45594000000E+02  0.51100000000E-03 0. -1.
    9900012    2    1    2    0    0 -0.20719372742E+02  0.22466217955E+02  0.26816831473E+02  0.50528858269E+02  0.29999995194E+02 0.  0.
         12    1    1    2    0    0  0.20719372742E+02 -0.22466217955E+02 -0.26816831473E+02  0.40659141731E+02  0.00000000000E+00 0. -1.
         11    1    3    3    0    0 -0.97478141411E+01  0.18829943578E+02  0.30476666601E+02  0.37126996418E+02  0.51100000000E-03 0. -1.
        -11    1    3    3    0    0 -0.97249887592E+01  0.49086666457E+01 -0.22342171112E+01  0.11120348060E+02  0.51100000000E-03 0.  1.
         12    1    3    3    0    0 -0.12465698415E+01 -0.12723922679E+01 -0.14256180161E+01  0.22815137915E+01  0.00000000000E+00 0. -1.
</event>
<event>
 7    1  0.3041451E-011  0.5052884E+02  0.7816164E-02  0.1300439E+00
        -11   -1    0    0    0    0  0.00000000000E+00  0.00000000000E+00  0.45593999997E+02  0.45594000000E+02  0.51100000000E-03 0.  1.
         11   -1    0    0    0    0 -0.00000000000E+00 -0.00000000000E+00 -0.45593999997E+02  0.45594000000E+02  0.51100000000E-03 0. -1.
    9900012    2    1    2    0    0  0.45196093312E+01  0.23345860545E+01  0.40339684719E+02  0.50528839608E+02  0.29999938473E+02 0.  0.
         12    1    1    2    0    0 -0.45196093312E+01 -0.23345860545E+01 -0.40339684719E+02  0.40659160392E+02  0.00000000000E+00 0. -1.
         11    1    3    3    0    0  0.76221506267E+01  0.61298285526E+01  0.31797746110E+01  0.10285083621E+02  0.51100000000E-03 0. -1.
        -11    1    3    3    0    0 -0.31476256081E+00  0.18947122461E+01  0.32040071659E+02  0.32097588728E+02  0.51100000000E-03 0.  1.
        -12    1    3    3    0    0 -0.27877787347E+01 -0.56899547442E+01  0.51198384485E+01  0.81461672585E+01  0.00000000000E+00 0.  1.
</event>
<event>
 7    1  0.3041451E-011  0.5052886E+02  0.7816164E-02  0.1300439E+00
        -11   -1    0    0    0    0  0.00000000000E+00  0.00000000000E+00  0.45593999997E+02  0.45594000000E+02  0.51100000000E-03 0.  1.
         11   -1    0    0    0    0 -0.00000000000E+00 -0.00000000000E+00 -0.45593999997E+02  0.45594000000E+02  0.51100000000E-03 0. -1.
    9900012    2    1    2    0    0 -0.20532571203E+02  0.99937303477E+01  0.33640815970E+02  0.50528860491E+02  0.30000001949E+02 0.  0.
         12    1    1    2    0    0  0.20532571203E+02 -0.99937303477E+01 -0.33640815970E+02  0.40659139509E+02  0.00000000000E+00 0. -1.
         11    1    3    3    0    0  0.34908458514E+01 -0.48830812314E+01  0.77922719767E+01  0.98361572726E+01  0.51100000000E-03 0. -1.
        -11    1    3    3    0    0 -0.10861399346E+02  0.12587473809E+02  0.20267344073E+02  0.26214113159E+02  0.51100000000E-03 0.  1.
        -12    1    3    3    0    0 -0.13162017708E+02  0.22893377696E+01  0.55811999200E+01  0.14478590060E+02  0.00000000000E+00 0.  1.
</event>
<event>
 7    1  0.3041451E-011  0.5052885E+02  0.7816164E-02  0.1300439E+00
        -11   -1    0    0    0    0  0.00000000000E+00  0.00000000000E+00  0.45593999997E+02  0.45594000000E+02  0.51100000000E-03 0.  1.
         11   -1    0    0    0    0 -0.00000000000E+00 -0.00000000000E+00 -0.45593999997E+02  0.45594000000E+02  0.51100000000E-03 0. -1.
    9900012    2    1    2    0    0 -0.38477421437E+02  0.25426073715E+01  0.12891442656E+02  0.50528854579E+02  0.29999983977E+02 0.  0.
         12    1    1    2    0    0  0.38477421437E+02 -0.25426073715E+01 -0.12891442656E+02  0.40659145421E+02  0.00000000000E+00 0. -1.
         11    1    3    3    0    0 -0.14231759387E+02 -0.68383873682E+01  0.17956907971E+02  0.23911442056E+02  0.51100000000E-03 0. -1.
        -11    1    3    3    0    0 -0.11559513003E+02  0.30650130823E+01 -0.24055160351E+01  0.12198489813E+02  0.51100000000E-03 0.  1.
         12    1    3    3    0    0 -0.12686149046E+02  0.63159816573E+01 -0.26599492806E+01  0.14418922709E+02  0.00000000000E+00 0. -1.
</event>
<event>
 7    1  0.3041451E-011  0.5052885E+02  0.7816164E-02  0.1300439E+00
        -11   -1    0    0    0    0  0.00000000000E+00  0.00000000000E+00  0.45593999997E+02  0.45594000000E+02  0.51100000000E-03 0.  1.
         11   -1    0    0    0    0 -0.00000000000E+00 -0.00000000000E+00 -0.45593999997E+02  0.45594000000E+02  0.51100000000E-03 0. -1.
    9900012    2    1    2    0    0 -0.85895810495E+01  0.23400810572E+02  0.32121447266E+02  0.50528853273E+02  0.29999980010E+02 0.  0.
         12    1    1    2    0    0  0.85895810495E+01 -0.23400810572E+02 -0.32121447266E+02  0.40659146727E+02  0.00000000000E+00 0. -1.
         11    1    3    3    0    0  0.52078329221E+00  0.13767236419E+02  0.67927114974E+01  0.15360629661E+02  0.51100000000E-03 0. -1.
        -11    1    3    3    0    0 -0.15661969672E+02  0.69264650681E+01  0.15870870336E+02  0.23348613188E+02  0.51100000000E-03 0.  1.
        -12    1    3    3    0    0  0.65516053306E+01  0.27071090855E+01  0.94578654334E+01  0.11819610424E+02  0.00000000000E+00 0.  1.
</event>
<event>
 7    1  0.3041451E-011  0.5052886E+02  0.7816164E-02  0.1300439E+00
        -11   -1    0    0    0    0  0.00000000000E+00  0.00000000000E+00  0.45593999997E+02  0.45594000000E+02  0.51100000000E-03 0.  1.
         11   -1    0    0    0    0 -0.00000000000E+00 -0.00000000000E+00 -0.45593999997E+02  0.45594000000E+02  0.51100000000E-03 0. -1.
    9900012    2    1    2    0    0 -0.29607783065E+01 -0.39053469205E+02 -0.10919053318E+02  0.50528863382E+02  0.30000010736E+02 0.  0.
         12    1    1    2    0    0  0.29607783065E+01  0.39053469205E+02  0.10919053318E+02  0.40659136618E+02  0.00000000000E+00 0. -1.
         11    1    3    3    0    0 -0.68488309067E+00 -0.26171014296E+00 -0.57205244308E+01  0.57673180137E+01  0.51100000000E-03 0. -1.
        -11    1    3    3    0    0  0.87498639321E+00 -0.33949923762E+02  0.36896316548E+01  0.34161034918E+02  0.51100000000E-03 0.  1.
        -12    1    3    3    0    0 -0.31508816090E+01 -0.48418353004E+01 -0.88881605424E+01  0.10600510451E+02  0.00000000000E+00 0.  1.
</event>
<event>
 7    1  0.3436801E-011  0.5052887E+02  0.7816164E-02  0.1300439E+00
        -11   -1    0    0    0    0  0.00000000000E+00  0.00000000000E+00  0.45593999997E+02  0.45594000000E+02  0.51100000000E-03 0. -1.
         11   -1    0    0    0    0 -0.00000000000E+00 -0.00000000000E+00 -0.45593999997E+02  0.45594000000E+02  0.51100000000E-03 0.  1.
    9900012    2    1    2    0    0 -0.14832841495E+02  0.63191251466E+01 -0.37325868133E+02  0.50528868660E+02  0.30000026780E+02 0.  0.
         12    1    1    2    0    0  0.14832841495E+02 -0.63191251466E+01  0.37325868133E+02  0.40659131340E+02  0.00000000000E+00 0. -1.
         11    1    3    3    0    0  0.39867658262E+01  0.52579919978E+01 -0.16300761346E+02  0.17585664682E+02  0.51100000000E-03 0. -1.
        -11    1    3    3    0    0 -0.14463953013E+02 -0.63937088225E+01 -0.17582810560E+02  0.23648270058E+02  0.51100000000E-03 0.  1.
         12    1    3    3    0    0 -0.43556543082E+01  0.74548419713E+01 -0.34422962267E+01  0.92949339203E+01  0.00000000000E+00 0. -1.
</event>
<event>
 7    1  0.3041451E-011  0.5052884E+02  0.7816164E-02  0.1300439E+00
        -11   -1    0    0    0    0  0.00000000000E+00  0.00000000000E+00  0.45593999997E+02  0.45594000000E+02  0.51100000000E-03 0.  1.
         11   -1    0    0    0    0 -0.00000000000E+00 -0.00000000000E+00 -0.45593999997E+02  0.45594000000E+02  0.51100000000E-03 0. -1.
    9900012    2    1    2    0    0  0.17157810908E+02 -0.16756315013E+02  0.32832949114E+02  0.50528842170E+02  0.29999946258E+02 0.  0.
         12    1    1    2    0    0 -0.17157810908E+02  0.16756315013E+02 -0.32832949114E+02  0.40659157830E+02  0.00000000000E+00 0. -1.
         11    1    3    3    0    0  0.18720620230E+02 -0.14732666091E+02  0.11941929250E+02  0.26648128385E+02  0.51100000000E-03 0. -1.
        -11    1    3    3    0    0  0.27458617954E+01 -0.29395783632E+01  0.18370230469E+02  0.18805484458E+02  0.51100000000E-03 0.  1.
         12    1    3    3    0    0 -0.43086711181E+01  0.91592944043E+00  0.25207893952E+01  0.50752293267E+01  0.00000000000E+00 0. -1.
</event>
<event>
 7    1  0.3041451E-011  0.5052886E+02  0.7816164E-02  0.1300439E+00
        -11   -1    0    0    0    0  0.00000000000E+00  0.00000000000E+00  0.45593999997E+02  0.45594000000E+02  0.51100000000E-03 0.  1.
         11   -1    0    0    0    0 -0.00000000000E+00 -0.00000000000E+00 -0.45593999997E+02  0.45594000000E+02  0.51100000000E-03 0. -1.
    9900012    2    1    2    0    0 -0.10381934312E+01  0.11835169696E+02  0.38884652222E+02  0.50528864916E+02  0.30000015398E+02 0.  0.
         12    1    1    2    0    0  0.10381934312E+01 -0.11835169696E+02 -0.38884652222E+02  0.40659135084E+02  0.00000000000E+00 0. -1.
         11    1    3    3    0    0  0.55874438591E+01  0.38791217973E+01  0.45054420707E+00  0.68168984987E+01  0.51100000000E-03 0. -1.
        -11    1    3    3    0    0 -0.39976408124E+01  0.99970461801E+01  0.38890493852E+02  0.40353346536E+02  0.51100000000E-03 0.  1.
        -12    1    3    3    0    0 -0.26279964779E+01 -0.20409982809E+01 -0.45638583654E+00  0.33586198806E+01  0.00000000000E+00 0.  1.
</event>
<event>
 7    1  0.3041451E-011  0.5052886E+02  0.7816164E-02  0.1300439E+00
        -11   -1    0    0    0    0  0.00000000000E+00  0.00000000000E+00  0.45593999997E+02  0.45594000000E+02  0.51100000000E-03 0. -1.
         11   -1    0    0    0    0 -0.00000000000E+00 -0.00000000000E+00 -0.45593999997E+02  0.45594000000E+02  0.51100000000E-03 0.  1.
    9900012    2    1    2    0    0 -0.60381368077E+01  0.15870123528E+02 -0.36943817902E+02  0.50528860830E+02  0.30000002979E+02 0.  0.
         12    1    1    2    0    0  0.60381368077E+01 -0.15870123528E+02  0.36943817902E+02  0.40659139170E+02  0.00000000000E+00 0. -1.
         11    1    3    3    0    0 -0.64580089997E+01  0.17418070747E+02 -0.10925821579E+02  0.21551534661E+02  0.51100000000E-03 0. -1.
        -11    1    3    3    0    0 -0.58881210585E+01 -0.62523414743E+00 -0.16420046461E+02  0.17455051228E+02  0.51100000000E-03 0.  1.
         12    1    3    3    0    0  0.63079932505E+01 -0.92271307220E+00 -0.95979498626E+01  0.11522274941E+02  0.00000000000E+00 0. -1.
</event>
<event>
 7    1  0.3041451E-011  0.5052886E+02  0.7816164E-02  0.1300439E+00
        -11   -1    0    0    0    0  0.00000000000E+00  0.00000000000E+00  0.45593999997E+02  0.45594000000E+02  0.51100000000E-03 0. -1.
         11   -1    0    0    0    0 -0.00000000000E+00 -0.00000000000E+00 -0.45593999997E+02  0.45594000000E+02  0.51100000000E-03 0.  1.
    9900012    2    1    2    0    0 -0.40001185543E+02  0.11409473968E+01 -0.71950576657E+01  0.50528862520E+02  0.30000008117E+02 0.  0.
         12    1    1    2    0    0  0.40001185543E+02 -0.11409473968E+01  0.71950576657E+01  0.40659137480E+02  0.00000000000E+00 0. -1.
         11    1    3    3    0    0 -0.15187088938E+02 -0.28015716937E+01 -0.94213884913E+01  0.18090302257E+02  0.51100000000E-03 0. -1.
        -11    1    3    3    0    0 -0.67207553129E+01 -0.10804485154E+01  0.10015296202E+02  0.12109586254E+02  0.51100000000E-03 0.  1.
        -12    1    3    3    0    0 -0.18093341292E+02  0.50229676059E+01 -0.77889653761E+01  0.20328974010E+02  0.00000000000E+00 0.  1.
</event>
<event>
 7    1  0.3041451E-011  0.5052886E+02  0.7816164E-02  0.1300439E+00
        -11   -1    0    0    0    0  0.00000000000E+00  0.00000000000E+00  0.45593999997E+02  0.45594000000E+02  0.51100000000E-03 0.  1.
         11   -1    0    0    0    0 -0.00000000000E+00 -0.00000000000E+00 -0.45593999997E+02  0.45594000000E+02  0.51100000000E-03 0. -1.
    9900012    2    1    2    0    0  0.18478818949E+02  0.54129142318E+01  0.35810600283E+02  0.50528862246E+02  0.30000007283E+02 0.  0.
         12    1    1    2    0    0 -0.18478818949E+02 -0.54129142318E+01 -0.35810600283E+02  0.40659137754E+02  0.00000000000E+00 0. -1.
         11    1    3    3    0    0  0.56184830497E+00  0.11413617593E+02  0.72566143492E+01  0.13536794013E+02  0.51100000000E-03 0. -1.
        -11    1    3    3    0    0  0.11119652270E+02 -0.27836988184E+01  0.54450735076E+01  0.12690329842E+02  0.51100000000E-03 0.  1.
         12    1    3    3    0    0  0.67973183741E+01 -0.32170045432E+01  0.23108912426E+02  0.24301738391E+02  0.00000000000E+00 0. -1.
</event>
<event>
 7    1  0.3041451E-011  0.5052887E+02  0.7816164E-02  0.1300439E+00
        -11   -1    0    0    0    0  0.00000000000E+00  0.00000000000E+00  0.45593999997E+02  0.45594000000E+02  0.51100000000E-03 0.  1.
         11   -1    0    0    0    0 -0.00000000000E+00 -0.00000000000E+00 -0.45593999997E+02  0.45594000000E+02  0.51100000000E-03 0. -1.
    9900012    2    1    2    0    0 -0.24947891838E+02 -0.98555375981E+01  0.30555450146E+02  0.50528874799E+02  0.30000045439E+02 0.  0.
         12    1    1    2    0    0  0.24947891838E+02  0.98555375981E+01 -0.30555450146E+02  0.40659125201E+02  0.00000000000E+00 0. -1.
         11    1    3    3    0    0 -0.12093261994E-01 -0.10174103663E+02  0.19666142487E+02  0.22142034508E+02  0.51100000000E-03 0. -1.
        -11    1    3    3    0    0 -0.14016326396E+02  0.29548664425E+01  0.29335670337E+01  0.14621711840E+02  0.51100000000E-03 0.  1.
         12    1    3    3    0    0 -0.10919472180E+02 -0.26363003779E+01  0.79557406253E+01  0.13765128451E+02  0.00000000000E+00 0. -1.
</event>
<event>
 7    1  0.3041451E-011  0.5052886E+02  0.7816164E-02  0.1300439E+00
        -11   -1    0    0    0    0  0.00000000000E+00  0.00000000000E+00  0.45593999997E+02  0.45594000000E+02  0.51100000000E-03 0.  1.
         11   -1    0    0    0    0 -0.00000000000E+00 -0.00000000000E+00 -0.45593999997E+02  0.45594000000E+02  0.51100000000E-03 0. -1.
    9900012    2    1    2    0    0 -0.28869824393E+01  0.20155986692E+02  0.35193285793E+02  0.50528857952E+02  0.29999994231E+02 0.  0.
         12    1    1    2    0    0  0.28869824393E+01 -0.20155986692E+02 -0.35193285793E+02  0.40659142048E+02  0.00000000000E+00 0. -1.
         11    1    3    3    0    0  0.91143237024E+01  0.22674594340E+00  0.48074023500E+01  0.10306960167E+02  0.51100000000E-03 0. -1.
        -11    1    3    3    0    0 -0.89243581834E+01  0.97790810469E+01  0.80466789607E+01  0.15492696268E+02  0.51100000000E-03 0.  1.
         12    1    3    3    0    0 -0.30769479583E+01  0.10150159702E+02  0.22339204483E+02  0.24729201516E+02  0.00000000000E+00 0. -1.
</event>
<event>
 7    1  0.3041451E-011  0.5052889E+02  0.7816164E-02  0.1300439E+00
        -11   -1    0    0    0    0  0.00000000000E+00  0.00000000000E+00  0.45593999997E+02  0.45594000000E+02  0.51100000000E-03 0. -1.
         11   -1    0    0    0    0 -0.00000000000E+00 -0.00000000000E+00 -0.45593999997E+02  0.45594000000E+02  0.51100000000E-03 0.  1.
    9900012    2    1    2    0    0  0.20437893716E+00  0.39404262486E+02 -0.10021246066E+02  0.50528892219E+02  0.30000098390E+02 0.  0.
         12    1    1    2    0    0 -0.20437893716E+00 -0.39404262486E+02  0.10021246066E+02  0.40659107781E+02  0.00000000000E+00 0. -1.
         11    1    3    3    0    0 -0.10454109592E+01  0.16635740838E+02 -0.18732347807E+02  0.25074720575E+02  0.51100000000E-03 0. -1.
        -11    1    3    3    0    0  0.13608742913E+01  0.21612247002E+02  0.59483584976E+01  0.22457162964E+02  0.51100000000E-03 0.  1.
         12    1    3    3    0    0 -0.11108439500E+00  0.11562746452E+01  0.27627432436E+01  0.29970086800E+01  0.00000000000E+00 0. -1.
</event>
<event>
 7    1  0.3041451E-011  0.5052886E+02  0.7816164E-02  0.1300439E+00
        -11   -1    0    0    0    0  0.00000000000E+00  0.00000000000E+00  0.45593999997E+02  0.45594000000E+02  0.51100000000E-03 0.  1.
         11   -1    0    0    0    0 -0.00000000000E+00 -0.00000000000E+00 -0.45593999997E+02  0.45594000000E+02  0.51100000000E-03 0. -1.
    9900012    2    1    2    0    0 -0.20061114889E+02  0.32589113864E+02  0.13735604456E+02  0.50528862001E+02  0.30000006539E+02 0.  0.
         12    1    1    2    0    0  0.20061114889E+02 -0.32589113864E+02 -0.13735604456E+02  0.40659137999E+02  0.00000000000E+00 0. -1.
         11    1    3    3    0    0 -0.53064844174E+01  0.92065406156E+01  0.14722654350E+02  0.18156974372E+02  0.51100000000E-03 0. -1.
        -11    1    3    3    0    0 -0.10886534841E+02  0.23643167896E+02 -0.53099226997E+01  0.26565227429E+02  0.51100000000E-03 0.  1.
         12    1    3    3    0    0 -0.38680956308E+01 -0.26059464843E+00  0.43228728058E+01  0.58066601997E+01  0.00000000000E+00 0. -1.
</event>
<event>
 7    1  0.3041451E-011  0.5052885E+02  0.7816164E-02  0.1300439E+00
        -11   -1    0    0    0    0  0.00000000000E+00  0.00000000000E+00  0.45593999997E+02  0.45594000000E+02  0.51100000000E-03 0. -1.
         11   -1    0    0    0    0 -0.00000000000E+00 -0.00000000000E+00 -0.45593999997E+02  0.45594000000E+02  0.51100000000E-03 0.  1.
    9900012    2    1    2    0    0 -0.26154822504E+02 -0.15956958056E+02 -0.26729515268E+02  0.50528852971E+02  0.29999979092E+02 0.  0.
         12    1    1    2    0    0  0.26154822504E+02  0.15956958056E+02  0.26729515268E+02  0.40659147029E+02  0.00000000000E+00 0. -1.
         11    1    3    3    0    0 -0.16070605870E+02 -0.19145372390E+01 -0.80619771204E-02  0.16184248241E+02  0.51100000000E-03 0. -1.
        -11    1    3    3    0    0 -0.88576080494E+01 -0.93802557835E+01 -0.26552444222E+02  0.29520818304E+02  0.51100000000E-03 0.  1.
        -12    1    3    3    0    0 -0.12266085842E+01 -0.46621650335E+01 -0.16900906895E+00  0.48237864260E+01  0.00000000000E+00 0.  1.
</event>
<event>
 7    1  0.3041451E-011  0.5052886E+02  0.7816164E-02  0.1300439E+00
        -11   -1    0    0    0    0  0.00000000000E+00  0.00000000000E+00  0.45593999997E+02  0.45594000000E+02  0.51100000000E-03 0. -1.
         11   -1    0    0    0    0 -0.00000000000E+00 -0.00000000000E+00 -0.45593999997E+02  0.45594000000E+02  0.51100000000E-03 0.  1.
    9900012    2    1    2    0    0 -0.27658215331E+02  0.11804084010E+02 -0.27365162864E+02  0.50528863103E+02  0.30000009889E+02 0.  0.
         12    1    1    2    0    0  0.27658215331E+02 -0.11804084010E+02  0.27365162864E+02  0.40659136897E+02  0.00000000000E+00 0. -1.
         11    1    3    3    0    0  0.54522789144E+01  0.44354853240E+01 -0.28700139286E+01  0.75919599335E+01  0.51100000000E-03 0. -1.
        -11    1    3    3    0    0 -0.16900869727E+02  0.94457944420E-01 -0.15881492562E+02  0.23192027210E+02  0.51100000000E-03 0.  1.
         12    1    3    3    0    0 -0.16209624518E+02  0.72741407415E+01 -0.86136563728E+01  0.19744875960E+02  0.00000000000E+00 0. -1.
</event>
<event>
 7    1  0.3041451E-011  0.5052886E+02  0.7816164E-02  0.1300439E+00
        -11   -1    0    0    0    0  0.00000000000E+00  0.00000000000E+00  0.45593999997E+02  0.45594000000E+02  0.51100000000E-03 0.  1.
         11   -1    0    0    0    0 -0.00000000000E+00 -0.00000000000E+00 -0.45593999997E+02  0.45594000000E+02  0.51100000000E-03 0. -1.
    9900012    2    1    2    0    0  0.39881138784E+02  0.78311557192E+01  0.11548102823E+01  0.50528858133E+02  0.29999994780E+02 0.  0.
         12    1    1    2    0    0 -0.39881138784E+02 -0.78311557192E+01 -0.11548102823E+01  0.40659141867E+02  0.00000000000E+00 0. -1.
         11    1    3    3    0    0 -0.61003461873E+00  0.44184956494E+01 -0.68121941188E+01  0.81425570316E+01  0.51100000000E-03 0. -1.
        -11    1    3    3    0    0  0.23643424833E+02  0.59983794283E+01  0.26751441373E+01  0.24538714107E+02  0.51100000000E-03 0.  1.
         12    1    3    3    0    0  0.16847748569E+02 -0.25857193585E+01  0.52918602637E+01  0.17847586994E+02  0.00000000000E+00 0. -1.
</event>
<event>
 7    1  0.3041451E-011  0.5052882E+02  0.7816164E-02  0.1300439E+00
        -11   -1    0    0    0    0  0.00000000000E+00  0.00000000000E+00  0.45593999997E+02  0.45594000000E+02  0.51100000000E-03 0.  1.
         11   -1    0    0    0    0 -0.00000000000E+00 -0.00000000000E+00 -0.45593999997E+02  0.45594000000E+02  0.51100000000E-03 0. -1.
    9900012    2    1    2    0    0  0.14449348131E+02  0.19908446914E+02  0.32373427396E+02  0.50528822423E+02  0.29999886235E+02 0.  0.
         12    1    1    2    0    0 -0.14449348131E+02 -0.19908446914E+02 -0.32373427396E+02  0.40659177577E+02  0.00000000000E+00 0. -1.
         11    1    3    3    0    0 -0.39087813886E+01  0.70592948732E+01  0.15299137692E+02  0.17296699987E+02  0.51100000000E-03 0. -1.
        -11    1    3    3    0    0  0.20159941852E+02  0.57054382786E+01  0.14266656738E+02  0.25347835730E+02  0.51100000000E-03 0.  1.
         12    1    3    3    0    0 -0.18018123328E+01  0.71437137620E+01  0.28076329654E+01  0.78842867061E+01  0.00000000000E+00 0. -1.
</event>
<event>
 7    1  0.3041451E-011  0.5052885E+02  0.7816164E-02  0.1300439E+00
        -11   -1    0    0    0    0  0.00000000000E+00  0.00000000000E+00  0.45593999997E+02  0.45594000000E+02  0.51100000000E-03 0.  1.
         11   -1    0    0    0    0 -0.00000000000E+00 -0.00000000000E+00 -0.45593999997E+02  0.45594000000E+02  0.51100000000E-03 0. -1.
    9900012    2    1    2    0    0  0.22682160156E+02 -0.57136554936E+01  0.33257180041E+02  0.50528852534E+02  0.29999977761E+02 0.  0.
         12    1    1    2    0    0 -0.22682160156E+02  0.57136554936E+01 -0.33257180041E+02  0.40659147466E+02  0.00000000000E+00 0. -1.
         11    1    3    3    0    0  0.46828001963E+01 -0.49504562218E+01  0.10545146983E+02  0.12555308026E+02  0.51100000000E-03 0. -1.
        -11    1    3    3    0    0  0.17050580318E+02  0.11022524181E+01  0.20533382615E+01  0.17209109444E+02  0.51100000000E-03 0.  1.
        -12    1    3    3    0    0  0.94877964137E+00 -0.18654516899E+01  0.20658694797E+02  0.20764435064E+02  0.00000000000E+00 0.  1.
</event>
<event>
 7    1  0.3041451E-011  0.5052886E+02  0.7816164E-02  0.1300439E+00
        -11   -1    0    0    0    0  0.00000000000E+00  0.00000000000E+00  0.45593999997E+02  0.45594000000E+02  0.51100000000E-03 0.  1.
         11   -1    0    0    0    0 -0.00000000000E+00 -0.00000000000E+00 -0.45593999997E+02  0.45594000000E+02  0.51100000000E-03 0. -1.
    9900012    2    1    2    0    0  0.12941981660E+02 -0.37687009907E+02  0.80845689450E+01  0.50528857609E+02  0.29999993187E+02 0.  0.
         12    1    1    2    0    0 -0.12941981660E+02  0.37687009907E+02 -0.80845689450E+01  0.40659142391E+02  0.00000000000E+00 0. -1.
         11    1    3    3    0    0  0.29324494023E+01 -0.27418681069E+02  0.10359072240E+02  0.29456641169E+02  0.51100000000E-03 0. -1.
        -11    1    3    3    0    0  0.38740534070E+01  0.36759611908E+01 -0.23571919170E+01  0.58375795045E+01  0.51100000000E-03 0.  1.
        -12    1    3    3    0    0  0.61354788505E+01 -0.13944290029E+02  0.82688622466E-01  0.15234636935E+02  0.00000000000E+00 0.  1.
</event>
<event>
 7    1  0.3041451E-011  0.5052886E+02  0.7816164E-02  0.1300439E+00
        -11   -1    0    0    0    0  0.00000000000E+00  0.00000000000E+00  0.45593999997E+02  0.45594000000E+02  0.51100000000E-03 0.  1.
         11   -1    0    0    0    0 -0.00000000000E+00 -0.00000000000E+00 -0.45593999997E+02  0.45594000000E+02  0.51100000000E-03 0. -1.
    9900012    2    1    2    0    0 -0.40626267608E+02  0.15763334781E+01  0.43225349792E+00  0.50528864617E+02  0.30000014490E+02 0.  0.
         12    1    1    2    0    0  0.40626267608E+02 -0.15763334781E+01 -0.43225349792E+00  0.40659135383E+02  0.00000000000E+00 0. -1.
         11    1    3    3    0    0 -0.21465327952E+02  0.30624533055E+01  0.14445400237E+02  0.26053953877E+02  0.51100000000E-03 0. -1.
        -11    1    3    3    0    0 -0.10273625790E+02  0.12059592115E+00 -0.40934463160E+01  0.11059757378E+02  0.51100000000E-03 0.  1.
         12    1    3    3    0    0 -0.88873138657E+01 -0.16067157485E+01 -0.99197004234E+01  0.13415153362E+02  0.00000000000E+00 0. -1.
</event>
<event>
 7    1  0.3041451E-011  0.5052886E+02  0.7816164E-02  0.1300439E+00
        -11   -1    0    0    0    0  0.00000000000E+00  0.00000000000E+00  0.45593999997E+02  0.45594000000E+02  0.51100000000E-03 0. -1.
         11   -1    0    0    0    0 -0.00000000000E+00 -0.00000000000E+00 -0.45593999997E+02  0.45594000000E+02  0.51100000000E-03 0.  1.
    9900012    2    1    2    0    0 -0.22763278417E+02 -0.27237622555E+02 -0.19827021672E+02  0.50528859390E+02  0.29999998602E+02 0.  0.
         12    1    1    2    0    0  0.22763278417E+02  0.27237622555E+02  0.19827021672E+02  0.40659140610E+02  0.00000000000E+00 0. -1.
         11    1    3    3    0    0 -0.54736202676E+01 -0.30807966101E+01  0.73197620672E+00  0.63235762045E+01  0.51100000000E-03 0. -1.
        -11    1    3    3    0    0 -0.98071356506E+01 -0.28429571406E+02 -0.18626641336E+02  0.35374739684E+02  0.51100000000E-03 0.  1.
        -12    1    3    3    0    0 -0.74825224992E+01  0.42727454606E+01 -0.19323565424E+01  0.88305435014E+01  0.00000000000E+00 0.  1.
</event>
<event>
 7    1  0.3041451E-011  0.5052886E+02  0.7816164E-02  0.1300439E+00
        -11   -1    0    0    0    0  0.00000000000E+00  0.00000000000E+00  0.45593999997E+02  0.45594000000E+02  0.51100000000E-03 0.  1.
         11   -1    0    0    0    0 -0.00000000000E+00 -0.00000000000E+00 -0.45593999997E+02  0.45594000000E+02  0.51100000000E-03 0. -1.
    9900012    2    1    2    0    0 -0.10447239341E+02  0.75340827123E+01  0.38564992233E+02  0.50528857878E+02  0.29999994005E+02 0.  0.
         12    1    1    2    0    0  0.10447239341E+02 -0.75340827123E+01 -0.38564992233E+02  0.40659142122E+02  0.00000000000E+00 0. -1.
         11    1    3    3    0    0  0.88115503429E+01  0.75753774103E+00  0.14211491559E+02  0.16738690973E+02  0.51100000000E-03 0. -1.
        -11    1    3    3    0    0 -0.19919874779E+02  0.63928592986E+01  0.18622285125E+02  0.28008205311E+02  0.51100000000E-03 0.  1.
        -12    1    3    3    0    0  0.66108509528E+00  0.38368567266E+00  0.57312155494E+01  0.57819615938E+01  0.00000000000E+00 0.  1.
</event>
<event>
 7    1  0.3041451E-011  0.5052886E+02  0.7816164E-02  0.1300439E+00
        -11   -1    0    0    0    0  0.00000000000E+00  0.00000000000E+00  0.45593999997E+02  0.45594000000E+02  0.51100000000E-03 0. -1.
         11   -1    0    0    0    0 -0.00000000000E+00 -0.00000000000E+00 -0.45593999997E+02  0.45594000000E+02  0.51100000000E-03 0.  1.
    9900012    2    1    2    0    0 -0.71355207607E+01 -0.39993031271E+02 -0.16754362119E+01  0.50528864578E+02  0.30000014372E+02 0.  0.
         12    1    1    2    0    0  0.71355207607E+01  0.39993031271E+02  0.16754362119E+01  0.40659135422E+02  0.00000000000E+00 0. -1.
         11    1    3    3    0    0 -0.13737753454E+01 -0.11278738730E+01 -0.90854332189E+01  0.92576700746E+01  0.51100000000E-03 0. -1.
        -11    1    3    3    0    0 -0.11571946615E+01 -0.33330814152E+02  0.68737826953E+01  0.34051889232E+02  0.51100000000E-03 0.  1.
         12    1    3    3    0    0 -0.46045507538E+01 -0.55343432462E+01  0.53621431173E+00  0.72193052712E+01  0.00000000000E+00 0. -1.
</event>
<event>
 7    1  0.3041451E-011  0.5052886E+02  0.7816164E-02  0.1300439E+00
        -11   -1    0    0    0    0  0.00000000000E+00  0.00000000000E+00  0.45593999997E+02  0.45594000000E+02  0.51100000000E-03 0. -1.
         11   -1    0    0    0    0 -0.00000000000E+00 -0.00000000000E+00 -0.45593999997E+02  0.45594000000E+02  0.51100000000E-03 0.  1.
    9900012    2    1    2    0    0 -0.32409035615E+02 -0.24481103856E+02 -0.18697521632E+01  0.50528855780E+02  0.29999987629E+02 0.  0.
         12    1    1    2    0    0  0.32409035615E+02  0.24481103856E+02  0.18697521632E+01  0.40659144220E+02  0.00000000000E+00 0. -1.
         11    1    3    3    0    0 -0.12091910436E+02 -0.58770204846E+01  0.24867884944E+01  0.13672519338E+02  0.51100000000E-03 0. -1.
        -11    1    3    3    0    0  0.22349749207E+01 -0.25529352611E+01 -0.82334493020E+01  0.89051827052E+01  0.51100000000E-03 0.  1.
        -12    1    3    3    0    0 -0.22552100100E+02 -0.16051148111E+02  0.38769086443E+01  0.27951153737E+02  0.00000000000E+00 0.  1.
</event>
<event>
 7    1  0.3041451E-011  0.5052886E+02  0.7816164E-02  0.1300439E+00
        -11   -1    0    0    0    0  0.00000000000E+00  0.00000000000E+00  0.45593999997E+02  0.45594000000E+02  0.51100000000E-03 0. -1.
         11   -1    0    0    0    0 -0.00000000000E+00 -0.00000000000E+00 -0.45593999997E+02  0.45594000000E+02  0.51100000000E-03 0.  1.
    9900012    2    1    2    0    0  0.36900380878E+02  0.60515692047E+01 -0.15965780652E+02  0.50528858954E+02  0.29999997276E+02 0.  0.
         12    1    1    2    0    0 -0.36900380878E+02 -0.60515692047E+01  0.15965780652E+02  0.40659141046E+02  0.00000000000E+00 0. -1.
         11    1    3    3    0    0 -0.25044013585E+00  0.22452836400E+01 -0.40878942046E+01  0.46706421588E+01  0.51100000000E-03 0. -1.
        -11    1    3    3    0    0  0.16735846583E+02 -0.10693928364E+01  0.64752333483E+01  0.17976674027E+02  0.51100000000E-03 0.  1.
        -12    1    3    3    0    0  0.20414974431E+02  0.48756784011E+01 -0.18353119796E+02  0.27881542768E+02  0.00000000000E+00 0.  1.
</event>
<event>
 7    1  0.3041451E-011  0.5052887E+02  0.7816164E-02  0.1300439E+00
        -11   -1    0    0    0    0  0.00000000000E+00  0.00000000000E+00  0.45593999997E+02  0.45594000000E+02  0.51100000000E-03 0.  1.
         11   -1    0    0    0    0 -0.00000000000E+00 -0.00000000000E+00 -0.45593999997E+02  0.45594000000E+02  0.51100000000E-03 0. -1.
    9900012    2    1    2    0    0 -0.69461436695E+01  0.38881881110E+02  0.96496156707E+01  0.50528872204E+02  0.30000037550E+02 0.  0.
         12    1    1    2    0    0  0.69461436695E+01 -0.38881881110E+02 -0.96496156707E+01  0.40659127796E+02  0.00000000000E+00 0. -1.
         11    1    3    3    0    0 -0.13942633782E+02  0.30584654529E+02 -0.26660021911E+01  0.33718328805E+02  0.51100000000E-03 0. -1.
        -11    1    3    3    0    0  0.85559446725E+00  0.24177197716E+01  0.48935543693E+01  0.55248787691E+01  0.51100000000E-03 0.  1.
         12    1    3    3    0    0  0.61408956452E+01  0.58795068094E+01  0.74220634924E+01  0.11285664630E+02  0.00000000000E+00 0. -1.
</event>
<event>
 7    1  0.3041451E-011  0.5052886E+02  0.7816164E-02  0.1300439E+00
        -11   -1    0    0    0    0  0.00000000000E+00  0.00000000000E+00  0.45593999997E+02  0.45594000000E+02  0.51100000000E-03 0.  1.
         11   -1    0    0    0    0 -0.00000000000E+00 -0.00000000000E+00 -0.45593999997E+02  0.45594000000E+02  0.51100000000E-03 0. -1.
    9900012    2    1    2    0    0 -0.28068973518E+02  0.26240407464E+02 -0.13294334023E+02  0.50528861109E+02  0.30000003828E+02 0.  0.
         12    1    1    2    0    0  0.28068973518E+02 -0.26240407464E+02  0.13294334023E+02  0.40659138891E+02  0.00000000000E+00 0. -1.
         11    1    3    3    0    0 -0.17899629071E+02  0.32419530765E+00 -0.81527379927E+01  0.19671526645E+02  0.51100000000E-03 0. -1.
        -11    1    3    3    0    0 -0.83575913355E+01  0.24529666038E+02 -0.76949251738E+00  0.25925778057E+02  0.51100000000E-03 0.  1.
        -12    1    3    3    0    0 -0.18117531106E+01  0.13865461182E+01 -0.43721035131E+01  0.49315564075E+01  0.00000000000E+00 0.  1.
</event>
<event>
 7    1  0.3041451E-011  0.5052886E+02  0.7816164E-02  0.1300439E+00
        -11   -1    0    0    0    0  0.00000000000E+00  0.00000000000E+00  0.45593999997E+02  0.45594000000E+02  0.51100000000E-03 0.  1.
         11   -1    0    0    0    0 -0.00000000000E+00 -0.00000000000E+00 -0.45593999997E+02  0.45594000000E+02  0.51100000000E-03 0. -1.
    9900012    2    1    2    0    0 -0.30323994499E+02  0.26566306743E+02 -0.52775034547E+01  0.50528864014E+02  0.30000012658E+02 0.  0.
         12    1    1    2    0    0  0.30323994499E+02 -0.26566306743E+02  0.52775034547E+01  0.40659135986E+02  0.00000000000E+00 0. -1.
         11    1    3    3    0    0 -0.86722737346E+00 -0.17747188779E+01  0.18786978181E+00  0.19841889348E+01  0.51100000000E-03 0. -1.
        -11    1    3    3    0    0 -0.98976183544E+01  0.25224879214E+02  0.24673549497E+01  0.27209285569E+02  0.51100000000E-03 0.  1.
        -12    1    3    3    0    0 -0.19559148771E+02  0.31161464070E+01 -0.79327281861E+01  0.21335389511E+02  0.00000000000E+00 0.  1.
</event>
<event>
 7    1  0.3041451E-011  0.5052885E+02  0.7816164E-02  0.1300439E+00
        -11   -1    0    0    0    0  0.00000000000E+00  0.00000000000E+00  0.45593999997E+02  0.45594000000E+02  0.51100000000E-03 0.  1.
         11   -1    0    0    0    0 -0.00000000000E+00 -0.00000000000E+00 -0.45593999997E+02  0.45594000000E+02  0.51100000000E-03 0. -1.
    9900012    2    1    2    0    0 -0.75702513047E+01  0.33227999653E+02  0.22175617025E+02  0.50528847818E+02  0.29999963426E+02 0.  0.
         12    1    1    2    0    0  0.75702513047E+01 -0.33227999653E+02 -0.22175617025E+02  0.40659152182E+02  0.00000000000E+00 0. -1.
         11    1    3    3    0    0  0.33401260134E+01  0.23286361050E+02  0.31084123553E+01  0.23729165185E+02  0.51100000000E-03 0. -1.
        -11    1    3    3    0    0 -0.10459326092E+02  0.23739511047E+01  0.79799219227E+01  0.13368331994E+02  0.51100000000E-03 0.  1.
        -12    1    3    3    0    0 -0.45105122658E+00  0.75676874981E+01  0.11087282747E+02  0.13431350639E+02  0.00000000000E+00 0.  1.
</event>
<event>
 7    1  0.3041451E-011  0.5052886E+02  0.7816164E-02  0.1300439E+00
        -11   -1    0    0    0    0  0.00000000000E+00  0.00000000000E+00  0.45593999997E+02  0.45594000000E+02  0.51100000000E-03 0. -1.
         11   -1    0    0    0    0 -0.00000000000E+00 -0.00000000000E+00 -0.45593999997E+02  0.45594000000E+02  0.51100000000E-03 0.  1.
    9900012    2    1    2    0    0  0.50683961411E+01  0.14786946348E+02 -0.37534293884E+02  0.50528860325E+02  0.30000001444E+02 0.  0.
         12    1    1    2    0    0 -0.50683961411E+01 -0.14786946348E+02  0.37534293884E+02  0.40659139675E+02  0.00000000000E+00 0. -1.
         11    1    3    3    0    0 -0.10143294859E+02  0.10235626206E+02 -0.87973402448E+01  0.16883354822E+02  0.51100000000E-03 0. -1.
        -11    1    3    3    0    0  0.59253245647E+01  0.39561767904E+01 -0.18431055752E+02  0.19760177691E+02  0.51100000000E-03 0.  1.
         12    1    3    3    0    0  0.92863664352E+01  0.59514335213E+00 -0.10305897887E+02  0.13885327812E+02  0.00000000000E+00 0. -1.
</event>
<event>
 7    1  0.3041451E-011  0.5052883E+02  0.7816164E-02  0.1300439E+00
        -11   -1    0    0    0    0  0.00000000000E+00  0.00000000000E+00  0.45593999997E+02  0.45594000000E+02  0.51100000000E-03 0. -1.
         11   -1    0    0    0    0 -0.00000000000E+00 -0.00000000000E+00 -0.45593999997E+02  0.45594000000E+02  0.51100000000E-03 0.  1.
    9900012    2    1    2    0    0  0.35140061424E+02 -0.13047295235E+02 -0.15751575223E+02  0.50528831885E+02  0.29999914996E+02 0.  0.
         12    1    1    2    0    0 -0.35140061424E+02  0.13047295235E+02  0.15751575223E+02  0.40659168115E+02  0.00000000000E+00 0. -1.
         11    1    3    3    0    0 -0.45169224489E+00 -0.33963004339E+01 -0.34179054033E+00  0.34432112274E+01  0.51100000000E-03 0. -1.
        -11    1    3    3    0    0  0.35155305036E+02 -0.14486540434E+02 -0.90515684432E+01  0.39085626737E+02  0.51100000000E-03 0.  1.
        -12    1    3    3    0    0  0.43644863281E+00  0.48355456323E+01 -0.63582162397E+01  0.79999939201E+01  0.00000000000E+00 0.  1.
</event>
<event>
 7    1  0.3041451E-011  0.5052886E+02  0.7816164E-02  0.1300439E+00
        -11   -1    0    0    0    0  0.00000000000E+00  0.00000000000E+00  0.45593999997E+02  0.45594000000E+02  0.51100000000E-03 0.  1.
         11   -1    0    0    0    0 -0.00000000000E+00 -0.00000000000E+00 -0.45593999997E+02  0.45594000000E+02  0.51100000000E-03 0. -1.
    9900012    2    1    2    0    0 -0.14268121473E+02  0.30458783986E+02  0.22844013174E+02  0.50528858959E+02  0.29999997292E+02 0.  0.
         12    1    1    2    0    0  0.14268121473E+02 -0.30458783986E+02 -0.22844013174E+02  0.40659141041E+02  0.00000000000E+00 0. -1.
         11    1    3    3    0    0 -0.70727529136E+01  0.36123109724E+00  0.14125232447E+02  0.15801155452E+02  0.51100000000E-03 0. -1.
        -11    1    3    3    0    0 -0.83636221798E+01  0.13248192636E+02 -0.11393292949E+00  0.15667730055E+02  0.51100000000E-03 0.  1.
         12    1    3    3    0    0  0.11682536207E+01  0.16849360253E+02  0.88327136572E+01  0.19059973452E+02  0.00000000000E+00 0. -1.
</event>
<event>
 7    1  0.3041451E-011  0.5052884E+02  0.7816164E-02  0.1300439E+00
        -11   -1    0    0    0    0  0.00000000000E+00  0.00000000000E+00  0.45593999997E+02  0.45594000000E+02  0.51100000000E-03 0.  1.
         11   -1    0    0    0    0 -0.00000000000E+00 -0.00000000000E+00 -0.45593999997E+02  0.45594000000E+02  0.51100000000E-03 0. -1.
    9900012    2    1    2    0    0 -0.12157138875E+02  0.23958665220E+02  0.30518083554E+02  0.50528842501E+02  0.29999947266E+02 0.  0.
         12    1    1    2    0    0  0.12157138875E+02 -0.23958665220E+02 -0.30518083554E+02  0.40659157499E+02  0.00000000000E+00 0. -1.
         11    1    3    3    0    0  0.91302108791E+00  0.10940298717E+02 -0.31415905305E+01  0.11418990097E+02  0.51100000000E-03 0. -1.
        -11    1    3    3    0    0 -0.72996215345E+01  0.12011875764E+02  0.23547131491E+02  0.27423293669E+02  0.51100000000E-03 0.  1.
         12    1    3    3    0    0 -0.57705384283E+01  0.10064907382E+01  0.10112542593E+02  0.11686558735E+02  0.00000000000E+00 0. -1.
</event>
<event>
 7    1  0.3041451E-011  0.5052885E+02  0.7816164E-02  0.1300439E+00
        -11   -1    0    0    0    0  0.00000000000E+00  0.00000000000E+00  0.45593999997E+02  0.45594000000E+02  0.51100000000E-03 0.  1.
         11   -1    0    0    0    0 -0.00000000000E+00 -0.00000000000E+00 -0.45593999997E+02  0.45594000000E+02  0.51100000000E-03 0. -1.
    9900012    2    1    2    0    0 -0.42800823293E+00 -0.14467872376E+02  0.37995572882E+02  0.50528854894E+02  0.29999984935E+02 0.  0.
         12    1    1    2    0    0  0.42800823293E+00  0.14467872376E+02 -0.37995572882E+02  0.40659145106E+02  0.00000000000E+00 0. -1.
         11    1    3    3    0    0  0.44376423506E+01  0.48409637216E+01  0.85706289944E+01  0.10797373801E+02  0.51100000000E-03 0. -1.
        -11    1    3    3    0    0  0.62499102296E+01 -0.11579938217E+02  0.14583345755E+02  0.19642564004E+02  0.51100000000E-03 0.  1.
        -12    1    3    3    0    0 -0.11115560813E+02 -0.77288978803E+01  0.14841598133E+02  0.20088917088E+02  0.00000000000E+00 0.  1.
</event>
<event>
 7    1  0.3041451E-011  0.5052886E+02  0.7816164E-02  0.1300439E+00
        -11   -1    0    0    0    0  0.00000000000E+00  0.00000000000E+00  0.45593999997E+02  0.45594000000E+02  0.51100000000E-03 0. -1.
         11   -1    0    0    0    0 -0.00000000000E+00 -0.00000000000E+00 -0.45593999997E+02  0.45594000000E+02  0.51100000000E-03 0.  1.
    9900012    2    1    2    0    0 -0.71247388488E+01  0.34563925458E+02 -0.20192547874E+02  0.50528857899E+02  0.29999994070E+02 0.  0.
         12    1    1    2    0    0  0.71247388488E+01 -0.34563925458E+02  0.20192547874E+02  0.40659142101E+02  0.00000000000E+00 0. -1.
         11    1    3    3    0    0 -0.16459060348E+02  0.23389192563E+02 -0.64175948721E+01  0.29311098930E+02  0.51100000000E-03 0. -1.
        -11    1    3    3    0    0  0.94940192448E+01  0.11356208797E+02 -0.14336322633E+02  0.20606553001E+02  0.51100000000E-03 0.  1.
         12    1    3    3    0    0 -0.15969774586E+00 -0.18147590230E+00  0.56136963088E+00  0.61120596825E+00  0.00000000000E+00 0. -1.
</event>
<event>
 7    1  0.3041451E-011  0.5052884E+02  0.7816164E-02  0.1300439E+00
        -11   -1    0    0    0    0  0.00000000000E+00  0.00000000000E+00  0.45593999997E+02  0.45594000000E+02  0.51100000000E-03 0.  1.
         11   -1    0    0    0    0 -0.00000000000E+00 -0.00000000000E+00 -0.45593999997E+02  0.45594000000E+02  0.51100000000E-03 0. -1.
    9900012    2    1    2    0    0  0.22514899837E+02  0.23775629744E+02  0.24103229437E+02  0.50528844159E+02  0.29999952307E+02 0.  0.
         12    1    1    2    0    0 -0.22514899837E+02 -0.23775629744E+02 -0.24103229437E+02  0.40659155841E+02  0.00000000000E+00 0. -1.
         11    1    3    3    0    0  0.77702647544E+01  0.48056245468E+01 -0.59603226929E+01  0.10908551164E+02  0.51100000000E-03 0. -1.
        -11    1    3    3    0    0  0.10328807037E+02  0.12715996193E+02  0.26548141054E+02  0.31195906906E+02  0.51100000000E-03 0.  1.
        -12    1    3    3    0    0  0.44158280458E+01  0.62540090042E+01  0.35154110757E+01  0.84243860896E+01  0.00000000000E+00 0.  1.
</event>
<event>
 7    1  0.3041451E-011  0.5052885E+02  0.7816164E-02  0.1300439E+00
        -11   -1    0    0    0    0  0.00000000000E+00  0.00000000000E+00  0.45593999997E+02  0.45594000000E+02  0.51100000000E-03 0. -1.
         11   -1    0    0    0    0 -0.00000000000E+00 -0.00000000000E+00 -0.45593999997E+02  0.45594000000E+02  0.51100000000E-03 0.  1.
    9900012    2    1    2    0    0 -0.12478897484E+02 -0.30175896661E+02 -0.24225167195E+02  0.50528851615E+02  0.29999974969E+02 0.  0.
         12    1    1    2    0    0  0.12478897484E+02  0.30175896661E+02  0.24225167195E+02  0.40659148385E+02  0.00000000000E+00 0. -1.
         11    1    3    3    0    0 -0.17995209047E+02 -0.17289443647E+02 -0.20179308754E+02  0.32092941784E+02  0.51100000000E-03 0. -1.
        -11    1    3    3    0    0  0.36491748425E+01 -0.14232206844E+02 -0.55283058403E+01  0.15698227747E+02  0.51100000000E-03 0.  1.
         12    1    3    3    0    0  0.18671367208E+01  0.13457538298E+01  0.14824473985E+01  0.27376820842E+01  0.00000000000E+00 0. -1.
</event>
<event>
 7    1  0.3041451E-011  0.5052889E+02  0.7816164E-02  0.1300439E+00
        -11   -1    0    0    0    0  0.00000000000E+00  0.00000000000E+00  0.45593999997E+02  0.45594000000E+02  0.51100000000E-03 0.  1.
         11   -1    0    0    0    0 -0.00000000000E+00 -0.00000000000E+00 -0.45593999997E+02  0.45594000000E+02  0.51100000000E-03 0. -1.
    9900012    2    1    2    0    0  0.21975162872E+01  0.25184846670E+02  0.31844271336E+02  0.50528890362E+02  0.30000092744E+02 0.  0.
         12    1    1    2    0    0 -0.21975162872E+01 -0.25184846670E+02 -0.31844271336E+02  0.40659109638E+02  0.00000000000E+00 0. -1.
         11    1    3    3    0    0 -0.50975947350E+01  0.12041615531E+02  0.34352692268E+01  0.13519876168E+02  0.51100000000E-03 0. -1.
        -11    1    3    3    0    0  0.73354567126E+01  0.16761096520E+02  0.16763724938E+02  0.24814627859E+02  0.51100000000E-03 0.  1.
         12    1    3    3    0    0 -0.40345690390E-01 -0.36178653807E+01  0.11645277172E+02  0.12194386335E+02  0.00000000000E+00 0. -1.
</event>
<event>
 7    1  0.3041451E-011  0.5052886E+02  0.7816164E-02  0.1300439E+00
        -11   -1    0    0    0    0  0.00000000000E+00  0.00000000000E+00  0.45593999997E+02  0.45594000000E+02  0.51100000000E-03 0.  1.
         11   -1    0    0    0    0 -0.00000000000E+00 -0.00000000000E+00 -0.45593999997E+02  0.45594000000E+02  0.51100000000E-03 0. -1.
    9900012    2    1    2    0    0 -0.97969327399E+01  0.67701979925E+01  0.38876088125E+02  0.50528859578E+02  0.29999999172E+02 0.  0.
         12    1    1    2    0    0  0.97969327399E+01 -0.67701979925E+01 -0.38876088125E+02  0.40659140422E+02  0.00000000000E+00 0. -1.
         11    1    3    3    0    0 -0.32402975807E+01  0.10128498992E+02  0.30074574320E+02  0.31899310980E+02  0.51100000000E-03 0. -1.
        -11    1    3    3    0    0 -0.86468788724E+00 -0.64097734303E+01  0.10146537099E+02  0.12032667865E+02  0.51100000000E-03 0.  1.
         12    1    3    3    0    0 -0.56919472720E+01  0.30514724304E+01 -0.13450232939E+01  0.65968807327E+01  0.00000000000E+00 0. -1.
</event>
<event>
 7    1  0.3041451E-011  0.5052887E+02  0.7816164E-02  0.1300439E+00
        -11   -1    0    0    0    0  0.00000000000E+00  0.00000000000E+00  0.45593999997E+02  0.45594000000E+02  0.51100000000E-03 0. -1.
         11   -1    0    0    0    0 -0.00000000000E+00 -0.00000000000E+00 -0.45593999997E+02  0.45594000000E+02  0.51100000000E-03 0.  1.
    9900012    2    1    2    0    0  0.29894313942E+02 -0.46964156011E+01 -0.27155821486E+02  0.50528868601E+02  0.30000026598E+02 0.  0.
         12    1    1    2    0    0 -0.29894313942E+02  0.46964156011E+01  0.27155821486E+02  0.40659131399E+02  0.00000000000E+00 0. -1.
         11    1    3    3    0    0  0.73439497504E+00  0.60006866671E+00 -0.10901361887E+02  0.10942536709E+02  0.51100000000E-03 0. -1.
        -11    1    3    3    0    0  0.31030700465E+02 -0.85812979177E+01 -0.15497262074E+02  0.35731053403E+02  0.51100000000E-03 0.  1.
         12    1    3    3    0    0 -0.18707814977E+01  0.32848136498E+01 -0.75719752578E+00  0.38552784879E+01  0.00000000000E+00 0. -1.
</event>
<event>
 7    1  0.3041451E-011  0.5052886E+02  0.7816164E-02  0.1300439E+00
        -11   -1    0    0    0    0  0.00000000000E+00  0.00000000000E+00  0.45593999997E+02  0.45594000000E+02  0.51100000000E-03 0.  1.
         11   -1    0    0    0    0 -0.00000000000E+00 -0.00000000000E+00 -0.45593999997E+02  0.45594000000E+02  0.51100000000E-03 0. -1.
    9900012    2    1    2    0    0 -0.38274685776E+02  0.12340063497E+02  0.59947258988E+01  0.50528862319E+02  0.30000007506E+02 0.  0.
         12    1    1    2    0    0  0.38274685776E+02 -0.12340063497E+02 -0.59947258988E+01  0.40659137681E+02  0.00000000000E+00 0. -1.
         11    1    3    3    0    0 -0.24244319489E+02  0.15820871139E+02 -0.82955016488E+01  0.30114819258E+02  0.51100000000E-03 0. -1.
        -11    1    3    3    0    0 -0.39288133681E+01 -0.71666543624E+00  0.51229840305E+01  0.64957023844E+01  0.51100000000E-03 0.  1.
         12    1    3    3    0    0 -0.10101552919E+02 -0.27641422053E+01  0.91672435171E+01  0.13918340677E+02  0.00000000000E+00 0. -1.
</event>
<event>
 7    1  0.3041451E-011  0.5052886E+02  0.7816164E-02  0.1300439E+00
        -11   -1    0    0    0    0  0.00000000000E+00  0.00000000000E+00  0.45593999997E+02  0.45594000000E+02  0.51100000000E-03 0. -1.
         11   -1    0    0    0    0 -0.00000000000E+00 -0.00000000000E+00 -0.45593999997E+02  0.45594000000E+02  0.51100000000E-03 0.  1.
    9900012    2    1    2    0    0 -0.23788873348E+02 -0.32063555260E+02 -0.76930714992E+01  0.50528863018E+02  0.30000009629E+02 0.  0.
         12    1    1    2    0    0  0.23788873348E+02  0.32063555260E+02  0.76930714992E+01  0.40659136982E+02  0.00000000000E+00 0. -1.
         11    1    3    3    0    0 -0.11357564825E+02 -0.18721699707E+02  0.88851104106E+01  0.23631366992E+02  0.51100000000E-03 0. -1.
        -11    1    3    3    0    0 -0.13098055374E+02 -0.13256910023E+02 -0.17626979878E+02  0.25651805741E+02  0.51100000000E-03 0.  1.
        -12    1    3    3    0    0  0.66674685055E+00 -0.84945530077E-01  0.10487979679E+01  0.12456902838E+01  0.00000000000E+00 0.  1.
</event>
<event>
 7    1  0.3041451E-011  0.5052887E+02  0.7816164E-02  0.1300439E+00
        -11   -1    0    0    0    0  0.00000000000E+00  0.00000000000E+00  0.45593999997E+02  0.45594000000E+02  0.51100000000E-03 0.  1.
         11   -1    0    0    0    0 -0.00000000000E+00 -0.00000000000E+00 -0.45593999997E+02  0.45594000000E+02  0.51100000000E-03 0. -1.
    9900012    2    1    2    0    0  0.40323477497E+02 -0.16483446629E+01  0.49462015031E+01  0.50528870805E+02  0.30000033299E+02 0.  0.
         12    1    1    2    0    0 -0.40323477497E+02  0.16483446629E+01 -0.49462015031E+01  0.40659129195E+02  0.00000000000E+00 0. -1.
         11    1    3    3    0    0  0.42161155301E+02 -0.62288321220E+01  0.14740359088E+01  0.42644274504E+02  0.51100000000E-03 0. -1.
        -11    1    3    3    0    0 -0.24431489671E+01  0.35538328973E+01  0.10630291108E+00  0.43139315836E+01  0.51100000000E-03 0.  1.
         12    1    3    3    0    0  0.60547116368E+00  0.10266545618E+01  0.33658626833E+01  0.35706647171E+01  0.00000000000E+00 0. -1.
</event>
<event>
 7    1  0.3041451E-011  0.5052886E+02  0.7816164E-02  0.1300439E+00
        -11   -1    0    0    0    0  0.00000000000E+00  0.00000000000E+00  0.45593999997E+02  0.45594000000E+02  0.51100000000E-03 0. -1.
         11   -1    0    0    0    0 -0.00000000000E+00 -0.00000000000E+00 -0.45593999997E+02  0.45594000000E+02  0.51100000000E-03 0.  1.
    9900012    2    1    2    0    0 -0.70751496381E+01  0.25648600034E+02 -0.30745031756E+02  0.50528863219E+02  0.30000010241E+02 0.  0.
         12    1    1    2    0    0  0.70751496381E+01 -0.25648600034E+02  0.30745031756E+02  0.40659136781E+02  0.00000000000E+00 0. -1.
         11    1    3    3    0    0  0.90015952688E+01  0.21965331476E+01 -0.14282211784E+02  0.17024542547E+02  0.51100000000E-03 0. -1.
        -11    1    3    3    0    0 -0.12049166572E+02  0.20991079271E+02 -0.15331460262E+02  0.28650680587E+02  0.51100000000E-03 0.  1.
         12    1    3    3    0    0 -0.40275783349E+01  0.24609876145E+01 -0.11313597110E+01  0.48536400853E+01  0.00000000000E+00 0. -1.
</event>
<event>
 7    1  0.3041451E-011  0.5052886E+02  0.7816164E-02  0.1300439E+00
        -11   -1    0    0    0    0  0.00000000000E+00  0.00000000000E+00  0.45593999997E+02  0.45594000000E+02  0.51100000000E-03 0. -1.
         11   -1    0    0    0    0 -0.00000000000E+00 -0.00000000000E+00 -0.45593999997E+02  0.45594000000E+02  0.51100000000E-03 0.  1.
    9900012    2    1    2    0    0 -0.12260293671E+02  0.21526674739E+02  0.32240554271E+02  0.50528857536E+02  0.29999992967E+02 0.  0.
         12    1    1    2    0    0  0.12260293671E+02 -0.21526674739E+02 -0.32240554271E+02  0.40659142464E+02  0.00000000000E+00 0. -1.
         11    1    3    3    0    0 -0.22005868796E+01  0.18825005697E+02  0.13704775351E+02  0.23388977955E+02  0.51100000000E-03 0. -1.
        -11    1    3    3    0    0 -0.73145082740E+01 -0.40924517964E+01  0.17923700642E+02  0.19786592379E+02  0.51100000000E-03 0.  1.
        -12    1    3    3    0    0 -0.27451985171E+01  0.67941208380E+01  0.61207827794E+00  0.73532872022E+01  0.00000000000E+00 0.  1.
</event>
<event>
 7    1  0.3041451E-011  0.5052886E+02  0.7816164E-02  0.1300439E+00
        -11   -1    0    0    0    0  0.00000000000E+00  0.00000000000E+00  0.45593999997E+02  0.45594000000E+02  0.51100000000E-03 0.  1.
         11   -1    0    0    0    0 -0.00000000000E+00 -0.00000000000E+00 -0.45593999997E+02  0.45594000000E+02  0.51100000000E-03 0. -1.
    9900012    2    1    2    0    0  0.11787294912E+02 -0.44752978452E+00  0.38910471425E+02  0.50528863379E+02  0.30000010727E+02 0.  0.
         12    1    1    2    0    0 -0.11787294912E+02  0.44752978452E+00 -0.38910471425E+02  0.40659136621E+02  0.00000000000E+00 0. -1.
         11    1    3    3    0    0  0.11887161060E+00 -0.49822417141E+01  0.81929494839E+01  0.95896446474E+01  0.51100000000E-03 0.  1.
        -11    1    3    3    0    0  0.13586054142E+02  0.76175333752E+01  0.72288223664E+01  0.17171591509E+02  0.51100000000E-03 0. -1.
        -12    1    3    3    0    0 -0.19176308406E+01 -0.30828214456E+01  0.23488699575E+02  0.23767627223E+02  0.00000000000E+00 0.  1.
</event>
<event>
 7    1  0.3041451E-011  0.5052887E+02  0.7816164E-02  0.1300439E+00
        -11   -1    0    0    0    0  0.00000000000E+00  0.00000000000E+00  0.45593999997E+02  0.45594000000E+02  0.51100000000E-03 0.  1.
         11   -1    0    0    0    0 -0.00000000000E+00 -0.00000000000E+00 -0.45593999997E+02  0.45594000000E+02  0.51100000000E-03 0. -1.
    9900012    2    1    2    0    0 -0.31763211069E+02  0.78054666064E+01 -0.24152392934E+02  0.50528868544E+02  0.30000026425E+02 0.  0.
         12    1    1    2    0    0  0.31763211069E+02 -0.78054666064E+01  0.24152392934E+02  0.40659131456E+02  0.00000000000E+00 0. -1.
         11    1    3    3    0    0 -0.48710315421E+01  0.28952060960E+01 -0.17187626682E+02  0.18097615253E+02  0.51100000000E-03 0. -1.
        -11    1    3    3    0    0 -0.31539511658E+01 -0.39624333545E+00  0.45250657437E+01  0.55299762190E+01  0.51100000000E-03 0.  1.
        -12    1    3    3    0    0 -0.23738228361E+02  0.53065038458E+01 -0.11489831995E+02  0.26901277071E+02  0.00000000000E+00 0.  1.
</event>
<event>
 7    1  0.3041451E-011  0.5052885E+02  0.7816164E-02  0.1300439E+00
        -11   -1    0    0    0    0  0.00000000000E+00  0.00000000000E+00  0.45593999997E+02  0.45594000000E+02  0.51100000000E-03 0.  1.
         11   -1    0    0    0    0 -0.00000000000E+00 -0.00000000000E+00 -0.45593999997E+02  0.45594000000E+02  0.51100000000E-03 0. -1.
    9900012    2    1    2    0    0  0.11053036841E+02  0.37851801845E+02  0.99115057787E+01  0.50528850069E+02  0.29999970270E+02 0.  0.
         12    1    1    2    0    0 -0.11053036841E+02 -0.37851801845E+02 -0.99115057787E+01  0.40659149931E+02  0.00000000000E+00 0. -1.
         11    1    3    3    0    0 -0.69192228662E+01  0.86368909480E+01 -0.13063697602E+01  0.11143524242E+02  0.51100000000E-03 0. -1.
        -11    1    3    3    0    0  0.14355029825E+02  0.15799934791E+02  0.13567567229E+02  0.25293945945E+02  0.51100000000E-03 0.  1.
        -12    1    3    3    0    0  0.36172298814E+01  0.13414976106E+02 -0.23496916906E+01  0.14091379882E+02  0.00000000000E+00 0.  1.
</event>
<event>
 7    1  0.3041451E-011  0.5052887E+02  0.7816164E-02  0.1300439E+00
        -11   -1    0    0    0    0  0.00000000000E+00  0.00000000000E+00  0.45593999997E+02  0.45594000000E+02  0.51100000000E-03 0. -1.
         11   -1    0    0    0    0 -0.00000000000E+00 -0.00000000000E+00 -0.45593999997E+02  0.45594000000E+02  0.51100000000E-03 0.  1.
    9900012    2    1    2    0    0  0.31805438088E+02 -0.15245063953E+02 -0.20227884211E+02  0.50528866136E+02  0.30000019108E+02 0.  0.
         12    1    1    2    0    0 -0.31805438088E+02  0.15245063953E+02  0.20227884211E+02  0.40659133864E+02  0.00000000000E+00 0. -1.
         11    1    3    3    0    0  0.12775252649E+02 -0.11598765808E+02 -0.64250664922E+00  0.17267057177E+02  0.51100000000E-03 0. -1.
        -11    1    3    3    0    0  0.38803346536E+01  0.10018770557E+01 -0.16675091275E+02  0.17149910319E+02  0.51100000000E-03 0.  1.
        -12    1    3    3    0    0  0.15149850785E+02 -0.46481752004E+01 -0.29102862864E+01  0.16111898640E+02  0.00000000000E+00 0.  1.
</event>
<event>
 7    1  0.3041451E-011  0.5052898E+02  0.7816164E-02  0.1300438E+00
        -11   -1    0    0    0    0  0.00000000000E+00  0.00000000000E+00  0.45593999997E+02  0.45594000000E+02  0.51100000000E-03 0. -1.
         11   -1    0    0    0    0 -0.00000000000E+00 -0.00000000000E+00 -0.45593999997E+02  0.45594000000E+02  0.51100000000E-03 0.  1.
    9900012    2    1    2    0    0  0.37680137818E+02 -0.15044577360E+02 -0.26502492645E+01  0.50528979905E+02  0.30000364917E+02 0.  0.
         12    1    1    2    0    0 -0.37680137818E+02  0.15044577360E+02  0.26502492645E+01  0.40659020095E+02  0.00000000000E+00 0. -1.
         11    1    3    3    0    0  0.87932602319E+01 -0.10642160141E+01 -0.12035426842E+02  0.14943409275E+02  0.51100000000E-03 0. -1.
        -11    1    3    3    0    0  0.12313020303E+02 -0.39074840529E+01  0.97545130690E+01  0.16187323005E+02  0.51100000000E-03 0.  1.
        -12    1    3    3    0    0  0.16573857283E+02 -0.10072877293E+02 -0.36933549206E+00  0.19398247625E+02  0.00000000000E+00 0.  1.
</event>
<event>
 7    1  0.3041451E-011  0.5052886E+02  0.7816164E-02  0.1300439E+00
        -11   -1    0    0    0    0  0.00000000000E+00  0.00000000000E+00  0.45593999997E+02  0.45594000000E+02  0.51100000000E-03 0.  1.
         11   -1    0    0    0    0 -0.00000000000E+00 -0.00000000000E+00 -0.45593999997E+02  0.45594000000E+02  0.51100000000E-03 0. -1.
    9900012    2    1    2    0    0  0.57758378834E+01  0.31989391099E+02  0.24423028238E+02  0.50528858907E+02  0.29999997134E+02 0.  0.
         12    1    1    2    0    0 -0.57758378834E+01 -0.31989391099E+02 -0.24423028238E+02  0.40659141093E+02  0.00000000000E+00 0. -1.
         11    1    3    3    0    0  0.12007698350E+02  0.24988030221E+02  0.14574456011E+02  0.31320939358E+02  0.51100000000E-03 0. -1.
        -11    1    3    3    0    0 -0.57619421300E+01  0.55220414096E+01  0.13250677465E+02  0.15468463789E+02  0.51100000000E-03 0.  1.
         12    1    3    3    0    0 -0.46991833623E+00  0.14793194679E+01 -0.34021052385E+01  0.37394557605E+01  0.00000000000E+00 0. -1.
</event>
<event>
 7    1  0.3041451E-011  0.5052886E+02  0.7816164E-02  0.1300439E+00
        -11   -1    0    0    0    0  0.00000000000E+00  0.00000000000E+00  0.45593999997E+02  0.45594000000E+02  0.51100000000E-03 0.  1.
         11   -1    0    0    0    0 -0.00000000000E+00 -0.00000000000E+00 -0.45593999997E+02  0.45594000000E+02  0.51100000000E-03 0. -1.
    9900012    2    1    2    0    0  0.38489918815E+02  0.12725064580E+02  0.31248101615E+01  0.50528861329E+02  0.30000004495E+02 0.  0.
         12    1    1    2    0    0 -0.38489918815E+02 -0.12725064580E+02 -0.31248101615E+01  0.40659138671E+02  0.00000000000E+00 0. -1.
         11    1    3    3    0    0  0.17186829156E+02  0.16234128930E+02  0.84197714063E+01  0.25096346136E+02  0.51100000000E-03 0. -1.
        -11    1    3    3    0    0  0.17376054720E+02 -0.16996117826E+00  0.86733497499E+00  0.17398518174E+02  0.51100000000E-03 0.  1.
         12    1    3    3    0    0  0.39270349388E+01 -0.33391031722E+01 -0.61622962198E+01  0.80339970193E+01  0.00000000000E+00 0. -1.
</event>
<event>
 7    1  0.3041451E-011  0.5052887E+02  0.7816164E-02  0.1300439E+00
        -11   -1    0    0    0    0  0.00000000000E+00  0.00000000000E+00  0.45593999997E+02  0.45594000000E+02  0.51100000000E-03 0. -1.
         11   -1    0    0    0    0 -0.00000000000E+00 -0.00000000000E+00 -0.45593999997E+02  0.45594000000E+02  0.51100000000E-03 0.  1.
    9900012    2    1    2    0    0 -0.24310133890E+02  0.12998816159E+00 -0.32590883473E+02  0.50528865820E+02  0.30000018147E+02 0.  0.
         12    1    1    2    0    0  0.24310133890E+02 -0.12998816159E+00  0.32590883473E+02  0.40659134180E+02  0.00000000000E+00 0. -1.
         11    1    3    3    0    0 -0.33085260084E+01  0.10552928588E+02 -0.96343492287E+01  0.14667355980E+02  0.51100000000E-03 0. -1.
        -11    1    3    3    0    0 -0.16133211331E+02 -0.12098578949E+02 -0.11293920321E+02  0.23112956472E+02  0.51100000000E-03 0.  1.
        -12    1    3    3    0    0 -0.48683965515E+01  0.16756385221E+01 -0.11662613923E+02  0.12748553367E+02  0.00000000000E+00 0.  1.
</event>
<event>
 7    1  0.3041451E-011  0.5052886E+02  0.7816164E-02  0.1300439E+00
        -11   -1    0    0    0    0  0.00000000000E+00  0.00000000000E+00  0.45593999997E+02  0.45594000000E+02  0.51100000000E-03 0. -1.
         11   -1    0    0    0    0 -0.00000000000E+00 -0.00000000000E+00 -0.45593999997E+02  0.45594000000E+02  0.51100000000E-03 0.  1.
    9900012    2    1    2    0    0 -0.26171706309E+02  0.31015635173E+02  0.24975445157E+01  0.50528861237E+02  0.30000004218E+02 0.  0.
         12    1    1    2    0    0  0.26171706309E+02 -0.31015635173E+02 -0.24975445157E+01  0.40659138763E+02  0.00000000000E+00 0. -1.
         11    1    3    3    0    0  0.19943227600E+01  0.26294456467E+01  0.23196634212E+01  0.40338748529E+01  0.51100000000E-03 0. -1.
        -11    1    3    3    0    0 -0.26627299271E+02  0.28197051839E+02  0.70777395030E+01  0.39423104845E+02  0.51100000000E-03 0.  1.
        -12    1    3    3    0    0 -0.15387297979E+01  0.18913768733E+00 -0.68998584085E+01  0.70718815398E+01  0.00000000000E+00 0.  1.
</event>
<event>
 7    1  0.3041451E-011  0.5052885E+02  0.7816164E-02  0.1300439E+00
        -11   -1    0    0    0    0  0.00000000000E+00  0.00000000000E+00  0.45593999997E+02  0.45594000000E+02  0.51100000000E-03 0. -1.
         11   -1    0    0    0    0 -0.00000000000E+00 -0.00000000000E+00 -0.45593999997E+02  0.45594000000E+02  0.51100000000E-03 0.  1.
    9900012    2    1    2    0    0 -0.15907561741E+02 -0.17408555979E+02 -0.33121867254E+02  0.50528850572E+02  0.29999971798E+02 0.  0.
         12    1    1    2    0    0  0.15907561741E+02  0.17408555979E+02  0.33121867254E+02  0.40659149428E+02  0.00000000000E+00 0. -1.
         11    1    3    3    0    0 -0.18081474933E+02 -0.20172515729E+02 -0.23354991078E+02  0.35767663260E+02  0.51100000000E-03 0.  1.
        -11    1    3    3    0    0  0.23011726345E+01 -0.18188219081E+01  0.96763705304E+00  0.30886615798E+01  0.51100000000E-03 0. -1.
         12    1    3    3    0    0 -0.12725944215E+00  0.45827816574E+01 -0.10734513229E+02  0.11672525731E+02  0.00000000000E+00 0. -1.
</event>
<event>
 7    1  0.3041451E-011  0.5052886E+02  0.7816164E-02  0.1300439E+00
        -11   -1    0    0    0    0  0.00000000000E+00  0.00000000000E+00  0.45593999997E+02  0.45594000000E+02  0.51100000000E-03 0.  1.
         11   -1    0    0    0    0 -0.00000000000E+00 -0.00000000000E+00 -0.45593999997E+02  0.45594000000E+02  0.51100000000E-03 0. -1.
    9900012    2    1    2    0    0  0.35174382419E+02 -0.18272314789E+02 -0.90582189681E+01  0.50528855921E+02  0.29999988058E+02 0.  0.
         12    1    1    2    0    0 -0.35174382419E+02  0.18272314789E+02  0.90582189681E+01  0.40659144079E+02  0.00000000000E+00 0. -1.
         11    1    3    3    0    0 -0.15901924597E+01  0.35925438889E+01 -0.55720512657E+00  0.39680677245E+01  0.51100000000E-03 0. -1.
        -11    1    3    3    0    0  0.16514899911E+02 -0.18854919816E+02 -0.23006108398E+01  0.25170274746E+02  0.51100000000E-03 0.  1.
        -12    1    3    3    0    0  0.20249674968E+02 -0.30099388627E+01 -0.62004030017E+01  0.21390513450E+02  0.00000000000E+00 0.  1.
</event>
<event>
 7    1  0.3041451E-011  0.5052886E+02  0.7816164E-02  0.1300439E+00
        -11   -1    0    0    0    0  0.00000000000E+00  0.00000000000E+00  0.45593999997E+02  0.45594000000E+02  0.51100000000E-03 0. -1.
         11   -1    0    0    0    0 -0.00000000000E+00 -0.00000000000E+00 -0.45593999997E+02  0.45594000000E+02  0.51100000000E-03 0.  1.
    9900012    2    1    2    0    0 -0.80183004952E+01  0.38590046836E+02  0.99840301107E+01  0.50528859393E+02  0.29999998612E+02 0.  0.
         12    1    1    2    0    0  0.80183004952E+01 -0.38590046836E+02 -0.99840301107E+01  0.40659140607E+02  0.00000000000E+00 0. -1.
         11    1    3    3    0    0 -0.17409411504E+01  0.31134122995E+01 -0.85483948814E+01  0.92627894041E+01  0.51100000000E-03 0. -1.
        -11    1    3    3    0    0  0.86537043602E+00  0.91377300816E+01  0.74097681776E+01  0.11796255412E+02  0.51100000000E-03 0.  1.
         12    1    3    3    0    0 -0.71427297809E+01  0.26338904455E+02  0.11122656814E+02  0.29469814577E+02  0.00000000000E+00 0. -1.
</event>
<event>
 7    1  0.3041451E-011  0.5052899E+02  0.7816164E-02  0.1300438E+00
        -11   -1    0    0    0    0  0.00000000000E+00  0.00000000000E+00  0.45593999997E+02  0.45594000000E+02  0.51100000000E-03 0.  1.
         11   -1    0    0    0    0 -0.00000000000E+00 -0.00000000000E+00 -0.45593999997E+02  0.45594000000E+02  0.51100000000E-03 0. -1.
    9900012    2    1    2    0    0 -0.95489062896E+01 -0.16734786521E+02  0.35803918079E+02  0.50528988194E+02  0.30000390112E+02 0.  0.
         12    1    1    2    0    0  0.95489062896E+01  0.16734786521E+02 -0.35803918079E+02  0.40659011806E+02  0.00000000000E+00 0. -1.
         11    1    3    3    0    0  0.66344280570E+01  0.25713072519E+01  0.27540174407E+01  0.76296703043E+01  0.51100000000E-03 0. -1.
        -11    1    3    3    0    0 -0.12884403298E+02 -0.14471715194E+02  0.31261734868E+02  0.36779538553E+02  0.51100000000E-03 0.  1.
         12    1    3    3    0    0 -0.32989310489E+01 -0.48343785784E+01  0.17881657709E+01  0.61197793367E+01  0.00000000000E+00 0. -1.
</event>
<event>
 7    1  0.3041451E-011  0.5052886E+02  0.7816164E-02  0.1300439E+00
        -11   -1    0    0    0    0  0.00000000000E+00  0.00000000000E+00  0.45593999997E+02  0.45594000000E+02  0.51100000000E-03 0.  1.
         11   -1    0    0    0    0 -0.00000000000E+00 -0.00000000000E+00 -0.45593999997E+02  0.45594000000E+02  0.51100000000E-03 0. -1.
    9900012    2    1    2    0    0 -0.20946503624E+02 -0.33328982016E+02  0.10177852017E+02  0.50528859233E+02  0.29999998124E+02 0.  0.
         12    1    1    2    0    0  0.20946503624E+02  0.33328982016E+02 -0.10177852017E+02  0.40659140767E+02  0.00000000000E+00 0. -1.
         11    1    3    3    0    0 -0.11644779010E+01  0.42402749234E+00 -0.29138233708E+01  0.31664135853E+01  0.51100000000E-03 0. -1.
        -11    1    3    3    0    0 -0.19818871225E+02 -0.23627914720E+02  0.18419225740E+02  0.35921217793E+02  0.51100000000E-03 0.  1.
        -12    1    3    3    0    0  0.36845502773E-01 -0.10125094788E+02 -0.53275503514E+01  0.11441227854E+02  0.00000000000E+00 0.  1.
</event>
<event>
 7    1  0.3041451E-011  0.5052886E+02  0.7816164E-02  0.1300439E+00
        -11   -1    0    0    0    0  0.00000000000E+00  0.00000000000E+00  0.45593999997E+02  0.45594000000E+02  0.51100000000E-03 0.  1.
         11   -1    0    0    0    0 -0.00000000000E+00 -0.00000000000E+00 -0.45593999997E+02  0.45594000000E+02  0.51100000000E-03 0. -1.
    9900012    2    1    2    0    0  0.32637944767E+02  0.93494262822E+01  0.22372269364E+02  0.50528860229E+02  0.30000001153E+02 0.  0.
         12    1    1    2    0    0 -0.32637944767E+02 -0.93494262822E+01 -0.22372269364E+02  0.40659139771E+02  0.00000000000E+00 0. -1.
         11    1    3    3    0    0  0.85164019552E-01  0.87620420934E+01  0.38795316964E+01  0.95828701860E+01  0.51100000000E-03 0. -1.
        -11    1    3    3    0    0  0.17864803715E+02 -0.18360349279E+01  0.18876288569E+02  0.26054491099E+02  0.51100000000E-03 0.  1.
        -12    1    3    3    0    0  0.14687977032E+02  0.24234191167E+01 -0.38355090157E+00  0.14891498944E+02  0.00000000000E+00 0.  1.
</event>
<event>
 7    1  0.3041451E-011  0.5052884E+02  0.7816164E-02  0.1300439E+00
        -11   -1    0    0    0    0  0.00000000000E+00  0.00000000000E+00  0.45593999997E+02  0.45594000000E+02  0.51100000000E-03 0.  1.
         11   -1    0    0    0    0 -0.00000000000E+00 -0.00000000000E+00 -0.45593999997E+02  0.45594000000E+02  0.51100000000E-03 0. -1.
    9900012    2    1    2    0    0 -0.11318648315E+01  0.27924747188E+02  0.29531251750E+02  0.50528838013E+02  0.29999933626E+02 0.  0.
         12    1    1    2    0    0  0.11318648315E+01 -0.27924747188E+02 -0.29531251750E+02  0.40659161987E+02  0.00000000000E+00 0. -1.
         11    1    3    3    0    0  0.60551544440E+01  0.22427826950E+02  0.63924461063E+01  0.24094308136E+02  0.51100000000E-03 0. -1.
        -11    1    3    3    0    0 -0.19334841012E+01  0.43989843575E+01  0.31688980283E+01  0.57559828980E+01  0.51100000000E-03 0.  1.
         12    1    3    3    0    0 -0.52535351742E+01  0.10979358804E+01  0.19969907615E+02  0.20678546980E+02  0.00000000000E+00 0. -1.
</event>
<event>
 7    1  0.3041451E-011  0.5052889E+02  0.7816164E-02  0.1300439E+00
        -11   -1    0    0    0    0  0.00000000000E+00  0.00000000000E+00  0.45593999997E+02  0.45594000000E+02  0.51100000000E-03 0.  1.
         11   -1    0    0    0    0 -0.00000000000E+00 -0.00000000000E+00 -0.45593999997E+02  0.45594000000E+02  0.51100000000E-03 0. -1.
    9900012    2    1    2    0    0  0.36456681174E+02  0.80191070123E+01  0.16117309767E+02  0.50528888430E+02  0.30000086873E+02 0.  0.
         12    1    1    2    0    0 -0.36456681174E+02 -0.80191070123E+01 -0.16117309767E+02  0.40659111570E+02  0.00000000000E+00 0. -1.
         11    1    3    3    0    0  0.55059449514E+01  0.10053264624E+02 -0.51172292237E+01  0.12552672807E+02  0.51100000000E-03 0. -1.
        -11    1    3    3    0    0  0.21303121491E+02  0.11231199413E+01  0.14522518758E+02  0.25806742045E+02  0.51100000000E-03 0.  1.
         12    1    3    3    0    0  0.96476147324E+01 -0.31572775532E+01  0.67120202323E+01  0.12169473578E+02  0.00000000000E+00 0. -1.
</event>
<event>
 7    1  0.3041451E-011  0.5052885E+02  0.7816164E-02  0.1300439E+00
        -11   -1    0    0    0    0  0.00000000000E+00  0.00000000000E+00  0.45593999997E+02  0.45594000000E+02  0.51100000000E-03 0.  1.
         11   -1    0    0    0    0 -0.00000000000E+00 -0.00000000000E+00 -0.45593999997E+02  0.45594000000E+02  0.51100000000E-03 0. -1.
    9900012    2    1    2    0    0  0.37074759450E+01  0.40489696985E+02  0.75499714135E-01  0.50528848016E+02  0.29999964031E+02 0.  0.
         12    1    1    2    0    0 -0.37074759450E+01 -0.40489696985E+02 -0.75499714135E-01  0.40659151984E+02  0.00000000000E+00 0. -1.
         11    1    3    3    0    0  0.27393022852E+01  0.52121968347E+01  0.20759168422E+01  0.62434128367E+01  0.51100000000E-03 0. -1.
        -11    1    3    3    0    0 -0.11446546565E+02  0.84218325557E+01 -0.35867603811E+01  0.14656586989E+02  0.51100000000E-03 0.  1.
        -12    1    3    3    0    0  0.12414720225E+02  0.26855667595E+02  0.15863432531E+01  0.29628848191E+02  0.00000000000E+00 0.  1.
</event>
<event>
 7    1  0.3041451E-011  0.5052889E+02  0.7816164E-02  0.1300439E+00
        -11   -1    0    0    0    0  0.00000000000E+00  0.00000000000E+00  0.45593999997E+02  0.45594000000E+02  0.51100000000E-03 0.  1.
         11   -1    0    0    0    0 -0.00000000000E+00 -0.00000000000E+00 -0.45593999997E+02  0.45594000000E+02  0.51100000000E-03 0. -1.
    9900012    2    1    2    0    0  0.34185667425E+02 -0.75292006094E+01 -0.20683682055E+02  0.50528887584E+02  0.30000084300E+02 0.  0.
         12    1    1    2    0    0 -0.34185667425E+02  0.75292006094E+01  0.20683682055E+02  0.40659112416E+02  0.00000000000E+00 0. -1.
         11    1    3    3    0    0  0.10329107131E+02  0.97181295361E+01 -0.49428363044E+01  0.15018792455E+02  0.51100000000E-03 0. -1.
        -11    1    3    3    0    0  0.10271784129E+02 -0.14792459595E+02 -0.94815037375E+01  0.20352526218E+02  0.51100000000E-03 0.  1.
         12    1    3    3    0    0  0.13584776165E+02 -0.24548705507E+01 -0.62593420134E+01  0.15157568911E+02  0.00000000000E+00 0. -1.
</event>
<event>
 7    1  0.3041451E-011  0.5052888E+02  0.7816164E-02  0.1300439E+00
        -11   -1    0    0    0    0  0.00000000000E+00  0.00000000000E+00  0.45593999997E+02  0.45594000000E+02  0.51100000000E-03 0.  1.
         11   -1    0    0    0    0 -0.00000000000E+00 -0.00000000000E+00 -0.45593999997E+02  0.45594000000E+02  0.51100000000E-03 0. -1.
    9900012    2    1    2    0    0  0.28897462841E+02 -0.25726727897E+02  0.12499451543E+02  0.50528878319E+02  0.30000056140E+02 0.  0.
         12    1    1    2    0    0 -0.28897462841E+02  0.25726727897E+02 -0.12499451543E+02  0.40659121681E+02  0.00000000000E+00 0. -1.
         11    1    3    3    0    0 -0.15028954616E+01  0.17101146708E+01 -0.86385602931E+00  0.24350430091E+01  0.51100000000E-03 0. -1.
        -11    1    3    3    0    0  0.30392786345E+02 -0.29385477968E+02  0.15659102123E+02  0.45082538269E+02  0.51100000000E-03 0.  1.
        -12    1    3    3    0    0  0.75719575105E-02  0.19486353997E+01 -0.22957945500E+01  0.30112970414E+01  0.00000000000E+00 0.  1.
</event>
<event>
 7    1  0.3041451E-011  0.5052886E+02  0.7816164E-02  0.1300439E+00
        -11   -1    0    0    0    0  0.00000000000E+00  0.00000000000E+00  0.45593999997E+02  0.45594000000E+02  0.51100000000E-03 0. -1.
         11   -1    0    0    0    0 -0.00000000000E+00 -0.00000000000E+00 -0.45593999997E+02  0.45594000000E+02  0.51100000000E-03 0.  1.
    9900012    2    1    2    0    0 -0.93666989315E+01 -0.33503084053E+02 -0.21046951155E+02  0.50528857819E+02  0.29999993827E+02 0.  0.
         12    1    1    2    0    0  0.93666989315E+01  0.33503084053E+02  0.21046951155E+02  0.40659142181E+02  0.00000000000E+00 0. -1.
         11    1    3    3    0    0 -0.56354935523E+01 -0.56701993753E+00  0.74773157543E+00  0.57130904034E+01  0.51100000000E-03 0. -1.
        -11    1    3    3    0    0  0.62017569798E+01 -0.18993861050E+02 -0.18804538591E+02  0.27437915721E+02  0.51100000000E-03 0.  1.
        -12    1    3    3    0    0 -0.99329623590E+01 -0.13942203066E+02 -0.29901441393E+01  0.17377851695E+02  0.00000000000E+00 0.  1.
</event>
<event>
 7    1  0.3109991E-011  0.5052886E+02  0.7816164E-02  0.1300439E+00
        -11   -1    0    0    0    0  0.00000000000E+00  0.00000000000E+00  0.45593999997E+02  0.45594000000E+02  0.51100000000E-03 0. -1.
         11   -1    0    0    0    0 -0.00000000000E+00 -0.00000000000E+00 -0.45593999997E+02  0.45594000000E+02  0.51100000000E-03 0.  1.
    9900012    2    1    2    0    0 -0.42052155754E+01 -0.19825017369E+02 -0.35248408238E+02  0.50528862835E+02  0.30000009073E+02 0.  0.
         12    1    1    2    0    0  0.42052155754E+01  0.19825017369E+02  0.35248408238E+02  0.40659137165E+02  0.00000000000E+00 0. -1.
         11    1    3    3    0    0 -0.50031175978E+01 -0.46842368906E+01  0.34064854450E+01  0.76535876746E+01  0.51100000000E-03 0. -1.
        -11    1    3    3    0    0 -0.40205552646E+01 -0.45765365270E+01 -0.19951613261E+02  0.20860882609E+02  0.51100000000E-03 0.  1.
         12    1    3    3    0    0  0.48184572871E+01 -0.10564243951E+02 -0.18703280422E+02  0.22014392552E+02  0.00000000000E+00 0. -1.
</event>
<event>
 7    1  0.3041451E-011  0.5052889E+02  0.7816164E-02  0.1300439E+00
        -11   -1    0    0    0    0  0.00000000000E+00  0.00000000000E+00  0.45593999997E+02  0.45594000000E+02  0.51100000000E-03 0. -1.
         11   -1    0    0    0    0 -0.00000000000E+00 -0.00000000000E+00 -0.45593999997E+02  0.45594000000E+02  0.51100000000E-03 0.  1.
    9900012    2    1    2    0    0  0.17541159907E+02 -0.33318453807E+02 -0.15341173369E+02  0.50528889639E+02  0.30000090548E+02 0.  0.
         12    1    1    2    0    0 -0.17541159907E+02  0.33318453807E+02  0.15341173369E+02  0.40659110361E+02  0.00000000000E+00 0. -1.
         11    1    3    3    0    0  0.86954226526E+01 -0.66057054043E+01 -0.17227806395E+02  0.20397132946E+02  0.51100000000E-03 0. -1.
        -11    1    3    3    0    0  0.10206835099E+02 -0.22843149903E+02 -0.11216425102E+01  0.25044900926E+02  0.51100000000E-03 0.  1.
         12    1    3    3    0    0 -0.13610978446E+01 -0.38695984998E+01  0.30082755360E+01  0.50868557669E+01  0.00000000000E+00 0. -1.
</event>
<event>
 7    1  0.3041451E-011  0.5052884E+02  0.7816164E-02  0.1300439E+00
        -11   -1    0    0    0    0  0.00000000000E+00  0.00000000000E+00  0.45593999997E+02  0.45594000000E+02  0.51100000000E-03 0.  1.
         11   -1    0    0    0    0 -0.00000000000E+00 -0.00000000000E+00 -0.45593999997E+02  0.45594000000E+02  0.51100000000E-03 0. -1.
    9900012    2    1    2    0    0 -0.18870635648E+02 -0.31204165263E+02  0.17982383676E+02  0.50528844301E+02  0.29999952736E+02 0.  0.
         12    1    1    2    0    0  0.18870635648E+02  0.31204165263E+02 -0.17982383676E+02  0.40659155699E+02  0.00000000000E+00 0. -1.
         11    1    3    3    0    0 -0.68710461395E+01 -0.20776354613E+01  0.10761924523E+02  0.12936261588E+02  0.51100000000E-03 0. -1.
        -11    1    3    3    0    0 -0.12948167957E+02 -0.31634874633E+02  0.63040920425E+01  0.34758623725E+02  0.51100000000E-03 0.  1.
        -12    1    3    3    0    0  0.94857844884E+00  0.25083448311E+01  0.91636710992E+00  0.28339589880E+01  0.00000000000E+00 0.  1.
</event>
<event>
 7    1  0.3041451E-011  0.5052885E+02  0.7816164E-02  0.1300439E+00
        -11   -1    0    0    0    0  0.00000000000E+00  0.00000000000E+00  0.45593999997E+02  0.45594000000E+02  0.51100000000E-03 0. -1.
         11   -1    0    0    0    0 -0.00000000000E+00 -0.00000000000E+00 -0.45593999997E+02  0.45594000000E+02  0.51100000000E-03 0.  1.
    9900012    2    1    2    0    0 -0.76472882036E+01 -0.12993130082E+01 -0.39912368143E+02  0.50528851436E+02  0.29999974424E+02 0.  0.
         12    1    1    2    0    0  0.76472882036E+01  0.12993130082E+01  0.39912368143E+02  0.40659148564E+02  0.00000000000E+00 0. -1.
         11    1    3    3    0    0 -0.79600091695E+01 -0.44302181311E+01 -0.30778293895E+02  0.32098161225E+02  0.51100000000E-03 0. -1.
        -11    1    3    3    0    0 -0.51750744514E+01  0.10233930216E+00  0.20843226392E+01  0.55799883545E+01  0.51100000000E-03 0.  1.
        -12    1    3    3    0    0  0.54877954173E+01  0.30285658208E+01 -0.11218396887E+02  0.12850701856E+02  0.00000000000E+00 0.  1.
</event>
<event>
 7    1  0.3041451E-011  0.5052886E+02  0.7816164E-02  0.1300439E+00
        -11   -1    0    0    0    0  0.00000000000E+00  0.00000000000E+00  0.45593999997E+02  0.45594000000E+02  0.51100000000E-03 0.  1.
         11   -1    0    0    0    0 -0.00000000000E+00 -0.00000000000E+00 -0.45593999997E+02  0.45594000000E+02  0.51100000000E-03 0. -1.
    9900012    2    1    2    0    0 -0.10874278664E+02  0.10859190880E+02  0.37642974142E+02  0.50528862463E+02  0.30000007941E+02 0.  0.
         12    1    1    2    0    0  0.10874278664E+02 -0.10859190880E+02 -0.37642974142E+02  0.40659137537E+02  0.00000000000E+00 0. -1.
         11    1    3    3    0    0 -0.67406562901E+01 -0.93614095059E+01  0.12797425109E+02  0.17229234598E+02  0.51100000000E-03 0. -1.
        -11    1    3    3    0    0 -0.33370408583E+00  0.63581765008E+01  0.13712574089E+02  0.15118612874E+02  0.51100000000E-03 0.  1.
         12    1    3    3    0    0 -0.37999182881E+01  0.13862423885E+02  0.11132974945E+02  0.18181014991E+02  0.00000000000E+00 0. -1.
</event>
<event>
 7    1  0.3041451E-011  0.5052885E+02  0.7816164E-02  0.1300439E+00
        -11   -1    0    0    0    0  0.00000000000E+00  0.00000000000E+00  0.45593999997E+02  0.45594000000E+02  0.51100000000E-03 0.  1.
         11   -1    0    0    0    0 -0.00000000000E+00 -0.00000000000E+00 -0.45593999997E+02  0.45594000000E+02  0.51100000000E-03 0. -1.
    9900012    2    1    2    0    0 -0.17397272934E+02  0.54551041362E+01  0.36342026933E+02  0.50528853571E+02  0.29999980915E+02 0.  0.
         12    1    1    2    0    0  0.17397272934E+02 -0.54551041362E+01 -0.36342026933E+02  0.40659146429E+02  0.00000000000E+00 0. -1.
         11    1    3    3    0    0 -0.13473304509E+02  0.11284346312E+02  0.73690150893E+01  0.19056987950E+02  0.51100000000E-03 0. -1.
        -11    1    3    3    0    0 -0.11794626956E+01 -0.65688240426E+01  0.85220525003E+01  0.10824322641E+02  0.51100000000E-03 0.  1.
        -12    1    3    3    0    0 -0.27445057299E+01  0.73958186636E+00  0.20450959344E+02  0.20647542980E+02  0.00000000000E+00 0.  1.
</event>
<event>
 7    1  0.3041451E-011  0.5052885E+02  0.7816164E-02  0.1300439E+00
        -11   -1    0    0    0    0  0.00000000000E+00  0.00000000000E+00  0.45593999997E+02  0.45594000000E+02  0.51100000000E-03 0.  1.
         11   -1    0    0    0    0 -0.00000000000E+00 -0.00000000000E+00 -0.45593999997E+02  0.45594000000E+02  0.51100000000E-03 0. -1.
    9900012    2    1    2    0    0 -0.27777426172E+02 -0.29154962764E+02 -0.56186185173E+01  0.50528854258E+02  0.29999983001E+02 0.  0.
         12    1    1    2    0    0  0.27777426172E+02  0.29154962764E+02  0.56186185173E+01  0.40659145742E+02  0.00000000000E+00 0. -1.
         11    1    3    3    0    0 -0.76880874279E+01 -0.20217707936E+02 -0.70161910969E+01  0.22739598507E+02  0.51100000000E-03 0. -1.
        -11    1    3    3    0    0 -0.12875469165E+02  0.18184212481E+01 -0.42223619303E+01  0.13671602049E+02  0.51100000000E-03 0.  1.
        -12    1    3    3    0    0 -0.72138695788E+01 -0.10755676076E+02  0.56199345100E+01  0.14117653702E+02  0.00000000000E+00 0.  1.
</event>
<event>
 7    1  0.3041451E-011  0.5052886E+02  0.7816164E-02  0.1300439E+00
        -11   -1    0    0    0    0  0.00000000000E+00  0.00000000000E+00  0.45593999997E+02  0.45594000000E+02  0.51100000000E-03 0. -1.
         11   -1    0    0    0    0 -0.00000000000E+00 -0.00000000000E+00 -0.45593999997E+02  0.45594000000E+02  0.51100000000E-03 0.  1.
    9900012    2    1    2    0    0 -0.24831395407E+02  0.30099157467E+02 -0.11428396672E+02  0.50528859225E+02  0.29999998100E+02 0.  0.
         12    1    1    2    0    0  0.24831395407E+02 -0.30099157467E+02  0.11428396672E+02  0.40659140775E+02  0.00000000000E+00 0. -1.
         11    1    3    3    0    0 -0.93099412246E+01  0.23864215056E+02 -0.13403462577E+02  0.28910700012E+02  0.51100000000E-03 0. -1.
        -11    1    3    3    0    0 -0.16309385403E+02  0.56316361029E+01  0.53783584892E+01  0.18073132483E+02  0.51100000000E-03 0.  1.
         12    1    3    3    0    0  0.78793122113E+00  0.60330630814E+00 -0.34032925836E+01  0.35450267306E+01  0.00000000000E+00 0. -1.
</event>
<event>
 7    1  0.3041451E-011  0.5052886E+02  0.7816164E-02  0.1300439E+00
        -11   -1    0    0    0    0  0.00000000000E+00  0.00000000000E+00  0.45593999997E+02  0.45594000000E+02  0.51100000000E-03 0.  1.
         11   -1    0    0    0    0 -0.00000000000E+00 -0.00000000000E+00 -0.45593999997E+02  0.45594000000E+02  0.51100000000E-03 0. -1.
    9900012    2    1    2    0    0  0.27892558137E+02 -0.22831615898E+02 -0.18811912657E+02  0.50528861522E+02  0.30000005083E+02 0.  0.
         12    1    1    2    0    0 -0.27892558137E+02  0.22831615898E+02  0.18811912657E+02  0.40659138478E+02  0.00000000000E+00 0. -1.
         11    1    3    3    0    0  0.28515139819E+01 -0.16771007854E+01 -0.11282698241E+02  0.11757681697E+02  0.51100000000E-03 0. -1.
        -11    1    3    3    0    0  0.19745915003E+02 -0.17882931687E+02  0.27213738375E+01  0.26778840170E+02  0.51100000000E-03 0.  1.
        -12    1    3    3    0    0  0.52951291520E+01 -0.32715834254E+01 -0.10250588253E+02  0.11992339654E+02  0.00000000000E+00 0.  1.
</event>
<event>
 7    1  0.3041451E-011  0.5052886E+02  0.7816164E-02  0.1300439E+00
        -11   -1    0    0    0    0  0.00000000000E+00  0.00000000000E+00  0.45593999997E+02  0.45594000000E+02  0.51100000000E-03 0.  1.
         11   -1    0    0    0    0 -0.00000000000E+00 -0.00000000000E+00 -0.45593999997E+02  0.45594000000E+02  0.51100000000E-03 0. -1.
    9900012    2    1    2    0    0  0.15498929197E+02  0.16083121894E+02  0.33974730056E+02  0.50528857135E+02  0.29999991748E+02 0.  0.
         12    1    1    2    0    0 -0.15498929197E+02 -0.16083121894E+02 -0.33974730056E+02  0.40659142865E+02  0.00000000000E+00 0. -1.
         11    1    3    3    0    0  0.48904211374E+01  0.40808583559E+01 -0.14454285382E+01  0.65313771704E+01  0.51100000000E-03 0. -1.
        -11    1    3    3    0    0  0.22510997432E+01  0.95233848515E+01  0.33726088431E+02  0.35117109081E+02  0.51100000000E-03 0.  1.
        -12    1    3    3    0    0  0.83574083162E+01  0.24788786870E+01  0.16940701631E+01  0.88803708833E+01  0.00000000000E+00 0.  1.
</event>
<event>
 7    1  0.3041451E-011  0.5052886E+02  0.7816164E-02  0.1300439E+00
        -11   -1    0    0    0    0  0.00000000000E+00  0.00000000000E+00  0.45593999997E+02  0.45594000000E+02  0.51100000000E-03 0. -1.
         11   -1    0    0    0    0 -0.00000000000E+00 -0.00000000000E+00 -0.45593999997E+02  0.45594000000E+02  0.51100000000E-03 0.  1.
    9900012    2    1    2    0    0 -0.17413352408E+02  0.12187107661E+02 -0.34661433957E+02  0.50528862784E+02  0.30000008917E+02 0.  0.
         12    1    1    2    0    0  0.17413352408E+02 -0.12187107661E+02  0.34661433957E+02  0.40659137216E+02  0.00000000000E+00 0. -1.
         11    1    3    3    0    0  0.87465132419E+00  0.11992887710E+02 -0.10281734927E+02  0.15821139148E+02  0.51100000000E-03 0. -1.
        -11    1    3    3    0    0 -0.27215142377E+01 -0.33594636913E+01  0.12594903636E+01  0.45032157706E+01  0.51100000000E-03 0.  1.
         12    1    3    3    0    0 -0.15566489495E+02  0.35536836426E+01 -0.25639189393E+02  0.30204507865E+02  0.00000000000E+00 0. -1.
</event>
<event>
 7    1  0.3041451E-011  0.5052886E+02  0.7816164E-02  0.1300439E+00
        -11   -1    0    0    0    0  0.00000000000E+00  0.00000000000E+00  0.45593999997E+02  0.45594000000E+02  0.51100000000E-03 0.  1.
         11   -1    0    0    0    0 -0.00000000000E+00 -0.00000000000E+00 -0.45593999997E+02  0.45594000000E+02  0.51100000000E-03 0. -1.
    9900012    2    1    2    0    0  0.36710920140E+01  0.14338617712E+02  0.37869416093E+02  0.50528861424E+02  0.30000004785E+02 0.  0.
         12    1    1    2    0    0 -0.36710920140E+01 -0.14338617712E+02 -0.37869416093E+02  0.40659138576E+02  0.00000000000E+00 0. -1.
         11    1    3    3    0    0  0.14948807264E+02  0.12344212830E+02  0.24186979489E+02  0.30997683882E+02  0.51100000000E-03 0. -1.
        -11    1    3    3    0    0 -0.24529290678E+01 -0.84477801139E+00  0.85500700844E+01  0.89349991388E+01  0.51100000000E-03 0.  1.
         12    1    3    3    0    0 -0.88247861821E+01  0.28391828937E+01  0.51323665202E+01  0.10596178404E+02  0.00000000000E+00 0. -1.
</event>
<event>
 7    1  0.3041451E-011  0.5052887E+02  0.7816164E-02  0.1300439E+00
        -11   -1    0    0    0    0  0.00000000000E+00  0.00000000000E+00  0.45593999997E+02  0.45594000000E+02  0.51100000000E-03 0. -1.
         11   -1    0    0    0    0 -0.00000000000E+00 -0.00000000000E+00 -0.45593999997E+02  0.45594000000E+02  0.51100000000E-03 0.  1.
    9900012    2    1    2    0    0  0.15346810042E+02 -0.37340031523E+02 -0.48334891614E+01  0.50528866339E+02  0.30000019723E+02 0.  0.
         12    1    1    2    0    0 -0.15346810042E+02  0.37340031523E+02  0.48334891614E+01  0.40659133661E+02  0.00000000000E+00 0. -1.
         11    1    3    3    0    0  0.77530561031E+01 -0.90919299917E+01 -0.11991428259E+02  0.16928302391E+02  0.51100000000E-03 0. -1.
        -11    1    3    3    0    0  0.11187255904E+02 -0.19083187067E+02  0.13300699112E+01  0.22160591362E+02  0.51100000000E-03 0.  1.
         12    1    3    3    0    0 -0.35935019643E+01 -0.91649144647E+01  0.58278691861E+01  0.11439972586E+02  0.00000000000E+00 0. -1.
</event>
<event>
 7    1  0.3041451E-011  0.5052876E+02  0.7816164E-02  0.1300439E+00
        -11   -1    0    0    0    0  0.00000000000E+00  0.00000000000E+00  0.45593999997E+02  0.45594000000E+02  0.51100000000E-03 0.  1.
         11   -1    0    0    0    0 -0.00000000000E+00 -0.00000000000E+00 -0.45593999997E+02  0.45594000000E+02  0.51100000000E-03 0. -1.
    9900012    2    1    2    0    0  0.10183691327E+02  0.31378021423E+02  0.23767333776E+02  0.50528758095E+02  0.29999690704E+02 0.  0.
         12    1    1    2    0    0 -0.10183691327E+02 -0.31378021423E+02 -0.23767333776E+02  0.40659241905E+02  0.00000000000E+00 0. -1.
         11    1    3    3    0    0 -0.71352116374E+01  0.94272557584E+01 -0.23765842757E+01  0.12059541837E+02  0.51100000000E-03 0. -1.
        -11    1    3    3    0    0  0.12197025555E+02  0.12593257594E+02  0.15529971360E+02  0.23420879145E+02  0.51100000000E-03 0.  1.
         12    1    3    3    0    0  0.51218774091E+01  0.93575080707E+01  0.10613946691E+02  0.15048337112E+02  0.00000000000E+00 0. -1.
</event>
<event>
 7    1  0.3041451E-011  0.5052884E+02  0.7816164E-02  0.1300439E+00
        -11   -1    0    0    0    0  0.00000000000E+00  0.00000000000E+00  0.45593999997E+02  0.45594000000E+02  0.51100000000E-03 0.  1.
         11   -1    0    0    0    0 -0.00000000000E+00 -0.00000000000E+00 -0.45593999997E+02  0.45594000000E+02  0.51100000000E-03 0. -1.
    9900012    2    1    2    0    0  0.23678814162E+02  0.13819134100E+01  0.33023801319E+02  0.50528838938E+02  0.29999936434E+02 0.  0.
         12    1    1    2    0    0 -0.23678814162E+02 -0.13819134100E+01 -0.33023801319E+02  0.40659161062E+02  0.00000000000E+00 0. -1.
         11    1    3    3    0    0 -0.10618789481E+01  0.48181700127E+01 -0.32575055046E+01  0.59121647090E+01  0.51100000000E-03 0. -1.
        -11    1    3    3    0    0  0.48566786034E+01 -0.19260229735E+01  0.12708765920E+02  0.13740801397E+02  0.51100000000E-03 0.  1.
         12    1    3    3    0    0  0.19884014506E+02 -0.15102336293E+01  0.23572540903E+02  0.30875872832E+02  0.00000000000E+00 0. -1.
</event>
<event>
 7    1  0.3041451E-011  0.5052885E+02  0.7816164E-02  0.1300439E+00
        -11   -1    0    0    0    0  0.00000000000E+00  0.00000000000E+00  0.45593999997E+02  0.45594000000E+02  0.51100000000E-03 0.  1.
         11   -1    0    0    0    0 -0.00000000000E+00 -0.00000000000E+00 -0.45593999997E+02  0.45594000000E+02  0.51100000000E-03 0. -1.
    9900012    2    1    2    0    0 -0.32990163641E+02  0.18765351800E+02  0.14583464029E+02  0.50528846685E+02  0.29999959982E+02 0.  0.
         12    1    1    2    0    0  0.32990163641E+02 -0.18765351800E+02 -0.14583464029E+02  0.40659153315E+02  0.00000000000E+00 0. -1.
         11    1    3    3    0    0 -0.49871593467E+01  0.13774164007E+02  0.16402031852E+02  0.21991498393E+02  0.51100000000E-03 0. -1.
        -11    1    3    3    0    0 -0.18848728562E+02  0.40174358083E+01 -0.11025784807E+01  0.19303627598E+02  0.51100000000E-03 0.  1.
         12    1    3    3    0    0 -0.91542757322E+01  0.97375198483E+00 -0.71598934190E+00  0.92337206936E+01  0.00000000000E+00 0. -1.
</event>
<event>
 7    1  0.3041451E-011  0.5052887E+02  0.7816164E-02  0.1300439E+00
        -11   -1    0    0    0    0  0.00000000000E+00  0.00000000000E+00  0.45593999997E+02  0.45594000000E+02  0.51100000000E-03 0. -1.
         11   -1    0    0    0    0 -0.00000000000E+00 -0.00000000000E+00 -0.45593999997E+02  0.45594000000E+02  0.51100000000E-03 0.  1.
    9900012    2    1    2    0    0 -0.14322126374E+02 -0.35326488018E+02 -0.14144996935E+02  0.50528868211E+02  0.30000025414E+02 0.  0.
         12    1    1    2    0    0  0.14322126374E+02  0.35326488018E+02  0.14144996935E+02  0.40659131789E+02  0.00000000000E+00 0. -1.
         11    1    3    3    0    0 -0.60252067175E+01 -0.11537016765E+02  0.88634428054E+01  0.15746951783E+02  0.51100000000E-03 0. -1.
        -11    1    3    3    0    0 -0.28290563969E+01 -0.10464831049E+02 -0.56444230483E+01  0.12221937685E+02  0.51100000000E-03 0.  1.
         12    1    3    3    0    0 -0.54678632592E+01 -0.13324640204E+02 -0.17364016692E+02  0.22559978743E+02  0.00000000000E+00 0. -1.
</event>
<event>
 7    1  0.3041451E-011  0.5052886E+02  0.7816164E-02  0.1300439E+00
        -11   -1    0    0    0    0  0.00000000000E+00  0.00000000000E+00  0.45593999997E+02  0.45594000000E+02  0.51100000000E-03 0.  1.
         11   -1    0    0    0    0 -0.00000000000E+00 -0.00000000000E+00 -0.45593999997E+02  0.45594000000E+02  0.51100000000E-03 0. -1.
    9900012    2    1    2    0    0 -0.22847808518E+02 -0.18393288247E+02  0.28157244749E+02  0.50528857873E+02  0.29999993990E+02 0.  0.
         12    1    1    2    0    0  0.22847808518E+02  0.18393288247E+02 -0.28157244749E+02  0.40659142127E+02  0.00000000000E+00 0. -1.
         11    1    3    3    0    0 -0.17830834607E+02  0.26649402203E+00  0.51904179610E+01  0.18572832868E+02  0.51100000000E-03 0. -1.
        -11    1    3    3    0    0  0.14541386090E+01 -0.11538298561E+02  0.17120402622E+02  0.20696739815E+02  0.51100000000E-03 0.  1.
        -12    1    3    3    0    0 -0.64711125200E+01 -0.71214837085E+01  0.58464241662E+01  0.11259285190E+02  0.00000000000E+00 0.  1.
</event>
<event>
 7    1  0.3041451E-011  0.5052886E+02  0.7816164E-02  0.1300439E+00
        -11   -1    0    0    0    0  0.00000000000E+00  0.00000000000E+00  0.45593999997E+02  0.45594000000E+02  0.51100000000E-03 0.  1.
         11   -1    0    0    0    0 -0.00000000000E+00 -0.00000000000E+00 -0.45593999997E+02  0.45594000000E+02  0.51100000000E-03 0. -1.
    9900012    2    1    2    0    0 -0.34169421935E+02 -0.44291534990E+01  0.21587002320E+02  0.50528862463E+02  0.30000007942E+02 0.  0.
         12    1    1    2    0    0  0.34169421935E+02  0.44291534990E+01 -0.21587002320E+02  0.40659137537E+02  0.00000000000E+00 0. -1.
         11    1    3    3    0    0 -0.25784543808E+02  0.83940374835E+01  0.17454893570E+02  0.32248656941E+02  0.51100000000E-03 0. -1.
        -11    1    3    3    0    0 -0.10253683494E+02 -0.94231030764E+01  0.33214494023E+01  0.14316596075E+02  0.51100000000E-03 0.  1.
         12    1    3    3    0    0  0.18688053672E+01 -0.34000879061E+01  0.81065934780E+00  0.39636094469E+01  0.00000000000E+00 0. -1.
</event>
<event>
 7    1  0.3041451E-011  0.5052886E+02  0.7816164E-02  0.1300439E+00
        -11   -1    0    0    0    0  0.00000000000E+00  0.00000000000E+00  0.45593999997E+02  0.45594000000E+02  0.51100000000E-03 0. -1.
         11   -1    0    0    0    0 -0.00000000000E+00 -0.00000000000E+00 -0.45593999997E+02  0.45594000000E+02  0.51100000000E-03 0.  1.
    9900012    2    1    2    0    0 -0.11116805150E+02  0.24578855223E+02 -0.30421409390E+02  0.50528860436E+02  0.30000001782E+02 0.  0.
         12    1    1    2    0    0  0.11116805150E+02 -0.24578855223E+02  0.30421409390E+02  0.40659139564E+02  0.00000000000E+00 0. -1.
         11    1    3    3    0    0 -0.14931198378E+02  0.12912297769E+02 -0.15215783075E+02  0.24923646874E+02  0.51100000000E-03 0.  1.
        -11    1    3    3    0    0  0.79892112094E+01  0.13172952131E+02 -0.85914385237E+01  0.17639925730E+02  0.51100000000E-03 0. -1.
        -12    1    3    3    0    0 -0.41748179812E+01 -0.15063946775E+01 -0.66141877912E+01  0.79652878314E+01  0.00000000000E+00 0.  1.
</event>
<event>
 7    1  0.3041451E-011  0.5052886E+02  0.7816164E-02  0.1300439E+00
        -11   -1    0    0    0    0  0.00000000000E+00  0.00000000000E+00  0.45593999997E+02  0.45594000000E+02  0.51100000000E-03 0. -1.
         11   -1    0    0    0    0 -0.00000000000E+00 -0.00000000000E+00 -0.45593999997E+02  0.45594000000E+02  0.51100000000E-03 0.  1.
    9900012    2    1    2    0    0  0.28702670899E+02  0.86856499386E+01 -0.27456901541E+02  0.50528864817E+02  0.30000015097E+02 0.  0.
         12    1    1    2    0    0 -0.28702670899E+02 -0.86856499386E+01  0.27456901541E+02  0.40659135183E+02  0.00000000000E+00 0. -1.
         11    1    3    3    0    0  0.95038989366E+01 -0.68632613351E+01 -0.32195569658E+01  0.12157055502E+02  0.51100000000E-03 0. -1.
        -11    1    3    3    0    0  0.94764912085E+01  0.17127645404E+02 -0.18705798411E+02  0.27075210381E+02  0.51100000000E-03 0.  1.
         12    1    3    3    0    0  0.97222807540E+01 -0.15787341301E+01 -0.55315461648E+01  0.11296598934E+02  0.00000000000E+00 0. -1.
</event>
<event>
 7    1  0.3041451E-011  0.5052884E+02  0.7816164E-02  0.1300439E+00
        -11   -1    0    0    0    0  0.00000000000E+00  0.00000000000E+00  0.45593999997E+02  0.45594000000E+02  0.51100000000E-03 0.  1.
         11   -1    0    0    0    0 -0.00000000000E+00 -0.00000000000E+00 -0.45593999997E+02  0.45594000000E+02  0.51100000000E-03 0. -1.
    9900012    2    1    2    0    0  0.18566303695E+02 -0.28492304218E+02  0.22285601707E+02  0.50528842655E+02  0.29999947735E+02 0.  0.
         12    1    1    2    0    0 -0.18566303695E+02  0.28492304218E+02 -0.22285601707E+02  0.40659157345E+02  0.00000000000E+00 0. -1.
         11    1    3    3    0    0 -0.15568430366E+01  0.24663272110E+01 -0.70361394089E-01  0.29174442821E+01  0.51100000000E-03 0. -1.
        -11    1    3    3    0    0  0.19971368977E+02 -0.27533429927E+02  0.25845585585E+02  0.42719312224E+02  0.51100000000E-03 0.  1.
        -12    1    3    3    0    0  0.15177775382E+00 -0.34252015015E+01 -0.34896224838E+01  0.48920861493E+01  0.00000000000E+00 0.  1.
</event>
<event>
 7    1  0.3041451E-011  0.5052885E+02  0.7816164E-02  0.1300439E+00
        -11   -1    0    0    0    0  0.00000000000E+00  0.00000000000E+00  0.45593999997E+02  0.45594000000E+02  0.51100000000E-03 0. -1.
         11   -1    0    0    0    0 -0.00000000000E+00 -0.00000000000E+00 -0.45593999997E+02  0.45594000000E+02  0.51100000000E-03 0.  1.
    9900012    2    1    2    0    0  0.70896863619E+01 -0.39860913240E+02  0.37430113612E+01  0.50528853537E+02  0.29999980812E+02 0.  0.
         12    1    1    2    0    0 -0.70896863619E+01  0.39860913240E+02 -0.37430113612E+01  0.40659146463E+02  0.00000000000E+00 0. -1.
         11    1    3    3    0    0  0.11073643831E+00 -0.88611586175E+01 -0.11516000039E+02  0.14531023768E+02  0.51100000000E-03 0.  1.
        -11    1    3    3    0    0  0.66635473733E+01 -0.14416614001E+02  0.91044421188E+01  0.18306624194E+02  0.51100000000E-03 0. -1.
        -12    1    3    3    0    0  0.31540255033E+00 -0.16583140622E+02  0.61545692812E+01  0.17691205574E+02  0.00000000000E+00 0.  1.
</event>
<event>
 7    1  0.3041451E-011  0.5052887E+02  0.7816164E-02  0.1300439E+00
        -11   -1    0    0    0    0  0.00000000000E+00  0.00000000000E+00  0.45593999997E+02  0.45594000000E+02  0.51100000000E-03 0.  1.
         11   -1    0    0    0    0 -0.00000000000E+00 -0.00000000000E+00 -0.45593999997E+02  0.45594000000E+02  0.51100000000E-03 0. -1.
    9900012    2    1    2    0    0 -0.34113294888E+02 -0.19637118395E+02  0.10189764047E+02  0.50528873124E+02  0.30000040348E+02 0.  0.
         12    1    1    2    0    0  0.34113294888E+02  0.19637118395E+02 -0.10189764047E+02  0.40659126876E+02  0.00000000000E+00 0. -1.
         11    1    3    3    0    0 -0.79147331714E+01 -0.69109465469E+01 -0.71732987654E+01  0.12722436826E+02  0.51100000000E-03 0. -1.
        -11    1    3    3    0    0 -0.34033826895E+01 -0.79458145610E+01  0.10345020400E+02  0.13481039652E+02  0.51100000000E-03 0.  1.
        -12    1    3    3    0    0 -0.22795179027E+02 -0.47803572868E+01  0.70180424125E+01  0.24325396646E+02  0.00000000000E+00 0.  1.
</event>
<event>
 7    1  0.3041451E-011  0.5052886E+02  0.7816164E-02  0.1300439E+00
        -11   -1    0    0    0    0  0.00000000000E+00  0.00000000000E+00  0.45593999997E+02  0.45594000000E+02  0.51100000000E-03 0.  1.
         11   -1    0    0    0    0 -0.00000000000E+00 -0.00000000000E+00 -0.45593999997E+02  0.45594000000E+02  0.51100000000E-03 0. -1.
    9900012    2    1    2    0    0  0.39400448525E+02 -0.19260506127E+01  0.98519485238E+01  0.50528857060E+02  0.29999991519E+02 0.  0.
         12    1    1    2    0    0 -0.39400448525E+02  0.19260506127E+01 -0.98519485238E+01  0.40659142940E+02  0.00000000000E+00 0. -1.
         11    1    3    3    0    0  0.60455803747E+01 -0.44151790279E+01 -0.37066789044E+01  0.83535810690E+01  0.51100000000E-03 0. -1.
        -11    1    3    3    0    0  0.15566607019E+02  0.11128255016E+02  0.11422173141E+02  0.22285047752E+02  0.51100000000E-03 0.  1.
        -12    1    3    3    0    0  0.17788261131E+02 -0.86391266006E+01  0.21364542872E+01  0.19890228239E+02  0.00000000000E+00 0.  1.
</event>
<event>
 7    1  0.3041451E-011  0.5052886E+02  0.7816164E-02  0.1300439E+00
        -11   -1    0    0    0    0  0.00000000000E+00  0.00000000000E+00  0.45593999997E+02  0.45594000000E+02  0.51100000000E-03 0. -1.
         11   -1    0    0    0    0 -0.00000000000E+00 -0.00000000000E+00 -0.45593999997E+02  0.45594000000E+02  0.51100000000E-03 0.  1.
    9900012    2    1    2    0    0 -0.32333038326E+02  0.24570627814E+02  0.20062170252E+01  0.50528855576E+02  0.29999987009E+02 0.  0.
         12    1    1    2    0    0  0.32333038326E+02 -0.24570627814E+02 -0.20062170252E+01  0.40659144424E+02  0.00000000000E+00 0. -1.
         11    1    3    3    0    0 -0.93199666587E+01  0.60319624661E+01  0.12341428693E+02  0.16599916029E+02  0.51100000000E-03 0. -1.
        -11    1    3    3    0    0 -0.14720030772E+02  0.13613631011E+02 -0.13032673320E+02  0.23913611801E+02  0.51100000000E-03 0.  1.
        -12    1    3    3    0    0 -0.82930408953E+01  0.49250343364E+01  0.26974616522E+01  0.10015327747E+02  0.00000000000E+00 0.  1.
</event>
<event>
 7    1  0.3041451E-011  0.5052882E+02  0.7816164E-02  0.1300439E+00
        -11   -1    0    0    0    0  0.00000000000E+00  0.00000000000E+00  0.45593999997E+02  0.45594000000E+02  0.51100000000E-03 0.  1.
         11   -1    0    0    0    0 -0.00000000000E+00 -0.00000000000E+00 -0.45593999997E+02  0.45594000000E+02  0.51100000000E-03 0. -1.
    9900012    2    1    2    0    0 -0.29354723339E+02  0.25793536344E+02  0.11232212010E+02  0.50528820396E+02  0.29999880076E+02 0.  0.
         12    1    1    2    0    0  0.29354723339E+02 -0.25793536344E+02 -0.11232212010E+02  0.40659179604E+02  0.00000000000E+00 0. -1.
         11    1    3    3    0    0 -0.90223517559E+01  0.10120253518E+00  0.12325726112E+02  0.15275359165E+02  0.51100000000E-03 0. -1.
        -11    1    3    3    0    0 -0.13117921578E+02  0.20735645229E+02  0.43875958130E+01  0.24925846964E+02  0.51100000000E-03 0.  1.
         12    1    3    3    0    0 -0.72144500048E+01  0.49566885799E+01 -0.54811099156E+01  0.10327614267E+02  0.00000000000E+00 0. -1.
</event>
<event>
 7    1  0.3041451E-011  0.5052881E+02  0.7816164E-02  0.1300439E+00
        -11   -1    0    0    0    0  0.00000000000E+00  0.00000000000E+00  0.45593999997E+02  0.45594000000E+02  0.51100000000E-03 0.  1.
         11   -1    0    0    0    0 -0.00000000000E+00 -0.00000000000E+00 -0.45593999997E+02  0.45594000000E+02  0.51100000000E-03 0. -1.
    9900012    2    1    2    0    0 -0.27293852975E+02 -0.13542005682E+02  0.26922656752E+02  0.50528809468E+02  0.29999846859E+02 0.  0.
         12    1    1    2    0    0  0.27293852975E+02  0.13542005682E+02 -0.26922656752E+02  0.40659190532E+02  0.00000000000E+00 0. -1.
         11    1    3    3    0    0 -0.16121593989E+02  0.45929226940E+01  0.37530282498E+01  0.17178066042E+02  0.51100000000E-03 0. -1.
        -11    1    3    3    0    0 -0.13347554846E+02 -0.15664080703E+02  0.18753744286E+02  0.27842836954E+02  0.51100000000E-03 0.  1.
        -12    1    3    3    0    0  0.21752958597E+01 -0.24708476729E+01  0.44158842158E+01  0.55079064723E+01  0.00000000000E+00 0.  1.
</event>
<event>
 7    1  0.3041451E-011  0.5052886E+02  0.7816164E-02  0.1300439E+00
        -11   -1    0    0    0    0  0.00000000000E+00  0.00000000000E+00  0.45593999997E+02  0.45594000000E+02  0.51100000000E-03 0.  1.
         11   -1    0    0    0    0 -0.00000000000E+00 -0.00000000000E+00 -0.45593999997E+02  0.45594000000E+02  0.51100000000E-03 0. -1.
    9900012    2    1    2    0    0  0.11032191835E+02  0.31430510354E+02  0.23314797833E+02  0.50528855447E+02  0.29999986616E+02 0.  0.
         12    1    1    2    0    0 -0.11032191835E+02 -0.31430510354E+02 -0.23314797833E+02  0.40659144553E+02  0.00000000000E+00 0. -1.
         11    1    3    3    0    0  0.31704436060E+01  0.24291144093E+02  0.69750768592E+01  0.25470828244E+02  0.51100000000E-03 0.  1.
        -11    1    3    3    0    0 -0.10978121497E+01  0.87444922481E+00  0.13751816786E+02  0.13823252806E+02  0.51100000000E-03 0. -1.
         12    1    3    3    0    0  0.89595603790E+01  0.62649170365E+01  0.25879041885E+01  0.11234774397E+02  0.00000000000E+00 0. -1.
</event>
<event>
 7    1  0.3041451E-011  0.5052888E+02  0.7816164E-02  0.1300439E+00
        -11   -1    0    0    0    0  0.00000000000E+00  0.00000000000E+00  0.45593999997E+02  0.45594000000E+02  0.51100000000E-03 0.  1.
         11   -1    0    0    0    0 -0.00000000000E+00 -0.00000000000E+00 -0.45593999997E+02  0.45594000000E+02  0.51100000000E-03 0. -1.
    9900012    2    1    2    0    0  0.75249412603E+01 -0.33160705821E+02  0.22291417131E+02  0.50528875203E+02  0.30000046668E+02 0.  0.
         12    1    1    2    0    0 -0.75249412603E+01  0.33160705821E+02 -0.22291417131E+02  0.40659124797E+02  0.00000000000E+00 0. -1.
         11    1    3    3    0    0 -0.25311599759E+01 -0.33683004991E+02  0.16838170384E+02  0.37742225401E+02  0.51100000000E-03 0. -1.
        -11    1    3    3    0    0  0.61081021321E+01  0.14650693694E+01  0.38467041006E+00  0.62931161993E+01  0.51100000000E-03 0.  1.
        -12    1    3    3    0    0  0.39479991041E+01 -0.94277019957E+00  0.50685763365E+01  0.64935336030E+01  0.00000000000E+00 0.  1.
</event>
<event>
 7    1  0.3041451E-011  0.5052886E+02  0.7816164E-02  0.1300439E+00
        -11   -1    0    0    0    0  0.00000000000E+00  0.00000000000E+00  0.45593999997E+02  0.45594000000E+02  0.51100000000E-03 0.  1.
         11   -1    0    0    0    0 -0.00000000000E+00 -0.00000000000E+00 -0.45593999997E+02  0.45594000000E+02  0.51100000000E-03 0. -1.
    9900012    2    1    2    0    0  0.15980427648E+02  0.13258464088E+02  0.34957183213E+02  0.50528860856E+02  0.30000003057E+02 0.  0.
         12    1    1    2    0    0 -0.15980427648E+02 -0.13258464088E+02 -0.34957183213E+02  0.40659139144E+02  0.00000000000E+00 0. -1.
         11    1    3    3    0    0  0.42420167727E+01  0.19559357468E+02  0.16775260623E+02  0.26114603963E+02  0.51100000000E-03 0. -1.
        -11    1    3    3    0    0  0.66380551378E-01 -0.39261302840E+01  0.72590362425E+01  0.82530305232E+01  0.51100000000E-03 0.  1.
         12    1    3    3    0    0  0.11672030323E+02 -0.23747630966E+01  0.10922886347E+02  0.16161226370E+02  0.00000000000E+00 0. -1.
</event>
<event>
 7    1  0.3041451E-011  0.5052886E+02  0.7816164E-02  0.1300439E+00
        -11   -1    0    0    0    0  0.00000000000E+00  0.00000000000E+00  0.45593999997E+02  0.45594000000E+02  0.51100000000E-03 0.  1.
         11   -1    0    0    0    0 -0.00000000000E+00 -0.00000000000E+00 -0.45593999997E+02  0.45594000000E+02  0.51100000000E-03 0. -1.
    9900012    2    1    2    0    0  0.16017696657E+02  0.29029217077E+02  0.23535153440E+02  0.50528862063E+02  0.30000006727E+02 0.  0.
         12    1    1    2    0    0 -0.16017696657E+02 -0.29029217077E+02 -0.23535153440E+02  0.40659137937E+02  0.00000000000E+00 0. -1.
         11    1    3    3    0    0 -0.22680623265E+01  0.10037421382E+02 -0.47062052969E+01  0.11315577903E+02  0.51100000000E-03 0. -1.
        -11    1    3    3    0    0  0.14491091966E+02  0.17535414049E+02  0.26089619090E+02  0.34614313755E+02  0.51100000000E-03 0.  1.
        -12    1    3    3    0    0  0.37946670177E+01  0.14563816462E+01  0.21517396472E+01  0.45989704048E+01  0.00000000000E+00 0.  1.
</event>
<event>
 7    1  0.3041451E-011  0.5052886E+02  0.7816164E-02  0.1300439E+00
        -11   -1    0    0    0    0  0.00000000000E+00  0.00000000000E+00  0.45593999997E+02  0.45594000000E+02  0.51100000000E-03 0. -1.
         11   -1    0    0    0    0 -0.00000000000E+00 -0.00000000000E+00 -0.45593999997E+02  0.45594000000E+02  0.51100000000E-03 0.  1.
    9900012    2    1    2    0    0  0.13560283584E+02 -0.37083919236E+02  0.96988259237E+01  0.50528861038E+02  0.30000003612E+02 0.  0.
         12    1    1    2    0    0 -0.13560283584E+02  0.37083919236E+02 -0.96988259237E+01  0.40659138962E+02  0.00000000000E+00 0. -1.
         11    1    3    3    0    0  0.11964029225E+02 -0.20742465799E+01  0.59999692221E+01  0.13544006981E+02  0.51100000000E-03 0. -1.
        -11    1    3    3    0    0  0.74431079551E+00 -0.15899852973E+02  0.73143181669E+01  0.17517379189E+02  0.51100000000E-03 0.  1.
         12    1    3    3    0    0  0.85194356311E+00 -0.19109819683E+02 -0.36154614653E+01  0.19467474869E+02  0.00000000000E+00 0. -1.
</event>
<event>
 7    1  0.3041451E-011  0.5052886E+02  0.7816164E-02  0.1300439E+00
        -11   -1    0    0    0    0  0.00000000000E+00  0.00000000000E+00  0.45593999997E+02  0.45594000000E+02  0.51100000000E-03 0.  1.
         11   -1    0    0    0    0 -0.00000000000E+00 -0.00000000000E+00 -0.45593999997E+02  0.45594000000E+02  0.51100000000E-03 0. -1.
    9900012    2    1    2    0    0 -0.26053942436E+01 -0.40574753635E+02  0.25911385830E+00  0.50528857711E+02  0.29999993499E+02 0.  0.
         12    1    1    2    0    0  0.26053942436E+01  0.40574753635E+02 -0.25911385830E+00  0.40659142289E+02  0.00000000000E+00 0. -1.
         11    1    3    3    0    0  0.63101924068E+01 -0.51267464400E+01  0.80692555249E+01  0.11454909090E+02  0.51100000000E-03 0. -1.
        -11    1    3    3    0    0 -0.10788102652E+02 -0.26307513821E+02 -0.30419181228E+01  0.28595833759E+02  0.51100000000E-03 0.  1.
         12    1    3    3    0    0  0.18725160018E+01 -0.91404933739E+01 -0.47682235438E+01  0.10478114862E+02  0.00000000000E+00 0. -1.
</event>
<event>
 7    1  0.3041451E-011  0.5052886E+02  0.7816164E-02  0.1300439E+00
        -11   -1    0    0    0    0  0.00000000000E+00  0.00000000000E+00  0.45593999997E+02  0.45594000000E+02  0.51100000000E-03 0. -1.
         11   -1    0    0    0    0 -0.00000000000E+00 -0.00000000000E+00 -0.45593999997E+02  0.45594000000E+02  0.51100000000E-03 0.  1.
    9900012    2    1    2    0    0  0.39256550135E+02 -0.80569107973E+01 -0.68684028848E+01  0.50528862057E+02  0.30000006708E+02 0.  0.
         12    1    1    2    0    0 -0.39256550135E+02  0.80569107973E+01  0.68684028848E+01  0.40659137943E+02  0.00000000000E+00 0. -1.
         11    1    3    3    0    0  0.69536578337E+01  0.97216142639E+00  0.65105859604E+01  0.95752903307E+01  0.51100000000E-03 0. -1.
        -11    1    3    3    0    0  0.24417097893E+02 -0.33691420542E+01 -0.17683060587E+02  0.30335398788E+02  0.51100000000E-03 0.  1.
        -12    1    3    3    0    0  0.78857944087E+01 -0.56599301695E+01  0.43040717414E+01  0.10618172938E+02  0.00000000000E+00 0.  1.
</event>
<event>
 7    1  0.3041451E-011  0.5052888E+02  0.7816164E-02  0.1300439E+00
        -11   -1    0    0    0    0  0.00000000000E+00  0.00000000000E+00  0.45593999997E+02  0.45594000000E+02  0.51100000000E-03 0. -1.
         11   -1    0    0    0    0 -0.00000000000E+00 -0.00000000000E+00 -0.45593999997E+02  0.45594000000E+02  0.51100000000E-03 0.  1.
    9900012    2    1    2    0    0 -0.15833196049E+02 -0.22417983233E+02 -0.29998471894E+02  0.50528875743E+02  0.30000048309E+02 0.  0.
         12    1    1    2    0    0  0.15833196049E+02  0.22417983233E+02  0.29998471894E+02  0.40659124257E+02  0.00000000000E+00 0. -1.
         11    1    3    3    0    0  0.30521011438E+01 -0.16745082858E+02 -0.13331856374E+02  0.21620627095E+02  0.51100000000E-03 0.  1.
        -11    1    3    3    0    0 -0.20855235895E+02 -0.54052093436E+01 -0.15905420734E+02  0.26779461557E+02  0.51100000000E-03 0. -1.
         12    1    3    3    0    0  0.19699387024E+01 -0.26769103126E+00 -0.76119478537E+00  0.21287870914E+01  0.00000000000E+00 0. -1.
</event>
<event>
 7    1  0.3041451E-011  0.5052885E+02  0.7816164E-02  0.1300439E+00
        -11   -1    0    0    0    0  0.00000000000E+00  0.00000000000E+00  0.45593999997E+02  0.45594000000E+02  0.51100000000E-03 0.  1.
         11   -1    0    0    0    0 -0.00000000000E+00 -0.00000000000E+00 -0.45593999997E+02  0.45594000000E+02  0.51100000000E-03 0. -1.
    9900012    2    1    2    0    0  0.10099378507E+02 -0.94684822336E+01  0.38229789294E+02  0.50528851072E+02  0.29999973319E+02 0.  0.
         12    1    1    2    0    0 -0.10099378507E+02  0.94684822336E+01 -0.38229789294E+02  0.40659148928E+02  0.00000000000E+00 0. -1.
         11    1    3    3    0    0 -0.68662572474E+01 -0.26335689687E+01  0.88887172011E+01  0.11536484206E+02  0.51100000000E-03 0. -1.
        -11    1    3    3    0    0  0.15113580537E+02 -0.59810619183E+00  0.28716635814E+02  0.32456481948E+02  0.51100000000E-03 0.  1.
        -12    1    3    3    0    0  0.18520552181E+01 -0.62368070731E+01  0.62443627892E+00  0.65358849182E+01  0.00000000000E+00 0.  1.
</event>
<event>
 7    1  0.3041451E-011  0.5052886E+02  0.7816164E-02  0.1300439E+00
        -11   -1    0    0    0    0  0.00000000000E+00  0.00000000000E+00  0.45593999997E+02  0.45594000000E+02  0.51100000000E-03 0.  1.
         11   -1    0    0    0    0 -0.00000000000E+00 -0.00000000000E+00 -0.45593999997E+02  0.45594000000E+02  0.51100000000E-03 0. -1.
    9900012    2    1    2    0    0 -0.65139466080E+01 -0.10298652137E+01  0.40120736048E+02  0.50528861005E+02  0.30000003511E+02 0.  0.
         12    1    1    2    0    0  0.65139466080E+01  0.10298652137E+01 -0.40120736048E+02  0.40659138995E+02  0.00000000000E+00 0. -1.
         11    1    3    3    0    0 -0.25584647471E+01 -0.78240632156E+01  0.41845755264E+01  0.92343045034E+01  0.51100000000E-03 0. -1.
        -11    1    3    3    0    0 -0.45795418790E+01  0.67062831665E+01  0.38143829548E+02  0.38998694473E+02  0.51100000000E-03 0.  1.
        -12    1    3    3    0    0  0.62406001810E+00  0.87914835395E-01 -0.22076690264E+01  0.22958620287E+01  0.00000000000E+00 0.  1.
</event>
<event>
 7    1  0.3041451E-011  0.5052886E+02  0.7816164E-02  0.1300439E+00
        -11   -1    0    0    0    0  0.00000000000E+00  0.00000000000E+00  0.45593999997E+02  0.45594000000E+02  0.51100000000E-03 0.  1.
         11   -1    0    0    0    0 -0.00000000000E+00 -0.00000000000E+00 -0.45593999997E+02  0.45594000000E+02  0.51100000000E-03 0. -1.
    9900012    2    1    2    0    0 -0.11849114330E+02 -0.23381685273E+02  0.31081524257E+02  0.50528857525E+02  0.29999992934E+02 0.  0.
         12    1    1    2    0    0  0.11849114330E+02  0.23381685273E+02 -0.31081524257E+02  0.40659142475E+02  0.00000000000E+00 0. -1.
         11    1    3    3    0    0 -0.16017866248E+02 -0.12275436631E+02  0.35150763807E+01  0.20484485491E+02  0.51100000000E-03 0. -1.
        -11    1    3    3    0    0  0.90054870561E+00 -0.42040905179E+01  0.10576501412E+02  0.11416993800E+02  0.51100000000E-03 0.  1.
         12    1    3    3    0    0  0.32682032120E+01 -0.69021581239E+01  0.16989946465E+02  0.18627378234E+02  0.00000000000E+00 0. -1.
</event>
<event>
 7    1  0.3041451E-011  0.5052886E+02  0.7816164E-02  0.1300439E+00
        -11   -1    0    0    0    0  0.00000000000E+00  0.00000000000E+00  0.45593999997E+02  0.45594000000E+02  0.51100000000E-03 0. -1.
         11   -1    0    0    0    0 -0.00000000000E+00 -0.00000000000E+00 -0.45593999997E+02  0.45594000000E+02  0.51100000000E-03 0.  1.
    9900012    2    1    2    0    0 -0.36674324592E+01 -0.19614623073E+02 -0.35425726263E+02  0.50528861047E+02  0.30000003639E+02 0.  0.
         12    1    1    2    0    0  0.36674324592E+01  0.19614623073E+02  0.35425726263E+02  0.40659138953E+02  0.00000000000E+00 0. -1.
         11    1    3    3    0    0  0.68995031454E+01 -0.12374320355E+02 -0.86317844971E+01  0.16590197460E+02  0.51100000000E-03 0. -1.
        -11    1    3    3    0    0 -0.11092416736E+02 -0.48511321473E+00 -0.72673830327E+01  0.13269962331E+02  0.51100000000E-03 0.  1.
         12    1    3    3    0    0  0.52548113095E+00 -0.67551895031E+01 -0.19526558733E+02  0.20668701256E+02  0.00000000000E+00 0. -1.
</event>
<event>
 7    1  0.3041451E-011  0.5052886E+02  0.7816164E-02  0.1300439E+00
        -11   -1    0    0    0    0  0.00000000000E+00  0.00000000000E+00  0.45593999997E+02  0.45594000000E+02  0.51100000000E-03 0.  1.
         11   -1    0    0    0    0 -0.00000000000E+00 -0.00000000000E+00 -0.45593999997E+02  0.45594000000E+02  0.51100000000E-03 0. -1.
    9900012    2    1    2    0    0 -0.69335865286E+01 -0.37476664266E+02 -0.14163009173E+02  0.50528858156E+02  0.29999994852E+02 0.  0.
         12    1    1    2    0    0  0.69335865286E+01  0.37476664266E+02  0.14163009173E+02  0.40659141844E+02  0.00000000000E+00 0. -1.
         11    1    3    3    0    0 -0.27226109532E+01 -0.35148160844E+00 -0.57588671767E+01  0.63797101144E+01  0.51100000000E-03 0. -1.
        -11    1    3    3    0    0 -0.42234839327E+01 -0.25004775296E+02  0.52445766918E+01  0.25895601733E+02  0.51100000000E-03 0.  1.
        -12    1    3    3    0    0  0.12508357327E-01 -0.12120407361E+02 -0.13648718688E+02  0.18253546309E+02  0.00000000000E+00 0.  1.
</event>
<event>
 7    1  0.3041451E-011  0.5052892E+02  0.7816164E-02  0.1300439E+00
        -11   -1    0    0    0    0  0.00000000000E+00  0.00000000000E+00  0.45593999997E+02  0.45594000000E+02  0.51100000000E-03 0. -1.
         11   -1    0    0    0    0 -0.00000000000E+00 -0.00000000000E+00 -0.45593999997E+02  0.45594000000E+02  0.51100000000E-03 0.  1.
    9900012    2    1    2    0    0 -0.58889452912E+01 -0.26007980580E+02  0.30693095275E+02  0.50528919488E+02  0.30000181277E+02 0.  0.
         12    1    1    2    0    0  0.58889452912E+01  0.26007980580E+02 -0.30693095275E+02  0.40659080512E+02  0.00000000000E+00 0. -1.
         11    1    3    3    0    0  0.34784157359E+01 -0.88542156874E+00 -0.25183092933E+01  0.43846584068E+01  0.51100000000E-03 0. -1.
        -11    1    3    3    0    0 -0.80916293248E+01 -0.27620170109E+02  0.27625425271E+02  0.39893763719E+02  0.51100000000E-03 0.  1.
         12    1    3    3    0    0 -0.12757317023E+01  0.24976110981E+01  0.55859792972E+01  0.62504973628E+01  0.00000000000E+00 0. -1.
</event>
<event>
 7    1  0.3041451E-011  0.5052886E+02  0.7816164E-02  0.1300439E+00
        -11   -1    0    0    0    0  0.00000000000E+00  0.00000000000E+00  0.45593999997E+02  0.45594000000E+02  0.51100000000E-03 0. -1.
         11   -1    0    0    0    0 -0.00000000000E+00 -0.00000000000E+00 -0.45593999997E+02  0.45594000000E+02  0.51100000000E-03 0.  1.
    9900012    2    1    2    0    0 -0.20850706386E+02 -0.34632133797E+02 -0.43622040305E+01  0.50528862378E+02  0.30000007684E+02 0.  0.
         12    1    1    2    0    0  0.20850706386E+02  0.34632133797E+02  0.43622040305E+01  0.40659137622E+02  0.00000000000E+00 0. -1.
         11    1    3    3    0    0 -0.80337903757E+01 -0.20691548905E+02  0.85771877731E+01  0.23796010889E+02  0.51100000000E-03 0. -1.
        -11    1    3    3    0    0 -0.33640393685E+01 -0.91138441791E+01 -0.12862094422E+02  0.16118696901E+02  0.51100000000E-03 0.  1.
        -12    1    3    3    0    0 -0.94528766422E+01 -0.48267407133E+01 -0.77297381371E-01  0.10614154588E+02  0.00000000000E+00 0.  1.
</event>
<event>
 7    1  0.3041451E-011  0.5052890E+02  0.7816164E-02  0.1300439E+00
        -11   -1    0    0    0    0  0.00000000000E+00  0.00000000000E+00  0.45593999997E+02  0.45594000000E+02  0.51100000000E-03 0.  1.
         11   -1    0    0    0    0 -0.00000000000E+00 -0.00000000000E+00 -0.45593999997E+02  0.45594000000E+02  0.51100000000E-03 0. -1.
    9900012    2    1    2    0    0 -0.40585321295E+01 -0.33692646766E+02  0.22394117897E+02  0.50528897138E+02  0.30000113342E+02 0.  0.
         12    1    1    2    0    0  0.40585321295E+01  0.33692646766E+02 -0.22394117897E+02  0.40659102862E+02  0.00000000000E+00 0. -1.
         11    1    3    3    0    0 -0.67046931086E+01 -0.14435684426E+01  0.49320278546E+00  0.68760489220E+01  0.51100000000E-03 0. -1.
        -11    1    3    3    0    0 -0.30183702223E+00 -0.30820778347E+02  0.11749169075E+02  0.32985670491E+02  0.51100000000E-03 0.  1.
        -12    1    3    3    0    0  0.29479980012E+01 -0.14282999759E+01  0.10151746037E+02  0.10667177726E+02  0.00000000000E+00 0.  1.
</event>
<event>
 7    1  0.3041451E-011  0.5052886E+02  0.7816164E-02  0.1300439E+00
        -11   -1    0    0    0    0  0.00000000000E+00  0.00000000000E+00  0.45593999997E+02  0.45594000000E+02  0.51100000000E-03 0.  1.
         11   -1    0    0    0    0 -0.00000000000E+00 -0.00000000000E+00 -0.45593999997E+02  0.45594000000E+02  0.51100000000E-03 0. -1.
    9900012    2    1    2    0    0 -0.39172593556E+02  0.15739556929E+01  0.10779442281E+02  0.50528858367E+02  0.29999995492E+02 0.  0.
         12    1    1    2    0    0  0.39172593556E+02 -0.15739556929E+01 -0.10779442281E+02  0.40659141633E+02  0.00000000000E+00 0. -1.
         11    1    3    3    0    0 -0.25525915425E+02 -0.78285740037E+01  0.15309234585E+02  0.30777127758E+02  0.51100000000E-03 0. -1.
        -11    1    3    3    0    0 -0.14191322999E+02  0.59159985780E+01 -0.22208061858E+01  0.15534628029E+02  0.51100000000E-03 0.  1.
         12    1    3    3    0    0  0.54464486732E+00  0.34865311187E+01 -0.23089861180E+01  0.42171025795E+01  0.00000000000E+00 0. -1.
</event>
<event>
 7    1  0.3041451E-011  0.5052886E+02  0.7816164E-02  0.1300439E+00
        -11   -1    0    0    0    0  0.00000000000E+00  0.00000000000E+00  0.45593999997E+02  0.45594000000E+02  0.51100000000E-03 0.  1.
         11   -1    0    0    0    0 -0.00000000000E+00 -0.00000000000E+00 -0.45593999997E+02  0.45594000000E+02  0.51100000000E-03 0. -1.
    9900012    2    1    2    0    0  0.23129834524E+01 -0.14890654467E+02  0.37763530109E+02  0.50528859709E+02  0.29999999572E+02 0.  0.
         12    1    1    2    0    0 -0.23129834524E+01  0.14890654467E+02 -0.37763530109E+02  0.40659140291E+02  0.00000000000E+00 0. -1.
         11    1    3    3    0    0 -0.31424938895E+01 -0.16028869699E+02  0.10947090250E+02  0.19663130902E+02  0.51100000000E-03 0. -1.
        -11    1    3    3    0    0  0.97159968653E+01 -0.17813163645E+01  0.14885221115E+02  0.17864587624E+02  0.51100000000E-03 0.  1.
         12    1    3    3    0    0 -0.42605195233E+01  0.29195315959E+01  0.11931218744E+02  0.13001141183E+02  0.00000000000E+00 0. -1.
</event>
<event>
 7    1  0.3041451E-011  0.5052886E+02  0.7816164E-02  0.1300439E+00
        -11   -1    0    0    0    0  0.00000000000E+00  0.00000000000E+00  0.45593999997E+02  0.45594000000E+02  0.51100000000E-03 0. -1.
         11   -1    0    0    0    0 -0.00000000000E+00 -0.00000000000E+00 -0.45593999997E+02  0.45594000000E+02  0.51100000000E-03 0.  1.
    9900012    2    1    2    0    0 -0.71334968023E+01 -0.38714306685E+02 -0.10172580547E+02  0.50528859407E+02  0.29999998654E+02 0.  0.
         12    1    1    2    0    0  0.71334968023E+01  0.38714306685E+02  0.10172580547E+02  0.40659140593E+02  0.00000000000E+00 0. -1.
         11    1    3    3    0    0 -0.83424094294E+01 -0.21930353404E+02 -0.15529246057E+01  0.23514841496E+02  0.51100000000E-03 0. -1.
        -11    1    3    3    0    0  0.33025690705E+01 -0.13407575985E+02 -0.14431908521E+02  0.19973733754E+02  0.51100000000E-03 0.  1.
        -12    1    3    3    0    0 -0.20936564434E+01 -0.33763772968E+01  0.58122525800E+01  0.70402841567E+01  0.00000000000E+00 0.  1.
</event>
<event>
 7    1  0.3041451E-011  0.5052886E+02  0.7816164E-02  0.1300439E+00
        -11   -1    0    0    0    0  0.00000000000E+00  0.00000000000E+00  0.45593999997E+02  0.45594000000E+02  0.51100000000E-03 0.  1.
         11   -1    0    0    0    0 -0.00000000000E+00 -0.00000000000E+00 -0.45593999997E+02  0.45594000000E+02  0.51100000000E-03 0. -1.
    9900012    2    1    2    0    0  0.13025208396E+02  0.38007668389E+02  0.62391432216E+01  0.50528858122E+02  0.29999994747E+02 0.  0.
         12    1    1    2    0    0 -0.13025208396E+02 -0.38007668389E+02 -0.62391432216E+01  0.40659141878E+02  0.00000000000E+00 0. -1.
         11    1    3    3    0    0  0.39671072127E+01 -0.22037530717E+01 -0.46813310179E+01  0.65199177601E+01  0.51100000000E-03 0.  1.
        -11    1    3    3    0    0  0.15059382899E+01  0.23059060292E+02  0.10184965820E+02  0.25253151105E+02  0.51100000000E-03 0. -1.
        -12    1    3    3    0    0  0.75521628937E+01  0.17152361168E+02  0.73550841986E+00  0.18755789257E+02  0.00000000000E+00 0.  1.
</event>
<event>
 7    1  0.3041451E-011  0.5052886E+02  0.7816164E-02  0.1300439E+00
        -11   -1    0    0    0    0  0.00000000000E+00  0.00000000000E+00  0.45593999997E+02  0.45594000000E+02  0.51100000000E-03 0. -1.
         11   -1    0    0    0    0 -0.00000000000E+00 -0.00000000000E+00 -0.45593999997E+02  0.45594000000E+02  0.51100000000E-03 0.  1.
    9900012    2    1    2    0    0  0.30971500015E+02 -0.12338875116E+02 -0.23274114284E+02  0.50528855296E+02  0.29999986159E+02 0.  0.
         12    1    1    2    0    0 -0.30971500015E+02  0.12338875116E+02  0.23274114284E+02  0.40659144704E+02  0.00000000000E+00 0. -1.
         11    1    3    3    0    0 -0.44364252872E+01 -0.52648965946E+00  0.13029153487E+01  0.46536705253E+01  0.51100000000E-03 0. -1.
        -11    1    3    3    0    0  0.12812901086E+02 -0.87762406951E+01 -0.67464671462E+01  0.16932443834E+02  0.51100000000E-03 0.  1.
         12    1    3    3    0    0  0.22595024216E+02 -0.30361447618E+01 -0.17830562487E+02  0.28942740937E+02  0.00000000000E+00 0. -1.
</event>
<event>
 7    1  0.3041451E-011  0.5052885E+02  0.7816164E-02  0.1300439E+00
        -11   -1    0    0    0    0  0.00000000000E+00  0.00000000000E+00  0.45593999997E+02  0.45594000000E+02  0.51100000000E-03 0. -1.
         11   -1    0    0    0    0 -0.00000000000E+00 -0.00000000000E+00 -0.45593999997E+02  0.45594000000E+02  0.51100000000E-03 0.  1.
    9900012    2    1    2    0    0 -0.24425120060E+02  0.38999622213E+01 -0.32270267742E+02  0.50528851271E+02  0.29999973923E+02 0.  0.
         12    1    1    2    0    0  0.24425120060E+02 -0.38999622213E+01  0.32270267742E+02  0.40659148729E+02  0.00000000000E+00 0. -1.
         11    1    3    3    0    0 -0.24583628104E+01 -0.56510435722E+01 -0.68270603027E+01  0.91970970311E+01  0.51100000000E-03 0. -1.
        -11    1    3    3    0    0 -0.69853477930E+01  0.13099066067E+02 -0.20198520722E+02  0.25067126984E+02  0.51100000000E-03 0.  1.
        -12    1    3    3    0    0 -0.14981409456E+02 -0.35480602739E+01 -0.52446867174E+01  0.16264627256E+02  0.00000000000E+00 0.  1.
</event>
<event>
 7    1  0.3041451E-011  0.5052885E+02  0.7816164E-02  0.1300439E+00
        -11   -1    0    0    0    0  0.00000000000E+00  0.00000000000E+00  0.45593999997E+02  0.45594000000E+02  0.51100000000E-03 0. -1.
         11   -1    0    0    0    0 -0.00000000000E+00 -0.00000000000E+00 -0.45593999997E+02  0.45594000000E+02  0.51100000000E-03 0.  1.
    9900012    2    1    2    0    0  0.25941861289E+02  0.56276583381E+01 -0.30797989706E+02  0.50528845122E+02  0.29999955232E+02 0.  0.
         12    1    1    2    0    0 -0.25941861289E+02 -0.56276583381E+01  0.30797989706E+02  0.40659154878E+02  0.00000000000E+00 0. -1.
         11    1    3    3    0    0  0.20135007366E+02 -0.62271375968E+01 -0.19139982149E+02  0.28469890783E+02  0.51100000000E-03 0. -1.
        -11    1    3    3    0    0 -0.25657100643E+01 -0.25571492238E+00  0.87618805915E+00  0.27232267683E+01  0.51100000000E-03 0.  1.
         12    1    3    3    0    0  0.83725639868E+01  0.12110510857E+02 -0.12534195616E+02  0.19335727570E+02  0.00000000000E+00 0. -1.
</event>
<event>
 7    1  0.3041451E-011  0.5052886E+02  0.7816164E-02  0.1300439E+00
        -11   -1    0    0    0    0  0.00000000000E+00  0.00000000000E+00  0.45593999997E+02  0.45594000000E+02  0.51100000000E-03 0.  1.
         11   -1    0    0    0    0 -0.00000000000E+00 -0.00000000000E+00 -0.45593999997E+02  0.45594000000E+02  0.51100000000E-03 0. -1.
    9900012    2    1    2    0    0  0.24526177991E+02 -0.13266445015E+02  0.29591115032E+02  0.50528855161E+02  0.29999985748E+02 0.  0.
         12    1    1    2    0    0 -0.24526177991E+02  0.13266445015E+02 -0.29591115032E+02  0.40659144839E+02  0.00000000000E+00 0. -1.
         11    1    3    3    0    0  0.19731099866E+02 -0.92912053992E+01  0.15568930692E+02  0.26796163958E+02  0.51100000000E-03 0. -1.
        -11    1    3    3    0    0  0.73094053793E+00 -0.19933403643E+01  0.17747533294E+02  0.17874076708E+02  0.51100000000E-03 0.  1.
        -12    1    3    3    0    0  0.40641375871E+01 -0.19818992517E+01 -0.37253489544E+01  0.58586144951E+01  0.00000000000E+00 0.  1.
</event>
<event>
 7    1  0.3041451E-011  0.5052886E+02  0.7816164E-02  0.1300439E+00
        -11   -1    0    0    0    0  0.00000000000E+00  0.00000000000E+00  0.45593999997E+02  0.45594000000E+02  0.51100000000E-03 0. -1.
         11   -1    0    0    0    0 -0.00000000000E+00 -0.00000000000E+00 -0.45593999997E+02  0.45594000000E+02  0.51100000000E-03 0.  1.
    9900012    2    1    2    0    0 -0.29742071517E+02  0.26981785554E+02  0.63685351010E+01  0.50528858234E+02  0.29999995088E+02 0.  0.
         12    1    1    2    0    0  0.29742071517E+02 -0.26981785554E+02 -0.63685351010E+01  0.40659141766E+02  0.00000000000E+00 0. -1.
         11    1    3    3    0    0 -0.17623222690E+02  0.99907584426E+01  0.16024444721E+02  0.25829751472E+02  0.51100000000E-03 0. -1.
        -11    1    3    3    0    0 -0.96288610214E+01  0.57418500267E+01 -0.48835587894E+01  0.12228366735E+02  0.51100000000E-03 0.  1.
         12    1    3    3    0    0 -0.24899878055E+01  0.11249177085E+02 -0.47723508309E+01  0.12470740027E+02  0.00000000000E+00 0. -1.
</event>
<event>
 7    1  0.3318126E-011  0.5052887E+02  0.7816164E-02  0.1300439E+00
        -11   -1    0    0    0    0  0.00000000000E+00  0.00000000000E+00  0.45593999997E+02  0.45594000000E+02  0.51100000000E-03 0. -1.
         11   -1    0    0    0    0 -0.00000000000E+00 -0.00000000000E+00 -0.45593999997E+02  0.45594000000E+02  0.51100000000E-03 0.  1.
    9900012    2    1    2    0    0 -0.22857227967E+02 -0.19548410261E+02 -0.27360041966E+02  0.50528866826E+02  0.30000021204E+02 0.  0.
         12    1    1    2    0    0  0.22857227967E+02  0.19548410261E+02  0.27360041966E+02  0.40659133174E+02  0.00000000000E+00 0. -1.
         11    1    3    3    0    0 -0.13782859047E+00 -0.52421184075E+01 -0.16796948622E+02  0.17596485029E+02  0.51100000000E-03 0.  1.
        -11    1    3    3    0    0 -0.20550906970E+02 -0.11720356431E+02 -0.14499113685E+02  0.27747627468E+02  0.51100000000E-03 0. -1.
         12    1    3    3    0    0 -0.21684924061E+01 -0.25859354228E+01  0.39360203411E+01  0.51847543289E+01  0.00000000000E+00 0. -1.
</event>
<event>
 7    1  0.3041451E-011  0.5052886E+02  0.7816164E-02  0.1300439E+00
        -11   -1    0    0    0    0  0.00000000000E+00  0.00000000000E+00  0.45593999997E+02  0.45594000000E+02  0.51100000000E-03 0. -1.
         11   -1    0    0    0    0 -0.00000000000E+00 -0.00000000000E+00 -0.45593999997E+02  0.45594000000E+02  0.51100000000E-03 0.  1.
    9900012    2    1    2    0    0 -0.36061286709E+02  0.16444533168E+02 -0.90733973871E+01  0.50528860678E+02  0.30000002518E+02 0.  0.
         12    1    1    2    0    0  0.36061286709E+02 -0.16444533168E+02  0.90733973871E+01  0.40659139322E+02  0.00000000000E+00 0. -1.
         11    1    3    3    0    0 -0.17832534540E+01 -0.32885374527E+01  0.17803431534E+01  0.41429570917E+01  0.51100000000E-03 0. -1.
        -11    1    3    3    0    0 -0.25831215116E+02  0.24246119173E+02 -0.73074815879E+01  0.36173543602E+02  0.51100000000E-03 0.  1.
        -12    1    3    3    0    0 -0.84468181386E+01 -0.45130485514E+01 -0.35462589526E+01  0.10212359984E+02  0.00000000000E+00 0.  1.
</event>
<event>
 7    1  0.3041451E-011  0.5052885E+02  0.7816164E-02  0.1300439E+00
        -11   -1    0    0    0    0  0.00000000000E+00  0.00000000000E+00  0.45593999997E+02  0.45594000000E+02  0.51100000000E-03 0.  1.
         11   -1    0    0    0    0 -0.00000000000E+00 -0.00000000000E+00 -0.45593999997E+02  0.45594000000E+02  0.51100000000E-03 0. -1.
    9900012    2    1    2    0    0  0.20325319147E+02 -0.12979865088E+01  0.35190381228E+02  0.50528852218E+02  0.29999976802E+02 0.  0.
         12    1    1    2    0    0 -0.20325319147E+02  0.12979865088E+01 -0.35190381228E+02  0.40659147782E+02  0.00000000000E+00 0. -1.
         11    1    3    3    0    0 -0.47181954316E+01 -0.40383195742E+01  0.50847041837E+01  0.80264319602E+01  0.51100000000E-03 0. -1.
        -11    1    3    3    0    0  0.19666871367E+02 -0.45199985478E+01  0.24989444098E+02  0.32119908668E+02  0.51100000000E-03 0.  1.
         12    1    3    3    0    0  0.53766432123E+01  0.72603316132E+01  0.51162329455E+01  0.10382511590E+02  0.00000000000E+00 0. -1.
</event>
<event>
 7    1  0.3041451E-011  0.5052886E+02  0.7816164E-02  0.1300439E+00
        -11   -1    0    0    0    0  0.00000000000E+00  0.00000000000E+00  0.45593999997E+02  0.45594000000E+02  0.51100000000E-03 0.  1.
         11   -1    0    0    0    0 -0.00000000000E+00 -0.00000000000E+00 -0.45593999997E+02  0.45594000000E+02  0.51100000000E-03 0. -1.
    9900012    2    1    2    0    0 -0.57086551719E+00 -0.40654874994E+02  0.14553147174E+00  0.50528856777E+02  0.29999990659E+02 0.  0.
         12    1    1    2    0    0  0.57086551719E+00  0.40654874994E+02 -0.14553147174E+00  0.40659143223E+02  0.00000000000E+00 0. -1.
         11    1    3    3    0    0 -0.64203688695E+01 -0.15679023923E+01  0.50793253070E+01  0.83354064189E+01  0.51100000000E-03 0. -1.
        -11    1    3    3    0    0  0.66325702263E+01 -0.82779115707E+01  0.14918751239E+01  0.10711699185E+02  0.51100000000E-03 0.  1.
         12    1    3    3    0    0 -0.78306687397E+00 -0.30809061031E+02 -0.64256689592E+01  0.31481751173E+02  0.00000000000E+00 0. -1.
</event>
<event>
 7    1  0.3041451E-011  0.5052887E+02  0.7816164E-02  0.1300439E+00
        -11   -1    0    0    0    0  0.00000000000E+00  0.00000000000E+00  0.45593999997E+02  0.45594000000E+02  0.51100000000E-03 0. -1.
         11   -1    0    0    0    0 -0.00000000000E+00 -0.00000000000E+00 -0.45593999997E+02  0.45594000000E+02  0.51100000000E-03 0.  1.
    9900012    2    1    2    0    0 -0.22779176175E+02  0.32494577105E+02 -0.88530680742E+01  0.50528865445E+02  0.30000017006E+02 0.  0.
         12    1    1    2    0    0  0.22779176175E+02 -0.32494577105E+02  0.88530680742E+01  0.40659134555E+02  0.00000000000E+00 0. -1.
         11    1    3    3    0    0 -0.12152357710E+02 -0.33942456555E+00 -0.52459868886E+01  0.13240671646E+02  0.51100000000E-03 0. -1.
        -11    1    3    3    0    0 -0.36688435087E+01  0.18198089271E+02  0.45959476205E+01  0.19124685634E+02  0.51100000000E-03 0.  1.
         12    1    3    3    0    0 -0.69579749562E+01  0.14635912400E+02 -0.82030288060E+01  0.18163508165E+02  0.00000000000E+00 0. -1.
</event>
<event>
 7    1  0.3041451E-011  0.5052886E+02  0.7816164E-02  0.1300439E+00
        -11   -1    0    0    0    0  0.00000000000E+00  0.00000000000E+00  0.45593999997E+02  0.45594000000E+02  0.51100000000E-03 0. -1.
         11   -1    0    0    0    0 -0.00000000000E+00 -0.00000000000E+00 -0.45593999997E+02  0.45594000000E+02  0.51100000000E-03 0.  1.
    9900012    2    1    2    0    0  0.20992762537E+02 -0.34350006609E+02  0.57049993752E+01  0.50528855262E+02  0.29999986054E+02 0.  0.
         12    1    1    2    0    0 -0.20992762537E+02  0.34350006609E+02 -0.57049993752E+01  0.40659144738E+02  0.00000000000E+00 0. -1.
         11    1    3    3    0    0  0.93386559066E+01 -0.18752023594E+02  0.14278010718E+02  0.25351735115E+02  0.51100000000E-03 0. -1.
        -11    1    3    3    0    0  0.43494762874E+01 -0.83034392675E+01 -0.11120669903E+02  0.14544220398E+02  0.51100000000E-03 0.  1.
         12    1    3    3    0    0  0.73046303433E+01 -0.72945437476E+01  0.25476585597E+01  0.10632899749E+02  0.00000000000E+00 0. -1.
</event>
<event>
 7    1  0.3041451E-011  0.5052886E+02  0.7816164E-02  0.1300439E+00
        -11   -1    0    0    0    0  0.00000000000E+00  0.00000000000E+00  0.45593999997E+02  0.45594000000E+02  0.51100000000E-03 0. -1.
         11   -1    0    0    0    0 -0.00000000000E+00 -0.00000000000E+00 -0.45593999997E+02  0.45594000000E+02  0.51100000000E-03 0.  1.
    9900012    2    1    2    0    0  0.11631011822E+02  0.29841417460E+02  0.25047454422E+02  0.50528860744E+02  0.30000002717E+02 0.  0.
         12    1    1    2    0    0 -0.11631011822E+02 -0.29841417460E+02 -0.25047454422E+02  0.40659139256E+02  0.00000000000E+00 0. -1.
         11    1    3    3    0    0  0.68100051464E+00  0.67015502967E+01 -0.40853851047E+01  0.78781285719E+01  0.51100000000E-03 0. -1.
        -11    1    3    3    0    0  0.12656435987E+02  0.12767383246E+02  0.26132419250E+02  0.31718997194E+02  0.51100000000E-03 0.  1.
        -12    1    3    3    0    0 -0.17064246790E+01  0.10372483917E+02  0.30004202763E+01  0.10931734978E+02  0.00000000000E+00 0.  1.
</event>
<event>
 7    1  0.3041451E-011  0.5052887E+02  0.7816164E-02  0.1300439E+00
        -11   -1    0    0    0    0  0.00000000000E+00  0.00000000000E+00  0.45593999997E+02  0.45594000000E+02  0.51100000000E-03 0.  1.
         11   -1    0    0    0    0 -0.00000000000E+00 -0.00000000000E+00 -0.45593999997E+02  0.45594000000E+02  0.51100000000E-03 0. -1.
    9900012    2    1    2    0    0  0.32995907339E+02  0.10210473721E+02 -0.21451836077E+02  0.50528868851E+02  0.30000027358E+02 0.  0.
         12    1    1    2    0    0 -0.32995907339E+02 -0.10210473721E+02  0.21451836077E+02  0.40659131149E+02  0.00000000000E+00 0. -1.
         11    1    3    3    0    0  0.16944921636E+01 -0.70755816959E+01  0.12060777256E+01  0.73749429672E+01  0.51100000000E-03 0. -1.
        -11    1    3    3    0    0  0.29895527212E+02  0.17208636630E+02 -0.23279218053E+02  0.41614921788E+02  0.51100000000E-03 0.  1.
        -12    1    3    3    0    0  0.14058879637E+01  0.77418786672E-01  0.62130425087E+00  0.15390040959E+01  0.00000000000E+00 0.  1.
</event>
<event>
 7    1  0.3041451E-011  0.5052886E+02  0.7816164E-02  0.1300439E+00
        -11   -1    0    0    0    0  0.00000000000E+00  0.00000000000E+00  0.45593999997E+02  0.45594000000E+02  0.51100000000E-03 0. -1.
         11   -1    0    0    0    0 -0.00000000000E+00 -0.00000000000E+00 -0.45593999997E+02  0.45594000000E+02  0.51100000000E-03 0.  1.
    9900012    2    1    2    0    0 -0.39659692378E+02 -0.89555123596E+01  0.27005843520E+00  0.50528864093E+02  0.30000012896E+02 0.  0.
         12    1    1    2    0    0  0.39659692378E+02  0.89555123596E+01 -0.27005843520E+00  0.40659135907E+02  0.00000000000E+00 0. -1.
         11    1    3    3    0    0 -0.26432799319E+02 -0.15513692219E+02  0.40151648215E+01  0.30910986314E+02  0.51100000000E-03 0. -1.
        -11    1    3    3    0    0 -0.15209080659E+02  0.36551876849E+01 -0.38203030954E+01  0.16101901984E+02  0.51100000000E-03 0.  1.
         12    1    3    3    0    0  0.19821875997E+01  0.29029921742E+01  0.75196709100E-01  0.35159757947E+01  0.00000000000E+00 0. -1.
</event>
<event>
 7    1  0.3041451E-011  0.5052887E+02  0.7816164E-02  0.1300439E+00
        -11   -1    0    0    0    0  0.00000000000E+00  0.00000000000E+00  0.45593999997E+02  0.45594000000E+02  0.51100000000E-03 0.  1.
         11   -1    0    0    0    0 -0.00000000000E+00 -0.00000000000E+00 -0.45593999997E+02  0.45594000000E+02  0.51100000000E-03 0. -1.
    9900012    2    1    2    0    0 -0.43871810631E+01 -0.12325885304E+02  0.38496626473E+02  0.50528867496E+02  0.30000023240E+02 0.  0.
         12    1    1    2    0    0  0.43871810631E+01  0.12325885304E+02 -0.38496626473E+02  0.40659132504E+02  0.00000000000E+00 0. -1.
         11    1    3    3    0    0 -0.65361455576E+01 -0.27803400735E+01 -0.11692379597E+01  0.71985142455E+01  0.51100000000E-03 0. -1.
        -11    1    3    3    0    0 -0.22481107975E+01 -0.21445576423E+01  0.30858690133E+02  0.31014704362E+02  0.51100000000E-03 0.  1.
         12    1    3    3    0    0  0.43970752920E+01 -0.74009875885E+01  0.88071742991E+01  0.12315648888E+02  0.00000000000E+00 0. -1.
</event>
<event>
 7    1  0.3041451E-011  0.5052886E+02  0.7816164E-02  0.1300439E+00
        -11   -1    0    0    0    0  0.00000000000E+00  0.00000000000E+00  0.45593999997E+02  0.45594000000E+02  0.51100000000E-03 0. -1.
         11   -1    0    0    0    0 -0.00000000000E+00 -0.00000000000E+00 -0.45593999997E+02  0.45594000000E+02  0.51100000000E-03 0.  1.
    9900012    2    1    2    0    0 -0.13721177855E+01 -0.40172008249E+02 -0.61231398533E+01  0.50528858400E+02  0.29999995593E+02 0.  0.
         12    1    1    2    0    0  0.13721177855E+01  0.40172008249E+02  0.61231398533E+01  0.40659141600E+02  0.00000000000E+00 0. -1.
         11    1    3    3    0    0 -0.59380805817E+01  0.86878579937E+00  0.31980290599E+01  0.68002191060E+01  0.51100000000E-03 0. -1.
        -11    1    3    3    0    0 -0.99698670153E+00 -0.32567186328E+02 -0.68326397151E+01  0.33291148576E+02  0.51100000000E-03 0.  1.
        -12    1    3    3    0    0  0.55629494977E+01 -0.84736077203E+01 -0.24885291982E+01  0.10437490718E+02  0.00000000000E+00 0.  1.
</event>
<event>
 7    1  0.3041451E-011  0.5052886E+02  0.7816164E-02  0.1300439E+00
        -11   -1    0    0    0    0  0.00000000000E+00  0.00000000000E+00  0.45593999997E+02  0.45594000000E+02  0.51100000000E-03 0.  1.
         11   -1    0    0    0    0 -0.00000000000E+00 -0.00000000000E+00 -0.45593999997E+02  0.45594000000E+02  0.51100000000E-03 0. -1.
    9900012    2    1    2    0    0  0.23789765120E+02  0.17100395706E+02  0.28192010261E+02  0.50528857113E+02  0.29999991682E+02 0.  0.
         12    1    1    2    0    0 -0.23789765120E+02 -0.17100395706E+02 -0.28192010261E+02  0.40659142887E+02  0.00000000000E+00 0. -1.
         11    1    3    3    0    0  0.18454164628E+01  0.62927910916E+01  0.99004129792E+01  0.11875308799E+02  0.51100000000E-03 0. -1.
        -11    1    3    3    0    0  0.21237950771E+02  0.16325290237E+02  0.98440059652E+01  0.28538922684E+02  0.51100000000E-03 0.  1.
        -12    1    3    3    0    0  0.70639788553E+00 -0.55176856225E+01  0.84475913160E+01  0.10114625630E+02  0.00000000000E+00 0.  1.
</event>
<event>
 7    1  0.3041451E-011  0.5052883E+02  0.7816164E-02  0.1300439E+00
        -11   -1    0    0    0    0  0.00000000000E+00  0.00000000000E+00  0.45593999997E+02  0.45594000000E+02  0.51100000000E-03 0.  1.
         11   -1    0    0    0    0 -0.00000000000E+00 -0.00000000000E+00 -0.45593999997E+02  0.45594000000E+02  0.51100000000E-03 0. -1.
    9900012    2    1    2    0    0 -0.10400326068E+02 -0.13504812950E+02  0.36913704927E+02  0.50528826785E+02  0.29999899495E+02 0.  0.
         12    1    1    2    0    0  0.10400326068E+02  0.13504812950E+02 -0.36913704927E+02  0.40659173215E+02  0.00000000000E+00 0. -1.
         11    1    3    3    0    0 -0.48948598964E+01 -0.14475857614E+02  0.16752312221E+02  0.22674877554E+02  0.51100000000E-03 0.  1.
        -11    1    3    3    0    0 -0.21863946641E+01  0.95516007010E+01  0.82908352832E+01  0.12835550145E+02  0.51100000000E-03 0. -1.
         12    1    3    3    0    0 -0.33190715079E+01 -0.85805560376E+01  0.11870557422E+02  0.15018399086E+02  0.00000000000E+00 0. -1.
</event>
<event>
 7    1  0.3041451E-011  0.5052887E+02  0.7816164E-02  0.1300439E+00
        -11   -1    0    0    0    0  0.00000000000E+00  0.00000000000E+00  0.45593999997E+02  0.45594000000E+02  0.51100000000E-03 0. -1.
         11   -1    0    0    0    0 -0.00000000000E+00 -0.00000000000E+00 -0.45593999997E+02  0.45594000000E+02  0.51100000000E-03 0.  1.
    9900012    2    1    2    0    0 -0.17884084977E+02  0.21756591187E+02 -0.29325335093E+02  0.50528867768E+02  0.30000024066E+02 0.  0.
         12    1    1    2    0    0  0.17884084977E+02 -0.21756591187E+02  0.29325335093E+02  0.40659132232E+02  0.00000000000E+00 0. -1.
         11    1    3    3    0    0 -0.18046328017E+02  0.43384231482E+01 -0.48018722148E+01  0.19171589588E+02  0.51100000000E-03 0. -1.
        -11    1    3    3    0    0 -0.48777336655E+00  0.10633517831E+02 -0.75040062105E+01  0.13023814103E+02  0.51100000000E-03 0.  1.
         12    1    3    3    0    0  0.65001640610E+00  0.67846502082E+01 -0.17019456668E+02  0.18333464077E+02  0.00000000000E+00 0. -1.
</event>
<event>
 7    1  0.3041451E-011  0.5052881E+02  0.7816164E-02  0.1300439E+00
        -11   -1    0    0    0    0  0.00000000000E+00  0.00000000000E+00  0.45593999997E+02  0.45594000000E+02  0.51100000000E-03 0. -1.
         11   -1    0    0    0    0 -0.00000000000E+00 -0.00000000000E+00 -0.45593999997E+02  0.45594000000E+02  0.51100000000E-03 0.  1.
    9900012    2    1    2    0    0  0.12070453465E+02  0.13553702669E+02 -0.36383661902E+02  0.50528812155E+02  0.29999855025E+02 0.  0.
         12    1    1    2    0    0 -0.12070453465E+02 -0.13553702669E+02  0.36383661902E+02  0.40659187845E+02  0.00000000000E+00 0. -1.
         11    1    3    3    0    0  0.82727572389E+01  0.30206525499E+01  0.13196982899E+01  0.89053050480E+01  0.51100000000E-03 0. -1.
        -11    1    3    3    0    0 -0.50475934561E+01  0.35271961914E+01 -0.16369256085E+02  0.17489192598E+02  0.51100000000E-03 0.  1.
         12    1    3    3    0    0  0.88452896818E+01  0.70058539275E+01 -0.21334104106E+02  0.24134314509E+02  0.00000000000E+00 0. -1.
</event>
<event>
 7    1  0.3041451E-011  0.5052886E+02  0.7816164E-02  0.1300439E+00
        -11   -1    0    0    0    0  0.00000000000E+00  0.00000000000E+00  0.45593999997E+02  0.45594000000E+02  0.51100000000E-03 0. -1.
         11   -1    0    0    0    0 -0.00000000000E+00 -0.00000000000E+00 -0.45593999997E+02  0.45594000000E+02  0.51100000000E-03 0.  1.
    9900012    2    1    2    0    0 -0.34111429278E+02 -0.21151060952E+02  0.64968301753E+01  0.50528858480E+02  0.29999995836E+02 0.  0.
         12    1    1    2    0    0  0.34111429278E+02  0.21151060952E+02 -0.64968301753E+01  0.40659141520E+02  0.00000000000E+00 0. -1.
         11    1    3    3    0    0 -0.50625810441E+01  0.49187915748E+01  0.70352678133E+00  0.70936018762E+01  0.51100000000E-03 0. -1.
        -11    1    3    3    0    0 -0.91799379799E+01 -0.18646177541E+02  0.76431171716E+01  0.22144264237E+02  0.51100000000E-03 0.  1.
         12    1    3    3    0    0 -0.19868910254E+02 -0.74236749857E+01 -0.18498137776E+01  0.21290992367E+02  0.00000000000E+00 0. -1.
</event>
<event>
 7    1  0.3041451E-011  0.5052886E+02  0.7816164E-02  0.1300439E+00
        -11   -1    0    0    0    0  0.00000000000E+00  0.00000000000E+00  0.45593999997E+02  0.45594000000E+02  0.51100000000E-03 0.  1.
         11   -1    0    0    0    0 -0.00000000000E+00 -0.00000000000E+00 -0.45593999997E+02  0.45594000000E+02  0.51100000000E-03 0. -1.
    9900012    2    1    2    0    0  0.16764216441E+02 -0.20017035403E+02  0.31168019043E+02  0.50528855023E+02  0.29999985329E+02 0.  0.
         12    1    1    2    0    0 -0.16764216441E+02  0.20017035403E+02 -0.31168019043E+02  0.40659144977E+02  0.00000000000E+00 0. -1.
         11    1    3    3    0    0  0.17579084905E+01  0.51665479489E+00 -0.34924279978E+01  0.39438848892E+01  0.51100000000E-03 0. -1.
        -11    1    3    3    0    0  0.19081814626E+02 -0.15133008584E+02  0.27490610303E+02  0.36726792037E+02  0.51100000000E-03 0.  1.
        -12    1    3    3    0    0 -0.40755066756E+01 -0.54006816140E+01  0.71698367371E+01  0.98581780971E+01  0.00000000000E+00 0.  1.
</event>
<event>
 7    1  0.3041451E-011  0.5052886E+02  0.7816164E-02  0.1300439E+00
        -11   -1    0    0    0    0  0.00000000000E+00  0.00000000000E+00  0.45593999997E+02  0.45594000000E+02  0.51100000000E-03 0.  1.
         11   -1    0    0    0    0 -0.00000000000E+00 -0.00000000000E+00 -0.45593999997E+02  0.45594000000E+02  0.51100000000E-03 0. -1.
    9900012    2    1    2    0    0 -0.27326556756E+02 -0.95371836104E+01  0.28556384054E+02  0.50528860245E+02  0.30000001202E+02 0.  0.
         12    1    1    2    0    0  0.27326556756E+02  0.95371836104E+01 -0.28556384054E+02  0.40659139755E+02  0.00000000000E+00 0. -1.
         11    1    3    3    0    0  0.36296247843E+01 -0.60995022596E+01  0.23457762485E+01  0.74753441633E+01  0.51100000000E-03 0. -1.
        -11    1    3    3    0    0 -0.19581923406E+02 -0.29638591166E+01  0.24559874871E+02  0.31550335007E+02  0.51100000000E-03 0.  1.
         12    1    3    3    0    0 -0.11374258135E+02 -0.47382223422E+00  0.16507329343E+01  0.11503181075E+02  0.00000000000E+00 0. -1.
</event>
<event>
 7    1  0.3041451E-011  0.5052886E+02  0.7816164E-02  0.1300439E+00
        -11   -1    0    0    0    0  0.00000000000E+00  0.00000000000E+00  0.45593999997E+02  0.45594000000E+02  0.51100000000E-03 0. -1.
         11   -1    0    0    0    0 -0.00000000000E+00 -0.00000000000E+00 -0.45593999997E+02  0.45594000000E+02  0.51100000000E-03 0.  1.
    9900012    2    1    2    0    0  0.15306238659E+02  0.36178968926E+02  0.10486525811E+02  0.50528856403E+02  0.29999989524E+02 0.  0.
         12    1    1    2    0    0 -0.15306238659E+02 -0.36178968926E+02 -0.10486525811E+02  0.40659143597E+02  0.00000000000E+00 0. -1.
         11    1    3    3    0    0  0.76265313953E+01  0.12600355882E+02  0.15571840629E+02  0.21433972341E+02  0.51100000000E-03 0. -1.
        -11    1    3    3    0    0  0.48020933149E+01  0.23645941896E+02 -0.75743582429E+01  0.25289554591E+02  0.51100000000E-03 0.  1.
        -12    1    3    3    0    0  0.28776139488E+01 -0.67328852528E-01  0.24890434247E+01  0.38053294710E+01  0.00000000000E+00 0.  1.
</event>
<event>
 7    1  0.3041451E-011  0.5052886E+02  0.7816164E-02  0.1300439E+00
        -11   -1    0    0    0    0  0.00000000000E+00  0.00000000000E+00  0.45593999997E+02  0.45594000000E+02  0.51100000000E-03 0. -1.
         11   -1    0    0    0    0 -0.00000000000E+00 -0.00000000000E+00 -0.45593999997E+02  0.45594000000E+02  0.51100000000E-03 0.  1.
    9900012    2    1    2    0    0 -0.40017907165E+02 -0.14256290623E+01 -0.70498229777E+01  0.50528864297E+02  0.30000013518E+02 0.  0.
         12    1    1    2    0    0  0.40017907165E+02  0.14256290623E+01  0.70498229777E+01  0.40659135703E+02  0.00000000000E+00 0. -1.
         11    1    3    3    0    0 -0.42114149025E+01 -0.50389682339E+01  0.35881619269E+01  0.74834565956E+01  0.51100000000E-03 0. -1.
        -11    1    3    3    0    0 -0.20583726036E+02  0.12206197748E+02 -0.35946311971E+01  0.24199223431E+02  0.51100000000E-03 0.  1.
        -12    1    3    3    0    0 -0.15222766227E+02 -0.85928585763E+01 -0.70433537075E+01  0.18846184270E+02  0.00000000000E+00 0.  1.
</event>
<event>
 7    1  0.3041451E-011  0.5052886E+02  0.7816164E-02  0.1300439E+00
        -11   -1    0    0    0    0  0.00000000000E+00  0.00000000000E+00  0.45593999997E+02  0.45594000000E+02  0.51100000000E-03 0.  1.
         11   -1    0    0    0    0 -0.00000000000E+00 -0.00000000000E+00 -0.45593999997E+02  0.45594000000E+02  0.51100000000E-03 0. -1.
    9900012    2    1    2    0    0  0.22544571580E+02 -0.33121243746E+02 -0.69203344432E+01  0.50528861742E+02  0.30000005752E+02 0.  0.
         12    1    1    2    0    0 -0.22544571580E+02  0.33121243746E+02  0.69203344432E+01  0.40659138258E+02  0.00000000000E+00 0. -1.
         11    1    3    3    0    0  0.40768476559E+01  0.23912316035E+01  0.32532792083E+01  0.57378132820E+01  0.51100000000E-03 0. -1.
        -11    1    3    3    0    0  0.21053718778E+02 -0.27275081245E+02 -0.52536363203E+01  0.34853835171E+02  0.51100000000E-03 0.  1.
        -12    1    3    3    0    0 -0.25859948532E+01 -0.82373941044E+01 -0.49199773312E+01  0.99372132890E+01  0.00000000000E+00 0.  1.
</event>
<event>
 7    1  0.3041451E-011  0.5052886E+02  0.7816164E-02  0.1300439E+00
        -11   -1    0    0    0    0  0.00000000000E+00  0.00000000000E+00  0.45593999997E+02  0.45594000000E+02  0.51100000000E-03 0.  1.
         11   -1    0    0    0    0 -0.00000000000E+00 -0.00000000000E+00 -0.45593999997E+02  0.45594000000E+02  0.51100000000E-03 0. -1.
    9900012    2    1    2    0    0  0.13328971580E+02  0.26577114103E+02  0.27733753464E+02  0.50528861315E+02  0.30000004452E+02 0.  0.
         12    1    1    2    0    0 -0.13328971580E+02 -0.26577114103E+02 -0.27733753464E+02  0.40659138685E+02  0.00000000000E+00 0. -1.
         11    1    3    3    0    0 -0.53393240350E+01 -0.25015772921E+00  0.44028561818E+01  0.69250345024E+01  0.51100000000E-03 0.  1.
        -11    1    3    3    0    0  0.18052573530E+02  0.27387032222E+02  0.25326785923E+02  0.41441416849E+02  0.51100000000E-03 0. -1.
         12    1    3    3    0    0  0.61572208469E+00 -0.55976039025E+00 -0.19958886411E+01  0.21624099629E+01  0.00000000000E+00 0. -1.
</event>
<event>
 7    1  0.3041451E-011  0.5052887E+02  0.7816164E-02  0.1300439E+00
        -11   -1    0    0    0    0  0.00000000000E+00  0.00000000000E+00  0.45593999997E+02  0.45594000000E+02  0.51100000000E-03 0.  1.
         11   -1    0    0    0    0 -0.00000000000E+00 -0.00000000000E+00 -0.45593999997E+02  0.45594000000E+02  0.51100000000E-03 0. -1.
    9900012    2    1    2    0    0 -0.32301429028E+01  0.29704890831E+00  0.40529533869E+02  0.50528866009E+02  0.30000018722E+02 0.  0.
         12    1    1    2    0    0  0.32301429028E+01 -0.29704890831E+00 -0.40529533869E+02  0.40659133991E+02  0.00000000000E+00 0. -1.
         11    1    3    3    0    0  0.47915173160E+01  0.53838171629E+01  0.50950393724E+01  0.88262988789E+01  0.51100000000E-03 0. -1.
        -11    1    3    3    0    0  0.54106884551E+00 -0.83634541172E+01  0.29766237846E+02  0.30923599985E+02  0.51100000000E-03 0.  1.
        -12    1    3    3    0    0 -0.85627290643E+01  0.32766858626E+01  0.56682566508E+01  0.10778967146E+02  0.00000000000E+00 0.  1.
</event>
<event>
 7    1  0.3041451E-011  0.5052889E+02  0.7816164E-02  0.1300439E+00
        -11   -1    0    0    0    0  0.00000000000E+00  0.00000000000E+00  0.45593999997E+02  0.45594000000E+02  0.51100000000E-03 0.  1.
         11   -1    0    0    0    0 -0.00000000000E+00 -0.00000000000E+00 -0.45593999997E+02  0.45594000000E+02  0.51100000000E-03 0. -1.
    9900012    2    1    2    0    0 -0.17672612744E+02  0.36320785035E+02  0.46521451327E+01  0.50528891289E+02  0.30000095563E+02 0.  0.
         12    1    1    2    0    0  0.17672612744E+02 -0.36320785035E+02 -0.46521451327E+01  0.40659108711E+02  0.00000000000E+00 0. -1.
         11    1    3    3    0    0 -0.13049655764E+02  0.29863775032E+01  0.44805897804E+01  0.14116927824E+02  0.51100000000E-03 0. -1.
        -11    1    3    3    0    0 -0.18155425119E+01  0.11178291371E+02 -0.65583528835E+01  0.13086725541E+02  0.51100000000E-03 0.  1.
        -12    1    3    3    0    0 -0.28074144686E+01  0.22156116162E+02  0.67299082358E+01  0.23325237924E+02  0.00000000000E+00 0.  1.
</event>
<event>
 7    1  0.3041451E-011  0.5052886E+02  0.7816164E-02  0.1300439E+00
        -11   -1    0    0    0    0  0.00000000000E+00  0.00000000000E+00  0.45593999997E+02  0.45594000000E+02  0.51100000000E-03 0.  1.
         11   -1    0    0    0    0 -0.00000000000E+00 -0.00000000000E+00 -0.45593999997E+02  0.45594000000E+02  0.51100000000E-03 0. -1.
    9900012    2    1    2    0    0  0.28050399610E+02 -0.20784875948E+02  0.20840581641E+02  0.50528857983E+02  0.29999994324E+02 0.  0.
         12    1    1    2    0    0 -0.28050399610E+02  0.20784875948E+02 -0.20840581641E+02  0.40659142017E+02  0.00000000000E+00 0. -1.
         11    1    3    3    0    0  0.29281650726E+02 -0.18226216254E+02  0.79954223721E+01  0.35405321738E+02  0.51100000000E-03 0. -1.
        -11    1    3    3    0    0  0.24850582938E+01 -0.33521582471E+01  0.63483514104E+01  0.75969760779E+01  0.51100000000E-03 0.  1.
         12    1    3    3    0    0 -0.37163094100E+01  0.79349855373E+00  0.64968078590E+01  0.75265601666E+01  0.00000000000E+00 0. -1.
</event>
<event>
 7    1  0.3041451E-011  0.5052886E+02  0.7816164E-02  0.1300439E+00
        -11   -1    0    0    0    0  0.00000000000E+00  0.00000000000E+00  0.45593999997E+02  0.45594000000E+02  0.51100000000E-03 0. -1.
         11   -1    0    0    0    0 -0.00000000000E+00 -0.00000000000E+00 -0.45593999997E+02  0.45594000000E+02  0.51100000000E-03 0.  1.
    9900012    2    1    2    0    0  0.20856757147E+02  0.14589884145E+02 -0.31706419199E+02  0.50528855193E+02  0.29999985844E+02 0.  0.
         12    1    1    2    0    0 -0.20856757147E+02 -0.14589884145E+02  0.31706419199E+02  0.40659144807E+02  0.00000000000E+00 0. -1.
         11    1    3    3    0    0  0.15978749426E+01  0.98848187634E+01 -0.13705215845E+02  0.16973384693E+02  0.51100000000E-03 0. -1.
        -11    1    3    3    0    0  0.20535503310E+02  0.34422074128E+01 -0.63529336006E+01  0.21769599300E+02  0.51100000000E-03 0.  1.
        -12    1    3    3    0    0 -0.12766211063E+01  0.12628579691E+01 -0.11648269753E+02  0.11785871200E+02  0.00000000000E+00 0.  1.
</event>
<event>
 7    1  0.3041451E-011  0.5052888E+02  0.7816164E-02  0.1300439E+00
        -11   -1    0    0    0    0  0.00000000000E+00  0.00000000000E+00  0.45593999997E+02  0.45594000000E+02  0.51100000000E-03 0.  1.
         11   -1    0    0    0    0 -0.00000000000E+00 -0.00000000000E+00 -0.45593999997E+02  0.45594000000E+02  0.51100000000E-03 0. -1.
    9900012    2    1    2    0    0  0.14413290753E+02  0.12029244636E+02  0.36065475662E+02  0.50528877880E+02  0.30000054805E+02 0.  0.
         12    1    1    2    0    0 -0.14413290753E+02 -0.12029244636E+02 -0.36065475662E+02  0.40659122120E+02  0.00000000000E+00 0. -1.
         11    1    3    3    0    0  0.45230465002E+01 -0.85068326441E+01  0.15391457966E+02  0.18158224854E+02  0.51100000000E-03 0. -1.
        -11    1    3    3    0    0  0.11620875046E+02  0.19732342230E+02  0.18231280535E+02  0.29270969525E+02  0.51100000000E-03 0.  1.
        -12    1    3    3    0    0 -0.17306307929E+01  0.80373504937E+00  0.24427371601E+01  0.30996835007E+01  0.00000000000E+00 0.  1.
</event>
<event>
 7    1  0.3041451E-011  0.5052887E+02  0.7816164E-02  0.1300439E+00
        -11   -1    0    0    0    0  0.00000000000E+00  0.00000000000E+00  0.45593999997E+02  0.45594000000E+02  0.51100000000E-03 0.  1.
         11   -1    0    0    0    0 -0.00000000000E+00 -0.00000000000E+00 -0.45593999997E+02  0.45594000000E+02  0.51100000000E-03 0. -1.
    9900012    2    1    2    0    0 -0.81197110518E+01  0.11720182891E+01  0.39822879920E+02  0.50528866960E+02  0.30000021611E+02 0.  0.
         12    1    1    2    0    0  0.81197110518E+01 -0.11720182891E+01 -0.39822879920E+02  0.40659133040E+02  0.00000000000E+00 0. -1.
         11    1    3    3    0    0  0.45381525098E+01 -0.94530435849E+01  0.61272273652E+01  0.12144866268E+02  0.51100000000E-03 0. -1.
        -11    1    3    3    0    0 -0.11726090020E+02  0.11789040621E+02  0.32360967955E+02  0.36382893139E+02  0.51100000000E-03 0.  1.
        -12    1    3    3    0    0 -0.93177354134E+00 -0.11639787473E+01  0.13346845998E+01  0.20011075527E+01  0.00000000000E+00 0.  1.
</event>
<event>
 7    1  0.3041451E-011  0.5052885E+02  0.7816164E-02  0.1300439E+00
        -11   -1    0    0    0    0  0.00000000000E+00  0.00000000000E+00  0.45593999997E+02  0.45594000000E+02  0.51100000000E-03 0.  1.
         11   -1    0    0    0    0 -0.00000000000E+00 -0.00000000000E+00 -0.45593999997E+02  0.45594000000E+02  0.51100000000E-03 0. -1.
    9900012    2    1    2    0    0  0.89546144739E+00  0.24910353105E+02  0.32122254623E+02  0.50528846233E+02  0.29999958610E+02 0.  0.
         12    1    1    2    0    0 -0.89546144739E+00 -0.24910353105E+02 -0.32122254623E+02  0.40659153767E+02  0.00000000000E+00 0. -1.
         11    1    3    3    0    0 -0.23139124651E+01  0.93039077865E+01  0.26101244987E+01  0.99362790398E+01  0.51100000000E-03 0. -1.
        -11    1    3    3    0    0  0.71100451833E+01 -0.32223016232E+01  0.43889287049E+01  0.89553707739E+01  0.51100000000E-03 0.  1.
        -12    1    3    3    0    0 -0.39006712708E+01  0.18828746941E+02  0.25123201419E+02  0.31637196419E+02  0.00000000000E+00 0.  1.
</event>
<event>
 7    1  0.3041451E-011  0.5052887E+02  0.7816164E-02  0.1300439E+00
        -11   -1    0    0    0    0  0.00000000000E+00  0.00000000000E+00  0.45593999997E+02  0.45594000000E+02  0.51100000000E-03 0. -1.
         11   -1    0    0    0    0 -0.00000000000E+00 -0.00000000000E+00 -0.45593999997E+02  0.45594000000E+02  0.51100000000E-03 0.  1.
    9900012    2    1    2    0    0  0.12095014704E+02  0.21246186815E+01 -0.38760309057E+02  0.50528868880E+02  0.30000027448E+02 0.  0.
         12    1    1    2    0    0 -0.12095014704E+02 -0.21246186815E+01  0.38760309057E+02  0.40659131120E+02  0.00000000000E+00 0. -1.
         11    1    3    3    0    0  0.24746697047E+01  0.78828997739E+01 -0.58629609561E+01  0.10131061663E+02  0.51100000000E-03 0. -1.
        -11    1    3    3    0    0  0.32700988782E+01 -0.12593073241E+02 -0.24964956129E+02  0.28151875162E+02  0.51100000000E-03 0.  1.
        -12    1    3    3    0    0  0.63502461213E+01  0.68347921484E+01 -0.79323919713E+01  0.12245932055E+02  0.00000000000E+00 0.  1.
</event>
<event>
 7    1  0.3041451E-011  0.5052886E+02  0.7816164E-02  0.1300439E+00
        -11   -1    0    0    0    0  0.00000000000E+00  0.00000000000E+00  0.45593999997E+02  0.45594000000E+02  0.51100000000E-03 0.  1.
         11   -1    0    0    0    0 -0.00000000000E+00 -0.00000000000E+00 -0.45593999997E+02  0.45594000000E+02  0.51100000000E-03 0. -1.
    9900012    2    1    2    0    0 -0.17986410990E+02 -0.25625357502E+02  0.25942163438E+02  0.50528858700E+02  0.29999996505E+02 0.  0.
         12    1    1    2    0    0  0.17986410990E+02  0.25625357502E+02 -0.25942163438E+02  0.40659141300E+02  0.00000000000E+00 0. -1.
         11    1    3    3    0    0 -0.19057946852E+01 -0.43810149575E+01 -0.24078741064E+01  0.53500657392E+01  0.51100000000E-03 0. -1.
        -11    1    3    3    0    0 -0.68596148198E+01 -0.76486608610E+01  0.26771715603E+02  0.28675443938E+02  0.51100000000E-03 0.  1.
        -12    1    3    3    0    0 -0.92210014850E+01 -0.13595681683E+02  0.15783219411E+01  0.16503349023E+02  0.00000000000E+00 0.  1.
</event>
<event>
 7    1  0.3041451E-011  0.5052886E+02  0.7816164E-02  0.1300439E+00
        -11   -1    0    0    0    0  0.00000000000E+00  0.00000000000E+00  0.45593999997E+02  0.45594000000E+02  0.51100000000E-03 0.  1.
         11   -1    0    0    0    0 -0.00000000000E+00 -0.00000000000E+00 -0.45593999997E+02  0.45594000000E+02  0.51100000000E-03 0. -1.
    9900012    2    1    2    0    0 -0.22044826393E+02 -0.85442918093E+01  0.33078484214E+02  0.50528863129E+02  0.30000009966E+02 0.  0.
         12    1    1    2    0    0  0.22044826393E+02  0.85442918093E+01 -0.33078484214E+02  0.40659136871E+02  0.00000000000E+00 0. -1.
         11    1    3    3    0    0  0.15605638546E+00 -0.13514643320E+01  0.18408169052E+02  0.18458372018E+02  0.51100000000E-03 0. -1.
        -11    1    3    3    0    0 -0.24792482369E+02 -0.56891971056E+01  0.12325008010E+02  0.28265526148E+02  0.51100000000E-03 0.  1.
         12    1    3    3    0    0  0.25915995903E+01 -0.15036303716E+01  0.23453071519E+01  0.38049649628E+01  0.00000000000E+00 0. -1.
</event>
<event>
 7    1  0.3041451E-011  0.5052885E+02  0.7816164E-02  0.1300439E+00
        -11   -1    0    0    0    0  0.00000000000E+00  0.00000000000E+00  0.45593999997E+02  0.45594000000E+02  0.51100000000E-03 0. -1.
         11   -1    0    0    0    0 -0.00000000000E+00 -0.00000000000E+00 -0.45593999997E+02  0.45594000000E+02  0.51100000000E-03 0.  1.
    9900012    2    1    2    0    0  0.31936443005E+02 -0.56898113430E+00 -0.25157623100E+02  0.50528854271E+02  0.29999983043E+02 0.  0.
         12    1    1    2    0    0 -0.31936443005E+02  0.56898113430E+00  0.25157623100E+02  0.40659145729E+02  0.00000000000E+00 0. -1.
         11    1    3    3    0    0  0.85696029309E+01 -0.94330203395E+01  0.68118346114E+00  0.12762600765E+02  0.51100000000E-03 0. -1.
        -11    1    3    3    0    0  0.15814528766E+02  0.57018412887E+01 -0.90614370002E+01  0.19097642654E+02  0.51100000000E-03 0.  1.
         12    1    3    3    0    0  0.75523113076E+01  0.31621979165E+01 -0.16777369561E+02  0.18668610852E+02  0.00000000000E+00 0. -1.
</event>
<event>
 7    1  0.3041451E-011  0.5052884E+02  0.7816164E-02  0.1300439E+00
        -11   -1    0    0    0    0  0.00000000000E+00  0.00000000000E+00  0.45593999997E+02  0.45594000000E+02  0.51100000000E-03 0.  1.
         11   -1    0    0    0    0 -0.00000000000E+00 -0.00000000000E+00 -0.45593999997E+02  0.45594000000E+02  0.51100000000E-03 0. -1.
    9900012    2    1    2    0    0  0.13981721165E+02 -0.36471160166E+02  0.11293044396E+02  0.50528844791E+02  0.29999954226E+02 0.  0.
         12    1    1    2    0    0 -0.13981721165E+02  0.36471160166E+02 -0.11293044396E+02  0.40659155209E+02  0.00000000000E+00 0. -1.
         11    1    3    3    0    0  0.15992482333E-01 -0.14572111943E+02 -0.72356867636E+00  0.14590073822E+02  0.51100000000E-03 0. -1.
        -11    1    3    3    0    0  0.46774761133E+01  0.37689914677E+01  0.48399911588E+01  0.77142461817E+01  0.51100000000E-03 0.  1.
        -12    1    3    3    0    0  0.92882525696E+01 -0.25668039690E+02  0.71766219134E+01  0.28224524787E+02  0.00000000000E+00 0.  1.
</event>
<event>
 7    1  0.3041451E-011  0.5052885E+02  0.7816164E-02  0.1300439E+00
        -11   -1    0    0    0    0  0.00000000000E+00  0.00000000000E+00  0.45593999997E+02  0.45594000000E+02  0.51100000000E-03 0.  1.
         11   -1    0    0    0    0 -0.00000000000E+00 -0.00000000000E+00 -0.45593999997E+02  0.45594000000E+02  0.51100000000E-03 0. -1.
    9900012    2    1    2    0    0  0.38082081748E+01 -0.39166870399E+02 -0.10228395810E+02  0.50528852602E+02  0.29999977968E+02 0.  0.
         12    1    1    2    0    0 -0.38082081748E+01  0.39166870399E+02  0.10228395810E+02  0.40659147398E+02  0.00000000000E+00 0. -1.
         11    1    3    3    0    0  0.29192893361E+01 -0.28651997621E+02 -0.19747869137E+02  0.34920446068E+02  0.51100000000E-03 0. -1.
        -11    1    3    3    0    0  0.32519910443E+01 -0.84124478544E+01  0.57873085065E+01  0.10716233698E+02  0.51100000000E-03 0.  1.
         12    1    3    3    0    0 -0.23630722056E+01 -0.21024249230E+01  0.37321648204E+01  0.48921728354E+01  0.00000000000E+00 0. -1.
</event>
<event>
 7    1  0.3041451E-011  0.5052886E+02  0.7816164E-02  0.1300439E+00
        -11   -1    0    0    0    0  0.00000000000E+00  0.00000000000E+00  0.45593999997E+02  0.45594000000E+02  0.51100000000E-03 0. -1.
         11   -1    0    0    0    0 -0.00000000000E+00 -0.00000000000E+00 -0.45593999997E+02  0.45594000000E+02  0.51100000000E-03 0.  1.
    9900012    2    1    2    0    0 -0.14822280333E+02 -0.10445443305E+02 -0.36391730165E+02  0.50528864440E+02  0.30000013951E+02 0.  0.
         12    1    1    2    0    0  0.14822280333E+02  0.10445443305E+02  0.36391730165E+02  0.40659135560E+02  0.00000000000E+00 0. -1.
         11    1    3    3    0    0 -0.13891095453E+02  0.18617958845E+01 -0.11702780739E+02  0.18258803194E+02  0.51100000000E-03 0. -1.
        -11    1    3    3    0    0  0.48558090628E+01 -0.38353311164E+01 -0.20099822937E+02  0.21030728204E+02  0.51100000000E-03 0.  1.
         12    1    3    3    0    0 -0.57869939435E+01 -0.84719080727E+01 -0.45891264882E+01  0.11239333042E+02  0.00000000000E+00 0. -1.
</event>
<event>
 7    1  0.3041451E-011  0.5052887E+02  0.7816164E-02  0.1300439E+00
        -11   -1    0    0    0    0  0.00000000000E+00  0.00000000000E+00  0.45593999997E+02  0.45594000000E+02  0.51100000000E-03 0.  1.
         11   -1    0    0    0    0 -0.00000000000E+00 -0.00000000000E+00 -0.45593999997E+02  0.45594000000E+02  0.51100000000E-03 0. -1.
    9900012    2    1    2    0    0  0.27414630112E+02  0.36278687221E+01  0.29806736973E+02  0.50528868865E+02  0.30000027402E+02 0.  0.
         12    1    1    2    0    0 -0.27414630112E+02 -0.36278687221E+01 -0.29806736973E+02  0.40659131135E+02  0.00000000000E+00 0. -1.
         11    1    3    3    0    0  0.89948335536E+00 -0.54864039146E+00 -0.17870792383E+01  0.20745430944E+01  0.51100000000E-03 0. -1.
        -11    1    3    3    0    0  0.23448466410E+02  0.44107825087E+01  0.35934555967E+02  0.43134416562E+02  0.51100000000E-03 0.  1.
        -12    1    3    3    0    0  0.30666803463E+01 -0.23427339514E+00 -0.43407397550E+01  0.53199092089E+01  0.00000000000E+00 0.  1.
</event>
<event>
 7    1  0.3041451E-011  0.5052886E+02  0.7816164E-02  0.1300439E+00
        -11   -1    0    0    0    0  0.00000000000E+00  0.00000000000E+00  0.45593999997E+02  0.45594000000E+02  0.51100000000E-03 0.  1.
         11   -1    0    0    0    0 -0.00000000000E+00 -0.00000000000E+00 -0.45593999997E+02  0.45594000000E+02  0.51100000000E-03 0. -1.
    9900012    2    1    2    0    0  0.34420166101E+02  0.83079629958E+01  0.19984891967E+02  0.50528856003E+02  0.29999988308E+02 0.  0.
         12    1    1    2    0    0 -0.34420166101E+02 -0.83079629958E+01 -0.19984891967E+02  0.40659143997E+02  0.00000000000E+00 0. -1.
         11    1    3    3    0    0  0.66091668384E+01 -0.10348093972E+01  0.18189844328E+02  0.19380979174E+02  0.51100000000E-03 0. -1.
        -11    1    3    3    0    0  0.16573407938E+02  0.32381794102E+01 -0.36026107643E+01  0.17266802285E+02  0.51100000000E-03 0.  1.
         12    1    3    3    0    0  0.11237591325E+02  0.61045929828E+01  0.53976584034E+01  0.13881074545E+02  0.00000000000E+00 0. -1.
</event>
<event>
 7    1  0.3041451E-011  0.5052883E+02  0.7816164E-02  0.1300439E+00
        -11   -1    0    0    0    0  0.00000000000E+00  0.00000000000E+00  0.45593999997E+02  0.45594000000E+02  0.51100000000E-03 0.  1.
         11   -1    0    0    0    0 -0.00000000000E+00 -0.00000000000E+00 -0.45593999997E+02  0.45594000000E+02  0.51100000000E-03 0. -1.
    9900012    2    1    2    0    0  0.31767498059E+02 -0.22609130814E+02  0.11524805448E+02  0.50528832895E+02  0.29999918067E+02 0.  0.
         12    1    1    2    0    0 -0.31767498059E+02  0.22609130814E+02 -0.11524805448E+02  0.40659167105E+02  0.00000000000E+00 0. -1.
         11    1    3    3    0    0  0.19627470199E+02 -0.36334430089E+01 -0.35797015057E+01  0.20279392437E+02  0.51100000000E-03 0. -1.
        -11    1    3    3    0    0  0.13852972068E+02 -0.19360392977E+02  0.15554391554E+02  0.28437101614E+02  0.51100000000E-03 0.  1.
         12    1    3    3    0    0 -0.17129442080E+01  0.38470517143E+00 -0.44988460076E+00  0.18123388432E+01  0.00000000000E+00 0. -1.
</event>
<event>
 7    1  0.3041451E-011  0.5052887E+02  0.7816164E-02  0.1300439E+00
        -11   -1    0    0    0    0  0.00000000000E+00  0.00000000000E+00  0.45593999997E+02  0.45594000000E+02  0.51100000000E-03 0.  1.
         11   -1    0    0    0    0 -0.00000000000E+00 -0.00000000000E+00 -0.45593999997E+02  0.45594000000E+02  0.51100000000E-03 0. -1.
    9900012    2    1    2    0    0  0.87940611373E+01  0.11533541814E+02  0.37984299117E+02  0.50528867232E+02  0.30000022437E+02 0.  0.
         12    1    1    2    0    0 -0.87940611373E+01 -0.11533541814E+02 -0.37984299117E+02  0.40659132768E+02  0.00000000000E+00 0. -1.
         11    1    3    3    0    0 -0.36005999509E+00  0.48053127995E+01 -0.39009545766E+01  0.61998484797E+01  0.51100000000E-03 0. -1.
        -11    1    3    3    0    0  0.78928230596E+01  0.43714433625E+01  0.16519941281E+02  0.18823247145E+02  0.51100000000E-03 0.  1.
         12    1    3    3    0    0  0.12612980728E+01  0.23567856523E+01  0.25365312413E+02  0.25505771607E+02  0.00000000000E+00 0. -1.
</event>
<event>
 7    1  0.3041451E-011  0.5052883E+02  0.7816164E-02  0.1300439E+00
        -11   -1    0    0    0    0  0.00000000000E+00  0.00000000000E+00  0.45593999997E+02  0.45594000000E+02  0.51100000000E-03 0. -1.
         11   -1    0    0    0    0 -0.00000000000E+00 -0.00000000000E+00 -0.45593999997E+02  0.45594000000E+02  0.51100000000E-03 0.  1.
    9900012    2    1    2    0    0  0.35305008527E+02 -0.19897596061E+02  0.32879042922E+01  0.50528827963E+02  0.29999903075E+02 0.  0.
         12    1    1    2    0    0 -0.35305008527E+02  0.19897596061E+02 -0.32879042922E+01  0.40659172037E+02  0.00000000000E+00 0. -1.
         11    1    3    3    0    0  0.12291462590E+02 -0.15960241735E+02 -0.91093764341E+01  0.22108598059E+02  0.51100000000E-03 0. -1.
        -11    1    3    3    0    0  0.21882524376E+02 -0.31792831168E+01  0.75192926901E+01  0.23355780377E+02  0.51100000000E-03 0.  1.
        -12    1    3    3    0    0  0.11310215616E+01 -0.75807120905E+00  0.48779880362E+01  0.50644495271E+01  0.00000000000E+00 0.  1.
</event>
<event>
 7    1  0.3041451E-011  0.5052886E+02  0.7816164E-02  0.1300439E+00
        -11   -1    0    0    0    0  0.00000000000E+00  0.00000000000E+00  0.45593999997E+02  0.45594000000E+02  0.51100000000E-03 0.  1.
         11   -1    0    0    0    0 -0.00000000000E+00 -0.00000000000E+00 -0.45593999997E+02  0.45594000000E+02  0.51100000000E-03 0. -1.
    9900012    2    1    2    0    0  0.37174161207E+02  0.77159502482E+01  0.14550312217E+02  0.50528859142E+02  0.29999997849E+02 0.  0.
         12    1    1    2    0    0 -0.37174161207E+02 -0.77159502482E+01 -0.14550312217E+02  0.40659140858E+02  0.00000000000E+00 0. -1.
         11    1    3    3    0    0  0.24606935566E+01  0.71154707836E+00 -0.28812951026E+01  0.38552786869E+01  0.51100000000E-03 0. -1.
        -11    1    3    3    0    0  0.34048259879E+02  0.13339405654E+02  0.16891636888E+02  0.40280902932E+02  0.51100000000E-03 0.  1.
        -12    1    3    3    0    0  0.66520777123E+00 -0.63350024840E+01  0.53997043153E+00  0.63926775234E+01  0.00000000000E+00 0.  1.
</event>
<event>
 7    1  0.3041451E-011  0.5052886E+02  0.7816164E-02  0.1300439E+00
        -11   -1    0    0    0    0  0.00000000000E+00  0.00000000000E+00  0.45593999997E+02  0.45594000000E+02  0.51100000000E-03 0. -1.
         11   -1    0    0    0    0 -0.00000000000E+00 -0.00000000000E+00 -0.45593999997E+02  0.45594000000E+02  0.51100000000E-03 0.  1.
    9900012    2    1    2    0    0 -0.25629311267E+02 -0.31381417260E+02  0.33927465413E+01  0.50528859891E+02  0.30000000126E+02 0.  0.
         12    1    1    2    0    0  0.25629311267E+02  0.31381417260E+02 -0.33927465413E+01  0.40659140109E+02  0.00000000000E+00 0. -1.
         11    1    3    3    0    0 -0.63338441287E+01  0.13288148995E+01  0.52081536949E+01  0.83071171687E+01  0.51100000000E-03 0. -1.
        -11    1    3    3    0    0 -0.21155865460E+02 -0.19930343278E+02 -0.31638380194E+01  0.29236947478E+02  0.51100000000E-03 0.  1.
        -12    1    3    3    0    0  0.18603983220E+01 -0.12779888881E+02  0.13484308657E+01  0.12984795244E+02  0.00000000000E+00 0.  1.
</event>
<event>
 7    1  0.3041451E-011  0.5052888E+02  0.7816164E-02  0.1300439E+00
        -11   -1    0    0    0    0  0.00000000000E+00  0.00000000000E+00  0.45593999997E+02  0.45594000000E+02  0.51100000000E-03 0.  1.
         11   -1    0    0    0    0 -0.00000000000E+00 -0.00000000000E+00 -0.45593999997E+02  0.45594000000E+02  0.51100000000E-03 0. -1.
    9900012    2    1    2    0    0  0.46265135869E+01  0.27331797064E+02  0.29744456256E+02  0.50528875112E+02  0.30000046390E+02 0.  0.
         12    1    1    2    0    0 -0.46265135869E+01 -0.27331797064E+02 -0.29744456256E+02  0.40659124888E+02  0.00000000000E+00 0. -1.
         11    1    3    3    0    0  0.67277890812E+01  0.73299805192E+01 -0.10821954745E+01  0.10008142067E+02  0.51100000000E-03 0. -1.
        -11    1    3    3    0    0 -0.92228934138E+01  0.89507672921E+01  0.18294033847E+02  0.22357318102E+02  0.51100000000E-03 0.  1.
         12    1    3    3    0    0  0.71216179195E+01  0.11051049253E+02  0.12532617883E+02  0.18163414943E+02  0.00000000000E+00 0. -1.
</event>
<event>
 7    1  0.3041451E-011  0.5052886E+02  0.7816164E-02  0.1300439E+00
        -11   -1    0    0    0    0  0.00000000000E+00  0.00000000000E+00  0.45593999997E+02  0.45594000000E+02  0.51100000000E-03 0.  1.
         11   -1    0    0    0    0 -0.00000000000E+00 -0.00000000000E+00 -0.45593999997E+02  0.45594000000E+02  0.51100000000E-03 0. -1.
    9900012    2    1    2    0    0 -0.14941638858E+02 -0.11746480230E+02  0.35943473303E+02  0.50528860281E+02  0.30000001311E+02 0.  0.
         12    1    1    2    0    0  0.14941638858E+02  0.11746480230E+02 -0.35943473303E+02  0.40659139719E+02  0.00000000000E+00 0. -1.
         11    1    3    3    0    0 -0.44423222820E+01  0.80944796807E+01  0.12346499967E+02  0.15417227061E+02  0.51100000000E-03 0. -1.
        -11    1    3    3    0    0 -0.12097013940E+02 -0.15873837663E+02  0.23503397010E+02  0.30833847306E+02  0.51100000000E-03 0.  1.
         12    1    3    3    0    0  0.15976973634E+01 -0.39671222482E+01  0.93576325493E-01  0.42777859140E+01  0.00000000000E+00 0. -1.
</event>
<event>
 7    1  0.3041451E-011  0.5052887E+02  0.7816164E-02  0.1300439E+00
        -11   -1    0    0    0    0  0.00000000000E+00  0.00000000000E+00  0.45593999997E+02  0.45594000000E+02  0.51100000000E-03 0.  1.
         11   -1    0    0    0    0 -0.00000000000E+00 -0.00000000000E+00 -0.45593999997E+02  0.45594000000E+02  0.51100000000E-03 0. -1.
    9900012    2    1    2    0    0  0.66895923588E+01  0.38340280929E+02  0.11765927909E+02  0.50528870064E+02  0.30000031046E+02 0.  0.
         12    1    1    2    0    0 -0.66895923588E+01 -0.38340280929E+02 -0.11765927909E+02  0.40659129936E+02  0.00000000000E+00 0. -1.
         11    1    3    3    0    0  0.16356767571E+02  0.13945410679E+02  0.23156005940E+01  0.21618980798E+02  0.51100000000E-03 0. -1.
        -11    1    3    3    0    0  0.94482031040E+00  0.58068617162E+01  0.26419257222E+01  0.64491937631E+01  0.51100000000E-03 0.  1.
         12    1    3    3    0    0 -0.10611995523E+02  0.18588008533E+02  0.68084015924E+01  0.22460695503E+02  0.00000000000E+00 0. -1.
</event>
<event>
 7    1  0.3041451E-011  0.5052886E+02  0.7816164E-02  0.1300439E+00
        -11   -1    0    0    0    0  0.00000000000E+00  0.00000000000E+00  0.45593999997E+02  0.45594000000E+02  0.51100000000E-03 0.  1.
         11   -1    0    0    0    0 -0.00000000000E+00 -0.00000000000E+00 -0.45593999997E+02  0.45594000000E+02  0.51100000000E-03 0. -1.
    9900012    2    1    2    0    0  0.38132755319E+02  0.14001389058E+02  0.17377669898E+01  0.50528858864E+02  0.29999997003E+02 0.  0.
         12    1    1    2    0    0 -0.38132755319E+02 -0.14001389058E+02 -0.17377669898E+01  0.40659141136E+02  0.00000000000E+00 0. -1.
         11    1    3    3    0    0  0.72515457522E+01 -0.47434024452E+01  0.10005878253E+02  0.13236403682E+02  0.51100000000E-03 0. -1.
        -11    1    3    3    0    0  0.25136542641E+02  0.15776034465E+02 -0.51772095645E+01  0.30125280721E+02  0.51100000000E-03 0.  1.
        -12    1    3    3    0    0  0.57446669268E+01  0.29687570378E+01 -0.30909016989E+01  0.71671744615E+01  0.00000000000E+00 0.  1.
</event>
<event>
 7    1  0.3041451E-011  0.5052886E+02  0.7816164E-02  0.1300439E+00
        -11   -1    0    0    0    0  0.00000000000E+00  0.00000000000E+00  0.45593999997E+02  0.45594000000E+02  0.51100000000E-03 0.  1.
         11   -1    0    0    0    0 -0.00000000000E+00 -0.00000000000E+00 -0.45593999997E+02  0.45594000000E+02  0.51100000000E-03 0. -1.
    9900012    2    1    2    0    0 -0.33897926485E+02 -0.14925388914E+02  0.16772872649E+02  0.50528856981E+02  0.29999991278E+02 0.  0.
         12    1    1    2    0    0  0.33897926485E+02  0.14925388914E+02 -0.16772872649E+02  0.40659143019E+02  0.00000000000E+00 0. -1.
         11    1    3    3    0    0  0.20858661138E+01 -0.76485886034E+01  0.64345775169E+01  0.10210559884E+02  0.51100000000E-03 0. -1.
        -11    1    3    3    0    0 -0.20809472771E+02 -0.47310549082E+01 -0.74854122642E+00  0.21353626197E+02  0.51100000000E-03 0.  1.
        -12    1    3    3    0    0 -0.15174319827E+02 -0.25457454022E+01  0.11086836358E+02  0.18964670899E+02  0.00000000000E+00 0.  1.
</event>
<event>
 7    1  0.3041451E-011  0.5052886E+02  0.7816164E-02  0.1300439E+00
        -11   -1    0    0    0    0  0.00000000000E+00  0.00000000000E+00  0.45593999997E+02  0.45594000000E+02  0.51100000000E-03 0.  1.
         11   -1    0    0    0    0 -0.00000000000E+00 -0.00000000000E+00 -0.45593999997E+02  0.45594000000E+02  0.51100000000E-03 0. -1.
    9900012    2    1    2    0    0  0.28417761191E+01  0.84043052505E+01  0.39679430858E+02  0.50528864846E+02  0.30000015187E+02 0.  0.
         12    1    1    2    0    0 -0.28417761191E+01 -0.84043052505E+01 -0.39679430858E+02  0.40659135154E+02  0.00000000000E+00 0. -1.
         11    1    3    3    0    0  0.20041782419E+01 -0.62968367325E+01  0.11747483202E+02  0.13478510493E+02  0.51100000000E-03 0. -1.
        -11    1    3    3    0    0  0.42629812365E+01  0.18632668756E+02  0.22442976744E+02  0.29479426036E+02  0.51100000000E-03 0.  1.
         12    1    3    3    0    0 -0.34253833593E+01 -0.39315267731E+01  0.54889709114E+01  0.75709283177E+01  0.00000000000E+00 0. -1.
</event>
<event>
 7    1  0.3041451E-011  0.5052884E+02  0.7816164E-02  0.1300439E+00
        -11   -1    0    0    0    0  0.00000000000E+00  0.00000000000E+00  0.45593999997E+02  0.45594000000E+02  0.51100000000E-03 0. -1.
         11   -1    0    0    0    0 -0.00000000000E+00 -0.00000000000E+00 -0.45593999997E+02  0.45594000000E+02  0.51100000000E-03 0.  1.
    9900012    2    1    2    0    0 -0.33171856380E+02  0.60857848397E+01 -0.22710320091E+02  0.50528837792E+02  0.29999932953E+02 0.  0.
         12    1    1    2    0    0  0.33171856380E+02 -0.60857848397E+01  0.22710320091E+02  0.40659162208E+02  0.00000000000E+00 0. -1.
         11    1    3    3    0    0 -0.21166933996E+01 -0.82658105847E+01 -0.96653586419E+01  0.12892756630E+02  0.51100000000E-03 0. -1.
        -11    1    3    3    0    0 -0.16992134546E+02  0.83628049922E+01 -0.11769704920E+02  0.22297872050E+02  0.51100000000E-03 0.  1.
        -12    1    3    3    0    0 -0.14063028434E+02  0.59887904322E+01 -0.12752565292E+01  0.15338209113E+02  0.00000000000E+00 0.  1.
</event>
<event>
 7    1  0.3041451E-011  0.5052886E+02  0.7816164E-02  0.1300439E+00
        -11   -1    0    0    0    0  0.00000000000E+00  0.00000000000E+00  0.45593999997E+02  0.45594000000E+02  0.51100000000E-03 0.  1.
         11   -1    0    0    0    0 -0.00000000000E+00 -0.00000000000E+00 -0.45593999997E+02  0.45594000000E+02  0.51100000000E-03 0. -1.
    9900012    2    1    2    0    0  0.14893261431E+01 -0.33030265667E+02  0.23663242468E+02  0.50528860973E+02  0.30000003412E+02 0.  0.
         12    1    1    2    0    0 -0.14893261431E+01  0.33030265667E+02 -0.23663242468E+02  0.40659139027E+02  0.00000000000E+00 0. -1.
         11    1    3    3    0    0 -0.63786286577E+01 -0.93739761722E+01  0.85398127635E+00  0.11370471279E+02  0.51100000000E-03 0. -1.
        -11    1    3    3    0    0  0.10466646918E+02 -0.76437405771E+01  0.18109017845E+02  0.22269126504E+02  0.51100000000E-03 0.  1.
        -12    1    3    3    0    0 -0.25986921168E+01 -0.16012548917E+02  0.47002433468E+01  0.16889263189E+02  0.00000000000E+00 0.  1.
</event>
<event>
 7    1  0.3041451E-011  0.5052885E+02  0.7816164E-02  0.1300439E+00
        -11   -1    0    0    0    0  0.00000000000E+00  0.00000000000E+00  0.45593999997E+02  0.45594000000E+02  0.51100000000E-03 0.  1.
         11   -1    0    0    0    0 -0.00000000000E+00 -0.00000000000E+00 -0.45593999997E+02  0.45594000000E+02  0.51100000000E-03 0. -1.
    9900012    2    1    2    0    0  0.26429041426E+01  0.19370739182E+02  0.35650469314E+02  0.50528850463E+02  0.29999971467E+02 0.  0.
         12    1    1    2    0    0 -0.26429041426E+01 -0.19370739182E+02 -0.35650469314E+02  0.40659149537E+02  0.00000000000E+00 0. -1.
         11    1    3    3    0    0  0.81979033717E+00  0.67418255547E+01 -0.10826741449E+01  0.68772415671E+01  0.51100000000E-03 0. -1.
        -11    1    3    3    0    0  0.57765023899E+01 -0.35781257131E+01  0.12572155425E+02  0.14290908150E+02  0.51100000000E-03 0.  1.
        -12    1    3    3    0    0 -0.39533885845E+01  0.16207039340E+02  0.24160988034E+02  0.29360700746E+02  0.00000000000E+00 0.  1.
</event>
<event>
 7    1  0.3041451E-011  0.5052886E+02  0.7816164E-02  0.1300439E+00
        -11   -1    0    0    0    0  0.00000000000E+00  0.00000000000E+00  0.45593999997E+02  0.45594000000E+02  0.51100000000E-03 0.  1.
         11   -1    0    0    0    0 -0.00000000000E+00 -0.00000000000E+00 -0.45593999997E+02  0.45594000000E+02  0.51100000000E-03 0. -1.
    9900012    2    1    2    0    0 -0.33348513742E+02  0.17868941378E+02  0.14891044866E+02  0.50528860167E+02  0.30000000964E+02 0.  0.
         12    1    1    2    0    0  0.33348513742E+02 -0.17868941378E+02 -0.14891044866E+02  0.40659139833E+02  0.00000000000E+00 0. -1.
         11    1    3    3    0    0  0.17278171428E+01 -0.16278943827E+01  0.28354028163E+01  0.36979591117E+01  0.51100000000E-03 0. -1.
        -11    1    3    3    0    0 -0.33270158597E+02  0.23447650083E+02  0.95203865628E+01  0.41801118502E+02  0.51100000000E-03 0.  1.
        -12    1    3    3    0    0 -0.18061722877E+01 -0.39508143230E+01  0.25352554870E+01  0.50297825531E+01  0.00000000000E+00 0.  1.
</event>
<event>
 7    1  0.3041451E-011  0.5052885E+02  0.7816164E-02  0.1300439E+00
        -11   -1    0    0    0    0  0.00000000000E+00  0.00000000000E+00  0.45593999997E+02  0.45594000000E+02  0.51100000000E-03 0.  1.
         11   -1    0    0    0    0 -0.00000000000E+00 -0.00000000000E+00 -0.45593999997E+02  0.45594000000E+02  0.51100000000E-03 0. -1.
    9900012    2    1    2    0    0 -0.53423961984E+01 -0.38729845166E+02  0.11163524929E+02  0.50528851059E+02  0.29999973279E+02 0.  0.
         12    1    1    2    0    0  0.53423961984E+01  0.38729845166E+02 -0.11163524929E+02  0.40659148941E+02  0.00000000000E+00 0. -1.
         11    1    3    3    0    0 -0.19002175405E+00 -0.99030013694E+01  0.53697513629E+00  0.99193692818E+01  0.51100000000E-03 0. -1.
        -11    1    3    3    0    0 -0.77365590511E+01  0.93233221298E+00 -0.22056698460E+01  0.80986769930E+01  0.51100000000E-03 0.  1.
        -12    1    3    3    0    0  0.25841846067E+01 -0.29759176010E+02  0.12832219638E+02  0.32510804784E+02  0.00000000000E+00 0.  1.
</event>
<event>
 7    1  0.3041451E-011  0.5052886E+02  0.7816164E-02  0.1300439E+00
        -11   -1    0    0    0    0  0.00000000000E+00  0.00000000000E+00  0.45593999997E+02  0.45594000000E+02  0.51100000000E-03 0.  1.
         11   -1    0    0    0    0 -0.00000000000E+00 -0.00000000000E+00 -0.45593999997E+02  0.45594000000E+02  0.51100000000E-03 0. -1.
    9900012    2    1    2    0    0  0.25107267343E+02  0.31722286059E+02  0.40604207399E+01  0.50528864215E+02  0.30000013267E+02 0.  0.
         12    1    1    2    0    0 -0.25107267343E+02 -0.31722286059E+02 -0.40604207399E+01  0.40659135785E+02  0.00000000000E+00 0. -1.
         11    1    3    3    0    0  0.95410744104E+00  0.77323665684E+01 -0.51269625047E+01  0.93266048776E+01  0.51100000000E-03 0. -1.
        -11    1    3    3    0    0  0.19158547288E+02  0.54744852780E+01 -0.28806364290E-01  0.19925379628E+02  0.51100000000E-03 0.  1.
        -12    1    3    3    0    0  0.49946126134E+01  0.18515434213E+02  0.92161896088E+01  0.21276879709E+02  0.00000000000E+00 0.  1.
</event>
<event>
 7    1  0.3041451E-011  0.5052885E+02  0.7816164E-02  0.1300439E+00
        -11   -1    0    0    0    0  0.00000000000E+00  0.00000000000E+00  0.45593999997E+02  0.45594000000E+02  0.51100000000E-03 0.  1.
         11   -1    0    0    0    0 -0.00000000000E+00 -0.00000000000E+00 -0.45593999997E+02  0.45594000000E+02  0.51100000000E-03 0. -1.
    9900012    2    1    2    0    0 -0.25027508130E+02 -0.15208051869E+02  0.28204702429E+02  0.50528852887E+02  0.29999978837E+02 0.  0.
         12    1    1    2    0    0  0.25027508130E+02  0.15208051869E+02 -0.28204702429E+02  0.40659147113E+02  0.00000000000E+00 0. -1.
         11    1    3    3    0    0 -0.18396732665E+02 -0.11313726066E+02  0.77064915873E+01  0.22930987399E+02  0.51100000000E-03 0. -1.
        -11    1    3    3    0    0 -0.39542679952E+01 -0.76945066984E+01  0.21199871512E+02  0.22897078876E+02  0.51100000000E-03 0.  1.
        -12    1    3    3    0    0 -0.26765074690E+01  0.38001808958E+01 -0.70166067000E+00  0.47007866116E+01  0.00000000000E+00 0.  1.
</event>
<event>
 7    1  0.3041451E-011  0.5052886E+02  0.7816164E-02  0.1300439E+00
        -11   -1    0    0    0    0  0.00000000000E+00  0.00000000000E+00  0.45593999997E+02  0.45594000000E+02  0.51100000000E-03 0.  1.
         11   -1    0    0    0    0 -0.00000000000E+00 -0.00000000000E+00 -0.45593999997E+02  0.45594000000E+02  0.51100000000E-03 0. -1.
    9900012    2    1    2    0    0 -0.35871299488E+02 -0.11485710755E+02 -0.15313204305E+02  0.50528857060E+02  0.29999991521E+02 0.  0.
         12    1    1    2    0    0  0.35871299488E+02  0.11485710755E+02  0.15313204305E+02  0.40659142940E+02  0.00000000000E+00 0. -1.
         11    1    3    3    0    0 -0.18378069375E+02 -0.14033506864E+02 -0.25828725703E+01  0.23267229742E+02  0.51100000000E-03 0. -1.
        -11    1    3    3    0    0 -0.92805236302E+01  0.73085087268E+01 -0.55884583952E+00  0.11826019093E+02  0.51100000000E-03 0.  1.
         12    1    3    3    0    0 -0.82127064825E+01 -0.47607126174E+01 -0.12171485895E+02  0.15435608225E+02  0.00000000000E+00 0. -1.
</event>
<event>
 7    1  0.4117827E-011  0.5052886E+02  0.7816164E-02  0.1300439E+00
        -11   -1    0    0    0    0  0.00000000000E+00  0.00000000000E+00  0.45593999997E+02  0.45594000000E+02  0.51100000000E-03 0. -1.
         11   -1    0    0    0    0 -0.00000000000E+00 -0.00000000000E+00 -0.45593999997E+02  0.45594000000E+02  0.51100000000E-03 0.  1.
    9900012    2    1    2    0    0 -0.26147115438E+02  0.10210918524E+00 -0.31136534322E+02  0.50528857835E+02  0.29999993875E+02 0.  0.
         12    1    1    2    0    0  0.26147115438E+02 -0.10210918524E+00  0.31136534322E+02  0.40659142165E+02  0.00000000000E+00 0. -1.
         11    1    3    3    0    0  0.16806825238E+01 -0.11337640226E+00  0.37326080417E+01  0.40951081803E+01  0.51100000000E-03 0. -1.
        -11    1    3    3    0    0 -0.18918424931E+02  0.62061276631E+01 -0.23380324756E+02  0.30709321197E+02  0.51100000000E-03 0.  1.
         12    1    3    3    0    0 -0.89093730309E+01 -0.59906420756E+01 -0.11488817607E+02  0.15724428457E+02  0.00000000000E+00 0. -1.
</event>
<event>
 7    1  0.3041451E-011  0.5052890E+02  0.7816164E-02  0.1300439E+00
        -11   -1    0    0    0    0  0.00000000000E+00  0.00000000000E+00  0.45593999997E+02  0.45594000000E+02  0.51100000000E-03 0.  1.
         11   -1    0    0    0    0 -0.00000000000E+00 -0.00000000000E+00 -0.45593999997E+02  0.45594000000E+02  0.51100000000E-03 0. -1.
    9900012    2    1    2    0    0 -0.10080188135E+02 -0.26117739112E+01  0.39303063070E+02  0.50528901110E+02  0.30000125415E+02 0.  0.
         12    1    1    2    0    0  0.10080188135E+02  0.26117739112E+01 -0.39303063070E+02  0.40659098890E+02  0.00000000000E+00 0. -1.
         11    1    3    3    0    0 -0.94872651764E+01  0.82618494728E+01  0.24963552325E+02  0.27954343172E+02  0.51100000000E-03 0.  1.
        -11    1    3    3    0    0  0.54439899006E+01 -0.73713581103E+00  0.32506892541E+01  0.63833671467E+01  0.51100000000E-03 0. -1.
         12    1    3    3    0    0 -0.60369128596E+01 -0.10136487573E+02  0.11088821491E+02  0.16191190792E+02  0.00000000000E+00 0. -1.
</event>
<event>
 7    1  0.3041451E-011  0.5052887E+02  0.7816164E-02  0.1300439E+00
        -11   -1    0    0    0    0  0.00000000000E+00  0.00000000000E+00  0.45593999997E+02  0.45594000000E+02  0.51100000000E-03 0.  1.
         11   -1    0    0    0    0 -0.00000000000E+00 -0.00000000000E+00 -0.45593999997E+02  0.45594000000E+02  0.51100000000E-03 0. -1.
    9900012    2    1    2    0    0 -0.38699949621E+02  0.21230857604E+01  0.12287045250E+02  0.50528867265E+02  0.30000022539E+02 0.  0.
         12    1    1    2    0    0  0.38699949621E+02 -0.21230857604E+01 -0.12287045250E+02  0.40659132735E+02  0.00000000000E+00 0. -1.
         11    1    3    3    0    0  0.58324827434E+00  0.49012096058E+01 -0.17970530451E+01  0.52527549017E+01  0.51100000000E-03 0. -1.
        -11    1    3    3    0    0 -0.20357954307E+02  0.63855786192E+01  0.11061580069E+02  0.24032903940E+02  0.51100000000E-03 0.  1.
         12    1    3    3    0    0 -0.18925243588E+02 -0.91637024646E+01  0.30225182253E+01  0.21243208424E+02  0.00000000000E+00 0. -1.
</event>
<event>
 7    1  0.3041451E-011  0.5052883E+02  0.7816164E-02  0.1300439E+00
        -11   -1    0    0    0    0  0.00000000000E+00  0.00000000000E+00  0.45593999997E+02  0.45594000000E+02  0.51100000000E-03 0.  1.
         11   -1    0    0    0    0 -0.00000000000E+00 -0.00000000000E+00 -0.45593999997E+02  0.45594000000E+02  0.51100000000E-03 0. -1.
    9900012    2    1    2    0    0  0.32919522083E+02 -0.84539379073E+01  0.22316013530E+02  0.50528825634E+02  0.29999895995E+02 0.  0.
         12    1    1    2    0    0 -0.32919522083E+02  0.84539379073E+01 -0.22316013530E+02  0.40659174366E+02  0.00000000000E+00 0. -1.
         11    1    3    3    0    0  0.86941488054E+01  0.53569114768E+01 -0.25142835981E+01  0.10516955182E+02  0.51100000000E-03 0. -1.
        -11    1    3    3    0    0  0.77618870985E+01 -0.60806664080E+01  0.18113471205E+02  0.20623269252E+02  0.51100000000E-03 0.  1.
        -12    1    3    3    0    0  0.16463486179E+02 -0.77301829760E+01  0.67168259234E+01  0.19388601200E+02  0.00000000000E+00 0.  1.
</event>
<event>
 7    1  0.3041451E-011  0.5052885E+02  0.7816164E-02  0.1300439E+00
        -11   -1    0    0    0    0  0.00000000000E+00  0.00000000000E+00  0.45593999997E+02  0.45594000000E+02  0.51100000000E-03 0.  1.
         11   -1    0    0    0    0 -0.00000000000E+00 -0.00000000000E+00 -0.45593999997E+02  0.45594000000E+02  0.51100000000E-03 0. -1.
    9900012    2    1    2    0    0  0.40532961337E+02 -0.24120423306E+01  0.21041230953E+01  0.50528852973E+02  0.29999979097E+02 0.  0.
         12    1    1    2    0    0 -0.40532961337E+02  0.24120423306E+01 -0.21041230953E+01  0.40659147027E+02  0.00000000000E+00 0. -1.
         11    1    3    3    0    0 -0.33021956033E+01 -0.11313363166E+01  0.39741708538E+00  0.35131692621E+01  0.51100000000E-03 0. -1.
        -11    1    3    3    0    0  0.28980627612E+02  0.60148645357E+01 -0.31576984437E+01  0.29766196127E+02  0.51100000000E-03 0.  1.
        -12    1    3    3    0    0  0.14854529329E+02 -0.72955705497E+01  0.48644044536E+01  0.17249487584E+02  0.00000000000E+00 0.  1.
</event>
<event>
 7    1  0.3041451E-011  0.5052886E+02  0.7816164E-02  0.1300439E+00
        -11   -1    0    0    0    0  0.00000000000E+00  0.00000000000E+00  0.45593999997E+02  0.45594000000E+02  0.51100000000E-03 0.  1.
         11   -1    0    0    0    0 -0.00000000000E+00 -0.00000000000E+00 -0.45593999997E+02  0.45594000000E+02  0.51100000000E-03 0. -1.
    9900012    2    1    2    0    0  0.10169290475E+02 -0.13351313159E+02  0.37033683021E+02  0.50528859454E+02  0.29999998796E+02 0.  0.
         12    1    1    2    0    0 -0.10169290475E+02  0.13351313159E+02 -0.37033683021E+02  0.40659140546E+02  0.00000000000E+00 0. -1.
         11    1    3    3    0    0 -0.58054131605E+01 -0.15494282340E+02  0.16304213968E+02  0.23229356439E+02  0.51100000000E-03 0. -1.
        -11    1    3    3    0    0  0.10800585245E+02  0.47451007879E+01  0.12034362752E+02  0.16852136667E+02  0.51100000000E-03 0.  1.
         12    1    3    3    0    0  0.51741183904E+01 -0.26021316073E+01  0.86951063014E+01  0.10447366348E+02  0.00000000000E+00 0. -1.
</event>
<event>
 7    1  0.3041451E-011  0.5052886E+02  0.7816164E-02  0.1300439E+00
        -11   -1    0    0    0    0  0.00000000000E+00  0.00000000000E+00  0.45593999997E+02  0.45594000000E+02  0.51100000000E-03 0.  1.
         11   -1    0    0    0    0 -0.00000000000E+00 -0.00000000000E+00 -0.45593999997E+02  0.45594000000E+02  0.51100000000E-03 0. -1.
    9900012    2    1    2    0    0 -0.83872603329E+01  0.80068110588E+01  0.38970636121E+02  0.50528860328E+02  0.30000001452E+02 0.  0.
         12    1    1    2    0    0  0.83872603329E+01 -0.80068110588E+01 -0.38970636121E+02  0.40659139672E+02  0.00000000000E+00 0. -1.
         11    1    3    3    0    0 -0.98100122660E+01  0.23839692089E+01  0.10531527018E+02  0.14588787182E+02  0.51100000000E-03 0. -1.
        -11    1    3    3    0    0  0.41990733720E+01  0.32120989186E+01 -0.17185698621E+01  0.55590718001E+01  0.51100000000E-03 0.  1.
        -12    1    3    3    0    0 -0.27763214389E+01  0.24107429312E+01  0.30157678965E+02  0.30381001345E+02  0.00000000000E+00 0.  1.
</event>
<event>
 7    1  0.3041451E-011  0.5052888E+02  0.7816164E-02  0.1300439E+00
        -11   -1    0    0    0    0  0.00000000000E+00  0.00000000000E+00  0.45593999997E+02  0.45594000000E+02  0.51100000000E-03 0. -1.
         11   -1    0    0    0    0 -0.00000000000E+00 -0.00000000000E+00 -0.45593999997E+02  0.45594000000E+02  0.51100000000E-03 0.  1.
    9900012    2    1    2    0    0 -0.38296843032E+02  0.26092648873E+01 -0.13405496107E+02  0.50528883244E+02  0.30000071110E+02 0.  0.
         12    1    1    2    0    0  0.38296843032E+02 -0.26092648873E+01  0.13405496107E+02  0.40659116756E+02  0.00000000000E+00 0. -1.
         11    1    3    3    0    0 -0.10260060803E+02  0.66805924976E+01 -0.13835963372E+02  0.18475200851E+02  0.51100000000E-03 0. -1.
        -11    1    3    3    0    0 -0.18514591632E+02 -0.58816514649E+01 -0.61054237019E+01  0.20363205202E+02  0.51100000000E-03 0.  1.
         12    1    3    3    0    0 -0.95221905973E+01  0.18103238547E+01  0.65358909671E+01  0.11690477192E+02  0.00000000000E+00 0. -1.
</event>
<event>
 7    1  0.3041451E-011  0.5052886E+02  0.7816164E-02  0.1300439E+00
        -11   -1    0    0    0    0  0.00000000000E+00  0.00000000000E+00  0.45593999997E+02  0.45594000000E+02  0.51100000000E-03 0.  1.
         11   -1    0    0    0    0 -0.00000000000E+00 -0.00000000000E+00 -0.45593999997E+02  0.45594000000E+02  0.51100000000E-03 0. -1.
    9900012    2    1    2    0    0  0.22104005982E+02 -0.24054925907E+02  0.24206182159E+02  0.50528858401E+02  0.29999995595E+02 0.  0.
         12    1    1    2    0    0 -0.22104005982E+02  0.24054925907E+02 -0.24206182159E+02  0.40659141599E+02  0.00000000000E+00 0. -1.
         11    1    3    3    0    0 -0.41401859932E+01  0.45844950847E+00 -0.14544731549E+01  0.44121206272E+01  0.51100000000E-03 0. -1.
        -11    1    3    3    0    0  0.12700199435E+02 -0.83290472021E+01  0.36433608970E+01  0.15618648209E+02  0.51100000000E-03 0.  1.
         12    1    3    3    0    0  0.13543992540E+02 -0.16184328213E+02  0.22017294417E+02  0.30498089565E+02  0.00000000000E+00 0. -1.
</event>
<event>
 7    1  0.3041451E-011  0.5052884E+02  0.7816164E-02  0.1300439E+00
        -11   -1    0    0    0    0  0.00000000000E+00  0.00000000000E+00  0.45593999997E+02  0.45594000000E+02  0.51100000000E-03 0.  1.
         11   -1    0    0    0    0 -0.00000000000E+00 -0.00000000000E+00 -0.45593999997E+02  0.45594000000E+02  0.51100000000E-03 0. -1.
    9900012    2    1    2    0    0  0.30841565277E+01 -0.27429972503E+02  0.29853847922E+02  0.50528835612E+02  0.29999926326E+02 0.  0.
         12    1    1    2    0    0 -0.30841565277E+01  0.27429972503E+02 -0.29853847922E+02  0.40659164388E+02  0.00000000000E+00 0. -1.
         11    1    3    3    0    0  0.21971472782E+01 -0.14159015571E+02  0.13713204431E+01  0.14393946579E+02  0.51100000000E-03 0. -1.
        -11    1    3    3    0    0  0.65066054694E+01 -0.12607829362E+02  0.26642420102E+02  0.30184628954E+02  0.51100000000E-03 0.  1.
         12    1    3    3    0    0 -0.56195962199E+01 -0.66312756972E+00  0.18401073774E+01  0.59502600791E+01  0.00000000000E+00 0. -1.
</event>
<event>
 7    1  0.3041451E-011  0.5052888E+02  0.7816164E-02  0.1300439E+00
        -11   -1    0    0    0    0  0.00000000000E+00  0.00000000000E+00  0.45593999997E+02  0.45594000000E+02  0.51100000000E-03 0.  1.
         11   -1    0    0    0    0 -0.00000000000E+00 -0.00000000000E+00 -0.45593999997E+02  0.45594000000E+02  0.51100000000E-03 0. -1.
    9900012    2    1    2    0    0  0.93107469614E+01 -0.12694685858E+02  0.37487589590E+02  0.50528875178E+02  0.30000046590E+02 0.  0.
         12    1    1    2    0    0 -0.93107469614E+01  0.12694685858E+02 -0.37487589590E+02  0.40659124822E+02  0.00000000000E+00 0. -1.
         11    1    3    3    0    0 -0.51847402942E+01 -0.13006897414E+01  0.18764619777E+02  0.19511132242E+02  0.51100000000E-03 0. -1.
        -11    1    3    3    0    0  0.17677872158E+02 -0.63932624331E+01  0.14460702011E+02  0.23716932168E+02  0.51100000000E-03 0.  1.
        -12    1    3    3    0    0 -0.31823849018E+01 -0.50007336841E+01  0.42622678020E+01  0.73008107672E+01  0.00000000000E+00 0.  1.
</event>
<event>
 7    1  0.3041451E-011  0.5052887E+02  0.7816164E-02  0.1300439E+00
        -11   -1    0    0    0    0  0.00000000000E+00  0.00000000000E+00  0.45593999997E+02  0.45594000000E+02  0.51100000000E-03 0.  1.
         11   -1    0    0    0    0 -0.00000000000E+00 -0.00000000000E+00 -0.45593999997E+02  0.45594000000E+02  0.51100000000E-03 0. -1.
    9900012    2    1    2    0    0  0.65216846321E+01 -0.13185240205E+02  0.37904910357E+02  0.50528866231E+02  0.30000019396E+02 0.  0.
         12    1    1    2    0    0 -0.65216846321E+01  0.13185240205E+02 -0.37904910357E+02  0.40659133769E+02  0.00000000000E+00 0. -1.
         11    1    3    3    0    0 -0.50564061009E+01 -0.95382439825E+01  0.63500769588E+00  0.10814276488E+02  0.51100000000E-03 0. -1.
        -11    1    3    3    0    0  0.79654239303E+01  0.78112421651E+00  0.21854314089E+02  0.23273787358E+02  0.51100000000E-03 0.  1.
         12    1    3    3    0    0  0.36126668026E+01 -0.44281204387E+01  0.15415588572E+02  0.16440802385E+02  0.00000000000E+00 0. -1.
</event>
<event>
 7    1  0.3041451E-011  0.5052886E+02  0.7816164E-02  0.1300439E+00
        -11   -1    0    0    0    0  0.00000000000E+00  0.00000000000E+00  0.45593999997E+02  0.45594000000E+02  0.51100000000E-03 0.  1.
         11   -1    0    0    0    0 -0.00000000000E+00 -0.00000000000E+00 -0.45593999997E+02  0.45594000000E+02  0.51100000000E-03 0. -1.
    9900012    2    1    2    0    0 -0.40355257735E+02  0.82724929374E+00  0.48923301077E+01  0.50528855123E+02  0.29999985631E+02 0.  0.
         12    1    1    2    0    0  0.40355257735E+02 -0.82724929374E+00 -0.48923301077E+01  0.40659144877E+02  0.00000000000E+00 0. -1.
         11    1    3    3    0    0 -0.18010718987E+02 -0.55207439336E+01  0.16030250413E+02  0.24735269164E+02  0.51100000000E-03 0. -1.
        -11    1    3    3    0    0 -0.17647445348E+02  0.49167122916E+01 -0.93519772425E+01  0.20568564988E+02  0.51100000000E-03 0.  1.
         12    1    3    3    0    0 -0.46970933993E+01  0.14312809357E+01 -0.17859430632E+01  0.52250209707E+01  0.00000000000E+00 0. -1.
</event>
<event>
 7    1  0.3041451E-011  0.5052896E+02  0.7816164E-02  0.1300438E+00
        -11   -1    0    0    0    0  0.00000000000E+00  0.00000000000E+00  0.45593999997E+02  0.45594000000E+02  0.51100000000E-03 0.  1.
         11   -1    0    0    0    0 -0.00000000000E+00 -0.00000000000E+00 -0.45593999997E+02  0.45594000000E+02  0.51100000000E-03 0. -1.
    9900012    2    1    2    0    0 -0.83980129388E+01  0.22694824774E+02  0.32673776939E+02  0.50528961739E+02  0.30000309700E+02 0.  0.
         12    1    1    2    0    0  0.83980129388E+01 -0.22694824774E+02 -0.32673776939E+02  0.40659038261E+02  0.00000000000E+00 0. -1.
         11    1    3    3    0    0  0.28136235793E+00  0.21355774916E+01 -0.12969558165E+01  0.25143489515E+01  0.51100000000E-03 0. -1.
        -11    1    3    3    0    0 -0.65653508473E+00  0.21998782606E+01  0.26549520065E+02  0.26648593183E+02  0.51100000000E-03 0.  1.
        -12    1    3    3    0    0 -0.80228402120E+01  0.18359369022E+02  0.74212126905E+01  0.21366019605E+02  0.00000000000E+00 0.  1.
</event>
<event>
 7    1  0.3041451E-011  0.5052885E+02  0.7816164E-02  0.1300439E+00
        -11   -1    0    0    0    0  0.00000000000E+00  0.00000000000E+00  0.45593999997E+02  0.45594000000E+02  0.51100000000E-03 0.  1.
         11   -1    0    0    0    0 -0.00000000000E+00 -0.00000000000E+00 -0.45593999997E+02  0.45594000000E+02  0.51100000000E-03 0. -1.
    9900012    2    1    2    0    0 -0.23288706154E+02  0.13303908224E+02  0.30558277643E+02  0.50528854155E+02  0.29999982688E+02 0.  0.
         12    1    1    2    0    0  0.23288706154E+02 -0.13303908224E+02 -0.30558277643E+02  0.40659145845E+02  0.00000000000E+00 0. -1.
         11    1    3    3    0    0 -0.17157114954E+02  0.11401915368E+02  0.26356382873E+01  0.20768169323E+02  0.51100000000E-03 0. -1.
        -11    1    3    3    0    0  0.19674941633E+01  0.73790092624E+00  0.63343729273E+01  0.66738153783E+01  0.51100000000E-03 0.  1.
         12    1    3    3    0    0 -0.80990853635E+01  0.11640919298E+01  0.21588266429E+02  0.23086869453E+02  0.00000000000E+00 0. -1.
</event>
<event>
 7    1  0.3041451E-011  0.5052886E+02  0.7816164E-02  0.1300439E+00
        -11   -1    0    0    0    0  0.00000000000E+00  0.00000000000E+00  0.45593999997E+02  0.45594000000E+02  0.51100000000E-03 0.  1.
         11   -1    0    0    0    0 -0.00000000000E+00 -0.00000000000E+00 -0.45593999997E+02  0.45594000000E+02  0.51100000000E-03 0. -1.
    9900012    2    1    2    0    0 -0.48466013846E+01 -0.46392764467E+01  0.40101784504E+02  0.50528861404E+02  0.30000004724E+02 0.  0.
         12    1    1    2    0    0  0.48466013846E+01  0.46392764467E+01 -0.40101784504E+02  0.40659138596E+02  0.00000000000E+00 0. -1.
         11    1    3    3    0    0  0.32391619386E+01  0.96850639199E+01  0.90103713869E+01  0.13619083155E+02  0.51100000000E-03 0. -1.
        -11    1    3    3    0    0 -0.42954545181E+01 -0.67777523327E+00  0.14280479387E+02  0.14927906771E+02  0.51100000000E-03 0.  1.
         12    1    3    3    0    0 -0.37903088051E+01 -0.13646565133E+02  0.16810933731E+02  0.21981871478E+02  0.00000000000E+00 0. -1.
</event>
<event>
 7    1  0.3041451E-011  0.5052883E+02  0.7816164E-02  0.1300439E+00
        -11   -1    0    0    0    0  0.00000000000E+00  0.00000000000E+00  0.45593999997E+02  0.45594000000E+02  0.51100000000E-03 0.  1.
         11   -1    0    0    0    0 -0.00000000000E+00 -0.00000000000E+00 -0.45593999997E+02  0.45594000000E+02  0.51100000000E-03 0. -1.
    9900012    2    1    2    0    0  0.29412743484E+02 -0.24148362027E+01  0.27968327116E+02  0.50528828405E+02  0.29999904418E+02 0.  0.
         12    1    1    2    0    0 -0.29412743484E+02  0.24148362027E+01 -0.27968327116E+02  0.40659171595E+02  0.00000000000E+00 0. -1.
         11    1    3    3    0    0  0.15593784646E+02  0.67993374409E+01  0.44334206322E+01  0.17579884186E+02  0.51100000000E-03 0. -1.
        -11    1    3    3    0    0 -0.36031535364E+01 -0.13411988330E+01  0.28782091279E+01  0.48026677755E+01  0.51100000000E-03 0.  1.
         12    1    3    3    0    0  0.17422112374E+02 -0.78729748106E+01  0.20656697356E+02  0.28146276443E+02  0.00000000000E+00 0. -1.
</event>
<event>
 7    1  0.3041451E-011  0.5052887E+02  0.7816164E-02  0.1300439E+00
        -11   -1    0    0    0    0  0.00000000000E+00  0.00000000000E+00  0.45593999997E+02  0.45594000000E+02  0.51100000000E-03 0. -1.
         11   -1    0    0    0    0 -0.00000000000E+00 -0.00000000000E+00 -0.45593999997E+02  0.45594000000E+02  0.51100000000E-03 0.  1.
    9900012    2    1    2    0    0 -0.93575903605E+01 -0.39171120830E+02 -0.55878141534E+01  0.50528869765E+02  0.30000030137E+02 0.  0.
         12    1    1    2    0    0  0.93575903605E+01  0.39171120830E+02  0.55878141534E+01  0.40659130235E+02  0.00000000000E+00 0. -1.
         11    1    3    3    0    0 -0.68086744077E+01 -0.16858422718E+02  0.44212058424E+00  0.18186806608E+02  0.51100000000E-03 0. -1.
        -11    1    3    3    0    0  0.25243297003E+01  0.28764641527E+01  0.32518649129E+01  0.50220426253E+01  0.51100000000E-03 0.  1.
        -12    1    3    3    0    0 -0.50732456531E+01 -0.25189162266E+02 -0.92817996506E+01  0.27320020532E+02  0.00000000000E+00 0.  1.
</event>
<event>
 7    1  0.3041451E-011  0.5052886E+02  0.7816164E-02  0.1300439E+00
        -11   -1    0    0    0    0  0.00000000000E+00  0.00000000000E+00  0.45593999997E+02  0.45594000000E+02  0.51100000000E-03 0.  1.
         11   -1    0    0    0    0 -0.00000000000E+00 -0.00000000000E+00 -0.45593999997E+02  0.45594000000E+02  0.51100000000E-03 0. -1.
    9900012    2    1    2    0    0 -0.20828497784E+02 -0.83312839306E+01  0.33910598767E+02  0.50528864242E+02  0.30000013350E+02 0.  0.
         12    1    1    2    0    0  0.20828497784E+02  0.83312839306E+01 -0.33910598767E+02  0.40659135758E+02  0.00000000000E+00 0. -1.
         11    1    3    3    0    0 -0.10602152951E+01  0.78264060997E+01  0.15571781180E+02  0.17460156308E+02  0.51100000000E-03 0. -1.
        -11    1    3    3    0    0 -0.14960532329E+02 -0.95187550688E+01  0.17357131750E+02  0.24813186987E+02  0.51100000000E-03 0.  1.
         12    1    3    3    0    0 -0.48077501602E+01 -0.66389349614E+01  0.98168583687E+00  0.82555209471E+01  0.00000000000E+00 0. -1.
</event>
<event>
 7    1  0.3041451E-011  0.5052882E+02  0.7816164E-02  0.1300439E+00
        -11   -1    0    0    0    0  0.00000000000E+00  0.00000000000E+00  0.45593999997E+02  0.45594000000E+02  0.51100000000E-03 0. -1.
         11   -1    0    0    0    0 -0.00000000000E+00 -0.00000000000E+00 -0.45593999997E+02  0.45594000000E+02  0.51100000000E-03 0.  1.
    9900012    2    1    2    0    0  0.28710493223E+02  0.23839312193E+02  0.16141988331E+02  0.50528818820E+02  0.29999875285E+02 0.  0.
         12    1    1    2    0    0 -0.28710493223E+02 -0.23839312193E+02 -0.16141988331E+02  0.40659181180E+02  0.00000000000E+00 0. -1.
         11    1    3    3    0    0  0.20584297959E+02  0.68410479575E+01  0.11112219933E+02  0.24372006313E+02  0.51100000000E-03 0. -1.
        -11    1    3    3    0    0 -0.37288568134E+01  0.12405727851E+02  0.26610315068E+01  0.13224505495E+02  0.51100000000E-03 0.  1.
        -12    1    3    3    0    0  0.11855052077E+02  0.45925363844E+01  0.23687368919E+01  0.12932307012E+02  0.00000000000E+00 0.  1.
</event>
<event>
 7    1  0.3041451E-011  0.5052886E+02  0.7816164E-02  0.1300439E+00
        -11   -1    0    0    0    0  0.00000000000E+00  0.00000000000E+00  0.45593999997E+02  0.45594000000E+02  0.51100000000E-03 0.  1.
         11   -1    0    0    0    0 -0.00000000000E+00 -0.00000000000E+00 -0.45593999997E+02  0.45594000000E+02  0.51100000000E-03 0. -1.
    9900012    2    1    2    0    0 -0.38079051464E+02 -0.79421946881E+01  0.11835241208E+02  0.50528861405E+02  0.30000004726E+02 0.  0.
         12    1    1    2    0    0  0.38079051464E+02  0.79421946881E+01 -0.11835241208E+02  0.40659138595E+02  0.00000000000E+00 0. -1.
         11    1    3    3    0    0  0.77414239051E-01  0.19723355806E+00  0.53720652001E+01  0.53762420720E+01  0.51100000000E-03 0. -1.
        -11    1    3    3    0    0 -0.23846773985E+02 -0.14655293525E+02 -0.40890100864E+00  0.27993096615E+02  0.51100000000E-03 0.  1.
        -12    1    3    3    0    0 -0.14309691718E+02  0.65158652786E+01  0.68720770161E+01  0.17159522718E+02  0.00000000000E+00 0.  1.
</event>
<event>
 7    1  0.3041451E-011  0.5052885E+02  0.7816164E-02  0.1300439E+00
        -11   -1    0    0    0    0  0.00000000000E+00  0.00000000000E+00  0.45593999997E+02  0.45594000000E+02  0.51100000000E-03 0.  1.
         11   -1    0    0    0    0 -0.00000000000E+00 -0.00000000000E+00 -0.45593999997E+02  0.45594000000E+02  0.51100000000E-03 0. -1.
    9900012    2    1    2    0    0 -0.38576729857E+01  0.24668677853E+02  0.32089576529E+02  0.50528853062E+02  0.29999979369E+02 0.  0.
         12    1    1    2    0    0  0.38576729857E+01 -0.24668677853E+02 -0.32089576529E+02  0.40659146938E+02  0.00000000000E+00 0. -1.
         11    1    3    3    0    0  0.49926183407E+01  0.21033160448E+02  0.12252766407E+02  0.24848548473E+02  0.51100000000E-03 0. -1.
        -11    1    3    3    0    0 -0.72313312966E+01 -0.22461574672E+00  0.22122625563E+01  0.75654947250E+01  0.51100000000E-03 0.  1.
         12    1    3    3    0    0 -0.16189600298E+01  0.38601331518E+01  0.17624547566E+02  0.18114809865E+02  0.00000000000E+00 0. -1.
</event>
<event>
 7    1  0.3041451E-011  0.5052886E+02  0.7816164E-02  0.1300439E+00
        -11   -1    0    0    0    0  0.00000000000E+00  0.00000000000E+00  0.45593999997E+02  0.45594000000E+02  0.51100000000E-03 0. -1.
         11   -1    0    0    0    0 -0.00000000000E+00 -0.00000000000E+00 -0.45593999997E+02  0.45594000000E+02  0.51100000000E-03 0.  1.
    9900012    2    1    2    0    0  0.22474818602E+02  0.26169610027E+02 -0.21522076418E+02  0.50528859164E+02  0.29999997915E+02 0.  0.
         12    1    1    2    0    0 -0.22474818602E+02 -0.26169610027E+02  0.21522076418E+02  0.40659140836E+02  0.00000000000E+00 0. -1.
         11    1    3    3    0    0 -0.35944814812E+01 -0.30335745896E+01  0.90638044084E+00  0.47900310723E+01  0.51100000000E-03 0. -1.
        -11    1    3    3    0    0  0.81805299276E+01  0.12072075696E+02 -0.11914348722E+02  0.18831032559E+02  0.51100000000E-03 0.  1.
         12    1    3    3    0    0  0.17888770155E+02  0.17131108920E+02 -0.10514108138E+02  0.26907795533E+02  0.00000000000E+00 0. -1.
</event>
<event>
 7    1  0.3041451E-011  0.5052886E+02  0.7816164E-02  0.1300439E+00
        -11   -1    0    0    0    0  0.00000000000E+00  0.00000000000E+00  0.45593999997E+02  0.45594000000E+02  0.51100000000E-03 0. -1.
         11   -1    0    0    0    0 -0.00000000000E+00 -0.00000000000E+00 -0.45593999997E+02  0.45594000000E+02  0.51100000000E-03 0.  1.
    9900012    2    1    2    0    0  0.32939664792E+02 -0.23594695011E+02 -0.33815090398E+01  0.50528858928E+02  0.29999997198E+02 0.  0.
         12    1    1    2    0    0 -0.32939664792E+02  0.23594695011E+02  0.33815090398E+01  0.40659141072E+02  0.00000000000E+00 0. -1.
         11    1    3    3    0    0  0.10855364384E+01 -0.14053820101E+02  0.40625102205E+01  0.14669432107E+02  0.51100000000E-03 0. -1.
        -11    1    3    3    0    0  0.19980085491E+02 -0.91097318222E+01 -0.23199957129E+00  0.21960074092E+02  0.51100000000E-03 0.  1.
        -12    1    3    3    0    0  0.11874042863E+02 -0.43114308804E+00 -0.72120196891E+01  0.13899352729E+02  0.00000000000E+00 0.  1.
</event>
<event>
 7    1  0.3041451E-011  0.5052886E+02  0.7816164E-02  0.1300439E+00
        -11   -1    0    0    0    0  0.00000000000E+00  0.00000000000E+00  0.45593999997E+02  0.45594000000E+02  0.51100000000E-03 0. -1.
         11   -1    0    0    0    0 -0.00000000000E+00 -0.00000000000E+00 -0.45593999997E+02  0.45594000000E+02  0.51100000000E-03 0.  1.
    9900012    2    1    2    0    0  0.72101408150E+01 -0.21485752002E+01 -0.39957017157E+02  0.50528859256E+02  0.29999998195E+02 0.  0.
         12    1    1    2    0    0 -0.72101408150E+01  0.21485752002E+01  0.39957017157E+02  0.40659140744E+02  0.00000000000E+00 0. -1.
         11    1    3    3    0    0 -0.47472080282E+01  0.53636006036E+01 -0.56584938471E+01  0.91281295114E+01  0.51100000000E-03 0. -1.
        -11    1    3    3    0    0  0.13084500445E+02 -0.70834160898E+01 -0.36206002446E+02  0.39144010382E+02  0.51100000000E-03 0.  1.
        -12    1    3    3    0    0 -0.11271516019E+01 -0.42875971403E+00  0.19074791364E+01  0.22567193626E+01  0.00000000000E+00 0.  1.
</event>
<event>
 7    1  0.3041451E-011  0.5052886E+02  0.7816164E-02  0.1300439E+00
        -11   -1    0    0    0    0  0.00000000000E+00  0.00000000000E+00  0.45593999997E+02  0.45594000000E+02  0.51100000000E-03 0. -1.
         11   -1    0    0    0    0 -0.00000000000E+00 -0.00000000000E+00 -0.45593999997E+02  0.45594000000E+02  0.51100000000E-03 0.  1.
    9900012    2    1    2    0    0  0.12509226010E+02  0.36231419372E+02 -0.13563517608E+02  0.50528862098E+02  0.30000006833E+02 0.  0.
         12    1    1    2    0    0 -0.12509226010E+02 -0.36231419372E+02  0.13563517608E+02  0.40659137902E+02  0.00000000000E+00 0. -1.
         11    1    3    3    0    0  0.15239862757E+02  0.11209778955E+02  0.79932653465E+00  0.18935455744E+02  0.51100000000E-03 0. -1.
        -11    1    3    3    0    0 -0.59800107077E+01  0.99250282936E+01 -0.10588273839E+02  0.15696440929E+02  0.51100000000E-03 0.  1.
        -12    1    3    3    0    0  0.32493739602E+01  0.15096612123E+02 -0.37745703038E+01  0.15896965424E+02  0.00000000000E+00 0.  1.
</event>
<event>
 7    1  0.3041451E-011  0.5052886E+02  0.7816164E-02  0.1300439E+00
        -11   -1    0    0    0    0  0.00000000000E+00  0.00000000000E+00  0.45593999997E+02  0.45594000000E+02  0.51100000000E-03 0.  1.
         11   -1    0    0    0    0 -0.00000000000E+00 -0.00000000000E+00 -0.45593999997E+02  0.45594000000E+02  0.51100000000E-03 0. -1.
    9900012    2    1    2    0    0 -0.37291574891E+02  0.13279212085E+02 -0.92826190776E+01  0.50528855292E+02  0.29999986144E+02 0.  0.
         12    1    1    2    0    0  0.37291574891E+02 -0.13279212085E+02  0.92826190776E+01  0.40659144708E+02  0.00000000000E+00 0. -1.
         11    1    3    3    0    0 -0.10686188626E+02  0.78321878076E+01 -0.13281063186E+02  0.18759649059E+02  0.51100000000E-03 0. -1.
        -11    1    3    3    0    0 -0.27297083354E+02  0.16489911380E+01  0.49546132806E+01  0.27792051461E+02  0.51100000000E-03 0.  1.
         12    1    3    3    0    0  0.69169708798E+00  0.37980331396E+01 -0.95616917212E+00  0.39771547715E+01  0.00000000000E+00 0. -1.
</event>
<event>
 7    1  0.3041451E-011  0.5052886E+02  0.7816164E-02  0.1300439E+00
        -11   -1    0    0    0    0  0.00000000000E+00  0.00000000000E+00  0.45593999997E+02  0.45594000000E+02  0.51100000000E-03 0.  1.
         11   -1    0    0    0    0 -0.00000000000E+00 -0.00000000000E+00 -0.45593999997E+02  0.45594000000E+02  0.51100000000E-03 0. -1.
    9900012    2    1    2    0    0  0.10264746512E+02 -0.33655819674E+02  0.20373676771E+02  0.50528856821E+02  0.29999990793E+02 0.  0.
         12    1    1    2    0    0 -0.10264746512E+02  0.33655819674E+02 -0.20373676771E+02  0.40659143179E+02  0.00000000000E+00 0. -1.
         11    1    3    3    0    0  0.21478106270E+01 -0.29637439264E+02  0.22605732505E+02  0.37336443844E+02  0.51100000000E-03 0. -1.
        -11    1    3    3    0    0  0.31125769651E+01  0.29032435678E+01  0.34641012845E+00  0.42704752447E+01  0.51100000000E-03 0.  1.
         12    1    3    3    0    0  0.50043589197E+01 -0.69216239779E+01 -0.25784658617E+01  0.89219377317E+01  0.00000000000E+00 0. -1.
</event>
<event>
 7    1  0.3041451E-011  0.5052886E+02  0.7816164E-02  0.1300439E+00
        -11   -1    0    0    0    0  0.00000000000E+00  0.00000000000E+00  0.45593999997E+02  0.45594000000E+02  0.51100000000E-03 0. -1.
         11   -1    0    0    0    0 -0.00000000000E+00 -0.00000000000E+00 -0.45593999997E+02  0.45594000000E+02  0.51100000000E-03 0.  1.
    9900012    2    1    2    0    0  0.30257746268E+02 -0.25704178076E+02 -0.87709543484E+01  0.50528860561E+02  0.30000002160E+02 0.  0.
         12    1    1    2    0    0 -0.30257746268E+02  0.25704178076E+02  0.87709543484E+01  0.40659139439E+02  0.00000000000E+00 0. -1.
         11    1    3    3    0    0  0.18847465384E+01  0.33398260158E+00  0.51803073255E+01  0.55226260184E+01  0.51100000000E-03 0. -1.
        -11    1    3    3    0    0  0.28735206647E+02 -0.27913220925E+02 -0.15060059034E+02  0.42797960019E+02  0.51100000000E-03 0.  1.
        -12    1    3    3    0    0 -0.36220691730E+00  0.18750602474E+01  0.11087973600E+01  0.22082745228E+01  0.00000000000E+00 0.  1.
</event>
<event>
 7    1  0.3041451E-011  0.5052886E+02  0.7816164E-02  0.1300439E+00
        -11   -1    0    0    0    0  0.00000000000E+00  0.00000000000E+00  0.45593999997E+02  0.45594000000E+02  0.51100000000E-03 0. -1.
         11   -1    0    0    0    0 -0.00000000000E+00 -0.00000000000E+00 -0.45593999997E+02  0.45594000000E+02  0.51100000000E-03 0.  1.
    9900012    2    1    2    0    0  0.51368125814E+01  0.29658009256E+02 -0.27334617060E+02  0.50528860236E+02  0.30000001173E+02 0.  0.
         12    1    1    2    0    0 -0.51368125814E+01 -0.29658009256E+02  0.27334617060E+02  0.40659139764E+02  0.00000000000E+00 0. -1.
         11    1    3    3    0    0  0.10346939823E+02  0.17664771787E+02 -0.26160540118E+02  0.33218627086E+02  0.51100000000E-03 0. -1.
        -11    1    3    3    0    0 -0.52208776757E+01  0.23800162520E+00 -0.18281316991E+01  0.55368108373E+01  0.51100000000E-03 0.  1.
         12    1    3    3    0    0  0.10750434156E-01  0.11755235844E+02  0.65405475691E+00  0.11773422312E+02  0.00000000000E+00 0. -1.
</event>
<event>
 7    1  0.3041451E-011  0.5052886E+02  0.7816164E-02  0.1300439E+00
        -11   -1    0    0    0    0  0.00000000000E+00  0.00000000000E+00  0.45593999997E+02  0.45594000000E+02  0.51100000000E-03 0. -1.
         11   -1    0    0    0    0 -0.00000000000E+00 -0.00000000000E+00 -0.45593999997E+02  0.45594000000E+02  0.51100000000E-03 0.  1.
    9900012    2    1    2    0    0  0.32535706517E+02 -0.62048718240E+01 -0.23581621430E+02  0.50528862009E+02  0.30000006562E+02 0.  0.
         12    1    1    2    0    0 -0.32535706517E+02  0.62048718240E+01  0.23581621430E+02  0.40659137991E+02  0.00000000000E+00 0. -1.
         11    1    3    3    0    0  0.91045957215E+01 -0.10604020497E+02  0.31981075760E+01  0.14337601134E+02  0.51100000000E-03 0. -1.
        -11    1    3    3    0    0  0.19813469652E+02  0.53881816726E+01 -0.23525030094E+02  0.31225520373E+02  0.51100000000E-03 0.  1.
         12    1    3    3    0    0  0.36176411439E+01 -0.98903299946E+00 -0.32546989120E+01  0.49657405015E+01  0.00000000000E+00 0. -1.
</event>
<event>
 7    1  0.3041451E-011  0.5052887E+02  0.7816164E-02  0.1300439E+00
        -11   -1    0    0    0    0  0.00000000000E+00  0.00000000000E+00  0.45593999997E+02  0.45594000000E+02  0.51100000000E-03 0. -1.
         11   -1    0    0    0    0 -0.00000000000E+00 -0.00000000000E+00 -0.45593999997E+02  0.45594000000E+02  0.51100000000E-03 0.  1.
    9900012    2    1    2    0    0 -0.10051207009E+02  0.10653697771E+02 -0.37929368202E+02  0.50528868052E+02  0.30000024931E+02 0.  0.
         12    1    1    2    0    0  0.10051207009E+02 -0.10653697771E+02  0.37929368202E+02  0.40659131948E+02  0.00000000000E+00 0. -1.
         11    1    3    3    0    0  0.30390127569E+01 -0.59732223706E+01 -0.30578772789E+01  0.73665186988E+01  0.51100000000E-03 0. -1.
        -11    1    3    3    0    0 -0.45286243512E+01  0.12140711747E+02 -0.29223373912E+02  0.31967341198E+02  0.51100000000E-03 0.  1.
        -12    1    3    3    0    0 -0.85615954150E+01  0.44862083948E+01 -0.56481170113E+01  0.11195008155E+02  0.00000000000E+00 0.  1.
</event>
<event>
 7    1  0.3041451E-011  0.5052886E+02  0.7816164E-02  0.1300439E+00
        -11   -1    0    0    0    0  0.00000000000E+00  0.00000000000E+00  0.45593999997E+02  0.45594000000E+02  0.51100000000E-03 0.  1.
         11   -1    0    0    0    0 -0.00000000000E+00 -0.00000000000E+00 -0.45593999997E+02  0.45594000000E+02  0.51100000000E-03 0. -1.
    9900012    2    1    2    0    0  0.44018575481E+01  0.32585054244E+02  0.23916592984E+02  0.50528861668E+02  0.30000005525E+02 0.  0.
         12    1    1    2    0    0 -0.44018575481E+01 -0.32585054244E+02 -0.23916592984E+02  0.40659138332E+02  0.00000000000E+00 0. -1.
         11    1    3    3    0    0  0.21884616707E+01  0.18615057583E+02  0.85196241897E+01  0.20588679654E+02  0.51100000000E-03 0. -1.
        -11    1    3    3    0    0 -0.83286467044E+01  0.10568535426E+01  0.83536739589E+01  0.11843443934E+02  0.51100000000E-03 0.  1.
        -12    1    3    3    0    0  0.10542042582E+02  0.12913143118E+02  0.70432948352E+01  0.18096738080E+02  0.00000000000E+00 0.  1.
</event>
<event>
 7    1  0.3041451E-011  0.5052886E+02  0.7816164E-02  0.1300439E+00
        -11   -1    0    0    0    0  0.00000000000E+00  0.00000000000E+00  0.45593999997E+02  0.45594000000E+02  0.51100000000E-03 0.  1.
         11   -1    0    0    0    0 -0.00000000000E+00 -0.00000000000E+00 -0.45593999997E+02  0.45594000000E+02  0.51100000000E-03 0. -1.
    9900012    2    1    2    0    0 -0.10008220377E+02 -0.38584817581E+01  0.39218791122E+02  0.50528856703E+02  0.29999990433E+02 0.  0.
         12    1    1    2    0    0  0.10008220377E+02  0.38584817581E+01 -0.39218791122E+02  0.40659143297E+02  0.00000000000E+00 0. -1.
         11    1    3    3    0    0 -0.52190949479E+01 -0.74218259644E+01  0.83987262278E+01  0.12363699092E+02  0.51100000000E-03 0. -1.
        -11    1    3    3    0    0 -0.49358213458E+01  0.87464472218E+01  0.39378894283E+01  0.10787476293E+02  0.51100000000E-03 0.  1.
        -12    1    3    3    0    0  0.14669591622E+00 -0.51831030155E+01  0.26882175466E+02  0.27377681318E+02  0.00000000000E+00 0.  1.
</event>
<event>
 7    1  0.3041451E-011  0.5052886E+02  0.7816164E-02  0.1300439E+00
        -11   -1    0    0    0    0  0.00000000000E+00  0.00000000000E+00  0.45593999997E+02  0.45594000000E+02  0.51100000000E-03 0.  1.
         11   -1    0    0    0    0 -0.00000000000E+00 -0.00000000000E+00 -0.45593999997E+02  0.45594000000E+02  0.51100000000E-03 0. -1.
    9900012    2    1    2    0    0  0.85265061698E+01  0.36673181982E+02  0.15347379660E+02  0.50528860233E+02  0.30000001164E+02 0.  0.
         12    1    1    2    0    0 -0.85265061698E+01 -0.36673181982E+02 -0.15347379660E+02  0.40659139767E+02  0.00000000000E+00 0. -1.
         11    1    3    3    0    0  0.41227942640E+01  0.13634649098E+02 -0.82451614989E+01  0.16458547231E+02  0.51100000000E-03 0. -1.
        -11    1    3    3    0    0 -0.11502344851E+01  0.65414061084E+01  0.99086201094E+01  0.11928695904E+02  0.51100000000E-03 0.  1.
         12    1    3    3    0    0  0.55539463909E+01  0.16497126776E+02  0.13683921050E+02  0.22141617097E+02  0.00000000000E+00 0. -1.
</event>
<event>
 7    1  0.3041451E-011  0.5052886E+02  0.7816164E-02  0.1300439E+00
        -11   -1    0    0    0    0  0.00000000000E+00  0.00000000000E+00  0.45593999997E+02  0.45594000000E+02  0.51100000000E-03 0.  1.
         11   -1    0    0    0    0 -0.00000000000E+00 -0.00000000000E+00 -0.45593999997E+02  0.45594000000E+02  0.51100000000E-03 0. -1.
    9900012    2    1    2    0    0 -0.13226366825E+02  0.13683468333E+02  0.35930367510E+02  0.50528863334E+02  0.30000010589E+02 0.  0.
         12    1    1    2    0    0  0.13226366825E+02 -0.13683468333E+02 -0.35930367510E+02  0.40659136666E+02  0.00000000000E+00 0. -1.
         11    1    3    3    0    0  0.39401606294E+01 -0.16626765595E+01  0.18259891090E+02  0.18754012424E+02  0.51100000000E-03 0. -1.
        -11    1    3    3    0    0 -0.17464785875E+01  0.87661120090E+01  0.28049112957E+01  0.93681606972E+01  0.51100000000E-03 0.  1.
         12    1    3    3    0    0 -0.15420048867E+02  0.65800328833E+01  0.14865565125E+02  0.22406690213E+02  0.00000000000E+00 0. -1.
</event>
<event>
 7    1  0.3041451E-011  0.5052886E+02  0.7816164E-02  0.1300439E+00
        -11   -1    0    0    0    0  0.00000000000E+00  0.00000000000E+00  0.45593999997E+02  0.45594000000E+02  0.51100000000E-03 0.  1.
         11   -1    0    0    0    0 -0.00000000000E+00 -0.00000000000E+00 -0.45593999997E+02  0.45594000000E+02  0.51100000000E-03 0. -1.
    9900012    2    1    2    0    0  0.24994617691E+02  0.29270912732E+01  0.31935359067E+02  0.50528856680E+02  0.29999990363E+02 0.  0.
         12    1    1    2    0    0 -0.24994617691E+02 -0.29270912732E+01 -0.31935359067E+02  0.40659143320E+02  0.00000000000E+00 0. -1.
         11    1    3    3    0    0  0.22352506372E+02 -0.57646058544E+01  0.93227084462E+01  0.24895343235E+02  0.51100000000E-03 0. -1.
        -11    1    3    3    0    0  0.31684209867E+01  0.68348384164E+01  0.83713706253E+01  0.11262049287E+02  0.51100000000E-03 0.  1.
         12    1    3    3    0    0 -0.52630966758E+00  0.18568587113E+01  0.14241279995E+02  0.14371464158E+02  0.00000000000E+00 0. -1.
</event>
<event>
 7    1  0.3041451E-011  0.5052887E+02  0.7816164E-02  0.1300439E+00
        -11   -1    0    0    0    0  0.00000000000E+00  0.00000000000E+00  0.45593999997E+02  0.45594000000E+02  0.51100000000E-03 0.  1.
         11   -1    0    0    0    0 -0.00000000000E+00 -0.00000000000E+00 -0.45593999997E+02  0.45594000000E+02  0.51100000000E-03 0. -1.
    9900012    2    1    2    0    0  0.25126824585E+02  0.25407137111E+02  0.19398061639E+02  0.50528871563E+02  0.30000035604E+02 0.  0.
         12    1    1    2    0    0 -0.25126824585E+02 -0.25407137111E+02 -0.19398061639E+02  0.40659128437E+02  0.00000000000E+00 0. -1.
         11    1    3    3    0    0  0.28634784262E+01 -0.51082800179E+01 -0.12866502405E+01  0.59957904018E+01  0.51100000000E-03 0. -1.
        -11    1    3    3    0    0  0.10301664896E+02  0.70326048886E+01  0.10412206181E+02  0.16247949685E+02  0.51100000000E-03 0.  1.
         12    1    3    3    0    0  0.11961681263E+02  0.23482812240E+02  0.10272505699E+02  0.28285131477E+02  0.00000000000E+00 0. -1.
</event>
<event>
 7    1  0.3041451E-011  0.5052886E+02  0.7816164E-02  0.1300439E+00
        -11   -1    0    0    0    0  0.00000000000E+00  0.00000000000E+00  0.45593999997E+02  0.45594000000E+02  0.51100000000E-03 0.  1.
         11   -1    0    0    0    0 -0.00000000000E+00 -0.00000000000E+00 -0.45593999997E+02  0.45594000000E+02  0.51100000000E-03 0. -1.
    9900012    2    1    2    0    0 -0.27343903172E+02 -0.63588540329E+01  0.29411588088E+02  0.50528861063E+02  0.30000003686E+02 0.  0.
         12    1    1    2    0    0  0.27343903172E+02  0.63588540329E+01 -0.29411588088E+02  0.40659138937E+02  0.00000000000E+00 0. -1.
         11    1    3    3    0    0 -0.17427826311E+02  0.43674362906E+00  0.10673006483E+02  0.20440962369E+02  0.51100000000E-03 0. -1.
        -11    1    3    3    0    0 -0.31484175211E+01 -0.93253304230E+01 -0.17214181427E+00  0.98439805694E+01  0.51100000000E-03 0.  1.
        -12    1    3    3    0    0 -0.67676593398E+01  0.25297327611E+01  0.18910723420E+02  0.20243918125E+02  0.00000000000E+00 0.  1.
</event>
<event>
 7    1  0.3041451E-011  0.5052886E+02  0.7816164E-02  0.1300439E+00
        -11   -1    0    0    0    0  0.00000000000E+00  0.00000000000E+00  0.45593999997E+02  0.45594000000E+02  0.51100000000E-03 0.  1.
         11   -1    0    0    0    0 -0.00000000000E+00 -0.00000000000E+00 -0.45593999997E+02  0.45594000000E+02  0.51100000000E-03 0. -1.
    9900012    2    1    2    0    0  0.39976029438E+02 -0.73899230432E+01 -0.68704209247E+00  0.50528856882E+02  0.29999990980E+02 0.  0.
         12    1    1    2    0    0 -0.39976029438E+02  0.73899230432E+01  0.68704209247E+00  0.40659143118E+02  0.00000000000E+00 0. -1.
         11    1    3    3    0    0  0.74196213924E+01 -0.53973434209E+01 -0.91770099845E+01  0.12976887536E+02  0.51100000000E-03 0. -1.
        -11    1    3    3    0    0  0.32085089447E+02  0.92146163715E+00  0.42396108971E+01  0.32377096182E+02  0.51100000000E-03 0.  1.
        -12    1    3    3    0    0  0.47131859898E+00 -0.29140412595E+01  0.42503569950E+01  0.51748731645E+01  0.00000000000E+00 0.  1.
</event>
<event>
 7    1  0.3041451E-011  0.5052886E+02  0.7816164E-02  0.1300439E+00
        -11   -1    0    0    0    0  0.00000000000E+00  0.00000000000E+00  0.45593999997E+02  0.45594000000E+02  0.51100000000E-03 0.  1.
         11   -1    0    0    0    0 -0.00000000000E+00 -0.00000000000E+00 -0.45593999997E+02  0.45594000000E+02  0.51100000000E-03 0. -1.
    9900012    2    1    2    0    0 -0.19644688670E+02 -0.27216711959E+02  0.22945633881E+02  0.50528864286E+02  0.30000013485E+02 0.  0.
         12    1    1    2    0    0  0.19644688670E+02  0.27216711959E+02 -0.22945633881E+02  0.40659135714E+02  0.00000000000E+00 0. -1.
         11    1    3    3    0    0 -0.13841616172E+02 -0.14387209746E+02 -0.24022747136E+01  0.20108532184E+02  0.51100000000E-03 0. -1.
        -11    1    3    3    0    0 -0.62369937111E+00 -0.10955770578E+02  0.13842042599E+02  0.17664089375E+02  0.51100000000E-03 0.  1.
         12    1    3    3    0    0 -0.51793731264E+01 -0.18737316346E+01  0.11505865995E+02  0.12756242728E+02  0.00000000000E+00 0. -1.
</event>
<event>
 7    1  0.3041451E-011  0.5052886E+02  0.7816164E-02  0.1300439E+00
        -11   -1    0    0    0    0  0.00000000000E+00  0.00000000000E+00  0.45593999997E+02  0.45594000000E+02  0.51100000000E-03 0. -1.
         11   -1    0    0    0    0 -0.00000000000E+00 -0.00000000000E+00 -0.45593999997E+02  0.45594000000E+02  0.51100000000E-03 0.  1.
    9900012    2    1    2    0    0  0.88562061830E+01  0.37939801963E+02 -0.11632060093E+02  0.50528858556E+02  0.29999996068E+02 0.  0.
         12    1    1    2    0    0 -0.88562061830E+01 -0.37939801963E+02  0.11632060093E+02  0.40659141444E+02  0.00000000000E+00 0. -1.
         11    1    3    3    0    0 -0.95063022263E+01  0.11974657720E+02 -0.34541395374E+01  0.15674606526E+02  0.51100000000E-03 0.  1.
        -11    1    3    3    0    0  0.10764604019E+02  0.12486790226E+02  0.15801225102E+01  0.16561805978E+02  0.51100000000E-03 0. -1.
        -12    1    3    3    0    0  0.75979043899E+01  0.13478354016E+02 -0.97580430654E+01  0.18292446052E+02  0.00000000000E+00 0.  1.
</event>
<event>
 7    1  0.3041451E-011  0.5052887E+02  0.7816164E-02  0.1300439E+00
        -11   -1    0    0    0    0  0.00000000000E+00  0.00000000000E+00  0.45593999997E+02  0.45594000000E+02  0.51100000000E-03 0.  1.
         11   -1    0    0    0    0 -0.00000000000E+00 -0.00000000000E+00 -0.45593999997E+02  0.45594000000E+02  0.51100000000E-03 0. -1.
    9900012    2    1    2    0    0 -0.22182398872E+02  0.20616547720E+01  0.34012586057E+02  0.50528865105E+02  0.30000015973E+02 0.  0.
         12    1    1    2    0    0  0.22182398872E+02 -0.20616547720E+01 -0.34012586057E+02  0.40659134895E+02  0.00000000000E+00 0. -1.
         11    1    3    3    0    0  0.10823784271E+01 -0.77919220075E+01  0.54859280813E+00  0.78858446574E+01  0.51100000000E-03 0. -1.
        -11    1    3    3    0    0 -0.69227879247E+01 -0.78472796074E-01  0.12333905354E+02  0.14144128540E+02  0.51100000000E-03 0.  1.
         12    1    3    3    0    0 -0.16341989374E+02  0.99320495756E+01  0.21130087896E+02  0.28498891907E+02  0.00000000000E+00 0. -1.
</event>
<event>
 7    1  0.3041451E-011  0.5052883E+02  0.7816164E-02  0.1300439E+00
        -11   -1    0    0    0    0  0.00000000000E+00  0.00000000000E+00  0.45593999997E+02  0.45594000000E+02  0.51100000000E-03 0. -1.
         11   -1    0    0    0    0 -0.00000000000E+00 -0.00000000000E+00 -0.45593999997E+02  0.45594000000E+02  0.51100000000E-03 0.  1.
    9900012    2    1    2    0    0 -0.38496142444E+02  0.10620046412E+02  0.76439151320E+01  0.50528833661E+02  0.29999920395E+02 0.  0.
         12    1    1    2    0    0  0.38496142444E+02 -0.10620046412E+02 -0.76439151320E+01  0.40659166339E+02  0.00000000000E+00 0. -1.
         11    1    3    3    0    0 -0.25663575372E+01  0.29678201070E+00  0.41714854075E+01  0.49066853717E+01  0.51100000000E-03 0. -1.
        -11    1    3    3    0    0 -0.38013139933E+02  0.14478487765E+02  0.42894961345E+01  0.40902630635E+02  0.51100000000E-03 0.  1.
        -12    1    3    3    0    0  0.20833550262E+01 -0.41552233639E+01 -0.81706641005E+00  0.47195176541E+01  0.00000000000E+00 0.  1.
</event>
<event>
 7    1  0.3041451E-011  0.5052886E+02  0.7816164E-02  0.1300439E+00
        -11   -1    0    0    0    0  0.00000000000E+00  0.00000000000E+00  0.45593999997E+02  0.45594000000E+02  0.51100000000E-03 0. -1.
         11   -1    0    0    0    0 -0.00000000000E+00 -0.00000000000E+00 -0.45593999997E+02  0.45594000000E+02  0.51100000000E-03 0.  1.
    9900012    2    1    2    0    0  0.62469817648E+01 -0.40175461046E+02  0.27122153251E+00  0.50528855732E+02  0.29999987484E+02 0.  0.
         12    1    1    2    0    0 -0.62469817648E+01  0.40175461046E+02 -0.27122153251E+00  0.40659144268E+02  0.00000000000E+00 0. -1.
         11    1    3    3    0    0 -0.22909137660E+01  0.28519040880E+01  0.29887439014E+01  0.47237943625E+01  0.51100000000E-03 0. -1.
        -11    1    3    3    0    0  0.94652475207E+01 -0.35180468798E+02 -0.65622329746E+01  0.37017822699E+02  0.51100000000E-03 0.  1.
        -12    1    3    3    0    0 -0.92735198985E+00 -0.78468963363E+01  0.38447106057E+01  0.87872386714E+01  0.00000000000E+00 0.  1.
</event>
<event>
 7    1  0.3041451E-011  0.5052885E+02  0.7816164E-02  0.1300439E+00
        -11   -1    0    0    0    0  0.00000000000E+00  0.00000000000E+00  0.45593999997E+02  0.45594000000E+02  0.51100000000E-03 0.  1.
         11   -1    0    0    0    0 -0.00000000000E+00 -0.00000000000E+00 -0.45593999997E+02  0.45594000000E+02  0.51100000000E-03 0. -1.
    9900012    2    1    2    0    0 -0.16150086650E+02  0.33973486087E+02  0.15431894097E+02  0.50528850831E+02  0.29999972586E+02 0.  0.
         12    1    1    2    0    0  0.16150086650E+02 -0.33973486087E+02 -0.15431894097E+02  0.40659149169E+02  0.00000000000E+00 0. -1.
         11    1    3    3    0    0 -0.68967576604E+01  0.61007098418E+01  0.38022591142E+01  0.99619828063E+01  0.51100000000E-03 0. -1.
        -11    1    3    3    0    0 -0.49905142731E+01  0.13542370020E+02 -0.75181946396E+01  0.16273422177E+02  0.51100000000E-03 0.  1.
        -12    1    3    3    0    0 -0.42628147167E+01  0.14330406226E+02  0.19147829622E+02  0.24293445847E+02  0.00000000000E+00 0.  1.
</event>
<event>
 7    1  0.3041451E-011  0.5052886E+02  0.7816164E-02  0.1300439E+00
        -11   -1    0    0    0    0  0.00000000000E+00  0.00000000000E+00  0.45593999997E+02  0.45594000000E+02  0.51100000000E-03 0.  1.
         11   -1    0    0    0    0 -0.00000000000E+00 -0.00000000000E+00 -0.45593999997E+02  0.45594000000E+02  0.51100000000E-03 0. -1.
    9900012    2    1    2    0    0 -0.14521269276E+02  0.92789270531E+01  0.36826619228E+02  0.50528860407E+02  0.30000001693E+02 0.  0.
         12    1    1    2    0    0  0.14521269276E+02 -0.92789270531E+01 -0.36826619228E+02  0.40659139593E+02  0.00000000000E+00 0. -1.
         11    1    3    3    0    0 -0.71938827203E+01  0.24682557985E+01  0.24874453779E+02  0.26011203093E+02  0.51100000000E-03 0. -1.
        -11    1    3    3    0    0 -0.24016281331E+01  0.12377416991E+02  0.31480562739E+01  0.12995327146E+02  0.51100000000E-03 0.  1.
         12    1    3    3    0    0 -0.49257584232E+01 -0.55667457364E+01  0.88041091754E+01  0.11522330168E+02  0.00000000000E+00 0. -1.
</event>
<event>
 7    1  0.3041451E-011  0.5052886E+02  0.7816164E-02  0.1300439E+00
        -11   -1    0    0    0    0  0.00000000000E+00  0.00000000000E+00  0.45593999997E+02  0.45594000000E+02  0.51100000000E-03 0.  1.
         11   -1    0    0    0    0 -0.00000000000E+00 -0.00000000000E+00 -0.45593999997E+02  0.45594000000E+02  0.51100000000E-03 0. -1.
    9900012    2    1    2    0    0  0.75129914093E+01 -0.32649980026E+02  0.23036919628E+02  0.50528857098E+02  0.29999991634E+02 0.  0.
         12    1    1    2    0    0 -0.75129914093E+01  0.32649980026E+02 -0.23036919628E+02  0.40659142902E+02  0.00000000000E+00 0. -1.
         11    1    3    3    0    0 -0.20877103511E+01  0.57597501981E+00  0.95916413286E+01  0.98331004964E+01  0.51100000000E-03 0. -1.
        -11    1    3    3    0    0  0.97004255682E+01 -0.25151262195E+02  0.17003075236E+02  0.31871441981E+02  0.51100000000E-03 0.  1.
        -12    1    3    3    0    0 -0.99723807806E-01 -0.80746928507E+01 -0.35577969369E+01  0.88243146201E+01  0.00000000000E+00 0.  1.
</event>
<event>
 7    1  0.3041451E-011  0.5052887E+02  0.7816164E-02  0.1300439E+00
        -11   -1    0    0    0    0  0.00000000000E+00  0.00000000000E+00  0.45593999997E+02  0.45594000000E+02  0.51100000000E-03 0.  1.
         11   -1    0    0    0    0 -0.00000000000E+00 -0.00000000000E+00 -0.45593999997E+02  0.45594000000E+02  0.51100000000E-03 0. -1.
    9900012    2    1    2    0    0 -0.24213973311E+00  0.60178296613E+01  0.40210597643E+02  0.50528867345E+02  0.30000022781E+02 0.  0.
         12    1    1    2    0    0  0.24213973311E+00 -0.60178296613E+01 -0.40210597643E+02  0.40659132655E+02  0.00000000000E+00 0. -1.
         11    1    3    3    0    0  0.14556302784E+01  0.93543985107E+01  0.11308844256E+00  0.94676512537E+01  0.51100000000E-03 0. -1.
        -11    1    3    3    0    0 -0.26661934062E+01 -0.53086354661E+01  0.20573850703E+02  0.21414330034E+02  0.51100000000E-03 0.  1.
         12    1    3    3    0    0  0.96842339464E+00  0.19720666167E+01  0.19523658497E+02  0.19646886057E+02  0.00000000000E+00 0. -1.
</event>
<event>
 7    1  0.3041451E-011  0.5052887E+02  0.7816164E-02  0.1300439E+00
        -11   -1    0    0    0    0  0.00000000000E+00  0.00000000000E+00  0.45593999997E+02  0.45594000000E+02  0.51100000000E-03 0.  1.
         11   -1    0    0    0    0 -0.00000000000E+00 -0.00000000000E+00 -0.45593999997E+02  0.45594000000E+02  0.51100000000E-03 0. -1.
    9900012    2    1    2    0    0 -0.22788744932E+02 -0.22845612181E+02  0.24736941186E+02  0.50528866330E+02  0.30000019698E+02 0.  0.
         12    1    1    2    0    0  0.22788744932E+02  0.22845612181E+02 -0.24736941186E+02  0.40659133670E+02  0.00000000000E+00 0. -1.
         11    1    3    3    0    0 -0.44655661354E+01 -0.15118183125E+02  0.60359095502E+01  0.16879956939E+02  0.51100000000E-03 0. -1.
        -11    1    3    3    0    0 -0.18736455158E+02 -0.61653727579E+01  0.22259112727E+02  0.29741127632E+02  0.51100000000E-03 0.  1.
         12    1    3    3    0    0  0.41327636156E+00 -0.15620562987E+01 -0.35580810912E+01  0.39077817598E+01  0.00000000000E+00 0. -1.
</event>
<event>
 7    1  0.3041451E-011  0.5052885E+02  0.7816164E-02  0.1300439E+00
        -11   -1    0    0    0    0  0.00000000000E+00  0.00000000000E+00  0.45593999997E+02  0.45594000000E+02  0.51100000000E-03 0. -1.
         11   -1    0    0    0    0 -0.00000000000E+00 -0.00000000000E+00 -0.45593999997E+02  0.45594000000E+02  0.51100000000E-03 0.  1.
    9900012    2    1    2    0    0 -0.10437758126E+02  0.28669457830E+02  0.26875303563E+02  0.50528849141E+02  0.29999967450E+02 0.  0.
         12    1    1    2    0    0  0.10437758126E+02 -0.28669457830E+02 -0.26875303563E+02  0.40659150859E+02  0.00000000000E+00 0. -1.
         11    1    3    3    0    0 -0.36587655339E+01 -0.35720772460E+01  0.11789194034E+02  0.12850346194E+02  0.51100000000E-03 0. -1.
        -11    1    3    3    0    0 -0.25644933588E+01  0.17427753374E+02  0.13503714316E+02  0.22195799477E+02  0.51100000000E-03 0.  1.
        -12    1    3    3    0    0 -0.42144992337E+01  0.14813781702E+02  0.15823952123E+01  0.15482703469E+02  0.00000000000E+00 0.  1.
</event>
<event>
 7    1  0.3041451E-011  0.5052886E+02  0.7816164E-02  0.1300439E+00
        -11   -1    0    0    0    0  0.00000000000E+00  0.00000000000E+00  0.45593999997E+02  0.45594000000E+02  0.51100000000E-03 0. -1.
         11   -1    0    0    0    0 -0.00000000000E+00 -0.00000000000E+00 -0.45593999997E+02  0.45594000000E+02  0.51100000000E-03 0.  1.
    9900012    2    1    2    0    0  0.14295256576E+02  0.33836468973E+02 -0.17432870322E+02  0.50528856369E+02  0.29999989419E+02 0.  0.
         12    1    1    2    0    0 -0.14295256576E+02 -0.33836468973E+02  0.17432870322E+02  0.40659143631E+02  0.00000000000E+00 0. -1.
         11    1    3    3    0    0 -0.65085513839E+01  0.19407073290E+02 -0.79649831581E+01  0.21964441531E+02  0.51100000000E-03 0. -1.
        -11    1    3    3    0    0  0.51229393097E+01  0.60790270525E+01 -0.70678794761E+01  0.10637386786E+02  0.51100000000E-03 0.  1.
         12    1    3    3    0    0  0.15680868650E+02  0.83503686304E+01 -0.24000076877E+01  0.17927028052E+02  0.00000000000E+00 0. -1.
</event>
<event>
 7    1  0.3041451E-011  0.5052885E+02  0.7816164E-02  0.1300439E+00
        -11   -1    0    0    0    0  0.00000000000E+00  0.00000000000E+00  0.45593999997E+02  0.45594000000E+02  0.51100000000E-03 0.  1.
         11   -1    0    0    0    0 -0.00000000000E+00 -0.00000000000E+00 -0.45593999997E+02  0.45594000000E+02  0.51100000000E-03 0. -1.
    9900012    2    1    2    0    0  0.10563415177E+02  0.26701786293E+02  0.28785326597E+02  0.50528853935E+02  0.29999982022E+02 0.  0.
         12    1    1    2    0    0 -0.10563415177E+02 -0.26701786293E+02 -0.28785326597E+02  0.40659146065E+02  0.00000000000E+00 0. -1.
         11    1    3    3    0    0  0.22911030279E+01 -0.13615224115E+01  0.80214309606E+01  0.84525884366E+01  0.51100000000E-03 0. -1.
        -11    1    3    3    0    0  0.67068319032E+01  0.10761869110E+02 -0.26170831094E+01  0.12947916635E+02  0.51100000000E-03 0.  1.
        -12    1    3    3    0    0  0.15654802457E+01  0.17301439594E+02  0.23380978746E+02  0.29128348864E+02  0.00000000000E+00 0.  1.
</event>
<event>
 7    1  0.3041451E-011  0.5052886E+02  0.7816164E-02  0.1300439E+00
        -11   -1    0    0    0    0  0.00000000000E+00  0.00000000000E+00  0.45593999997E+02  0.45594000000E+02  0.51100000000E-03 0.  1.
         11   -1    0    0    0    0 -0.00000000000E+00 -0.00000000000E+00 -0.45593999997E+02  0.45594000000E+02  0.51100000000E-03 0. -1.
    9900012    2    1    2    0    0 -0.16845719637E+02 -0.62757332991E+01  0.36469194729E+02  0.50528864954E+02  0.30000015515E+02 0.  0.
         12    1    1    2    0    0  0.16845719637E+02  0.62757332991E+01 -0.36469194729E+02  0.40659135046E+02  0.00000000000E+00 0. -1.
         11    1    3    3    0    0 -0.17388586958E+01 -0.58837927077E+00 -0.36659027087E+00  0.18719531025E+01  0.51100000000E-03 0.  1.
        -11    1    3    3    0    0 -0.15035177559E+02  0.76426090948E+01  0.12804025876E+02  0.21175672761E+02  0.51100000000E-03 0. -1.
        -12    1    3    3    0    0 -0.71683382242E-01 -0.13329963123E+02  0.24031759123E+02  0.27481239090E+02  0.00000000000E+00 0.  1.
</event>
<event>
 7    1  0.3041451E-011  0.5052886E+02  0.7816164E-02  0.1300439E+00
        -11   -1    0    0    0    0  0.00000000000E+00  0.00000000000E+00  0.45593999997E+02  0.45594000000E+02  0.51100000000E-03 0. -1.
         11   -1    0    0    0    0 -0.00000000000E+00 -0.00000000000E+00 -0.45593999997E+02  0.45594000000E+02  0.51100000000E-03 0.  1.
    9900012    2    1    2    0    0 -0.11391230929E+02 -0.13656123927E+02 -0.36563857505E+02  0.50528861563E+02  0.30000005208E+02 0.  0.
         12    1    1    2    0    0  0.11391230929E+02  0.13656123927E+02  0.36563857505E+02  0.40659138437E+02  0.00000000000E+00 0. -1.
         11    1    3    3    0    0  0.52218439180E+01  0.10753168321E+00 -0.23563837134E+01  0.57299006477E+01  0.51100000000E-03 0. -1.
        -11    1    3    3    0    0 -0.16762182115E+02 -0.72969922601E+01 -0.33664079549E+02  0.38307794213E+02  0.51100000000E-03 0.  1.
        -12    1    3    3    0    0  0.14910726826E+00 -0.64666633502E+01 -0.54339424220E+00  0.64911667029E+01  0.00000000000E+00 0.  1.
</event>
<event>
 7    1  0.3041451E-011  0.5052886E+02  0.7816164E-02  0.1300439E+00
        -11   -1    0    0    0    0  0.00000000000E+00  0.00000000000E+00  0.45593999997E+02  0.45594000000E+02  0.51100000000E-03 0. -1.
         11   -1    0    0    0    0 -0.00000000000E+00 -0.00000000000E+00 -0.45593999997E+02  0.45594000000E+02  0.51100000000E-03 0.  1.
    9900012    2    1    2    0    0  0.16841258506E+02  0.30133791676E+02 -0.21482376296E+02  0.50528857361E+02  0.29999992435E+02 0.  0.
         12    1    1    2    0    0 -0.16841258506E+02 -0.30133791676E+02  0.21482376296E+02  0.40659142639E+02  0.00000000000E+00 0. -1.
         11    1    3    3    0    0 -0.28138444943E+01  0.14088977070E+01 -0.16542983063E+01  0.35551957378E+01  0.51100000000E-03 0. -1.
        -11    1    3    3    0    0  0.17440693217E+02  0.98153293247E+01 -0.75902786418E+00  0.20027346135E+02  0.51100000000E-03 0.  1.
        -12    1    3    3    0    0  0.22144097828E+01  0.18909564644E+02 -0.19069050125E+02  0.26946315488E+02  0.00000000000E+00 0.  1.
</event>
<event>
 7    1  0.3041451E-011  0.5052886E+02  0.7816164E-02  0.1300439E+00
        -11   -1    0    0    0    0  0.00000000000E+00  0.00000000000E+00  0.45593999997E+02  0.45594000000E+02  0.51100000000E-03 0.  1.
         11   -1    0    0    0    0 -0.00000000000E+00 -0.00000000000E+00 -0.45593999997E+02  0.45594000000E+02  0.51100000000E-03 0. -1.
    9900012    2    1    2    0    0  0.38416981731E+02  0.10238960536E+02  0.85126201257E+01  0.50528862041E+02  0.30000006660E+02 0.  0.
         12    1    1    2    0    0 -0.38416981731E+02 -0.10238960536E+02 -0.85126201257E+01  0.40659137959E+02  0.00000000000E+00 0. -1.
         11    1    3    3    0    0  0.31003251771E+01  0.30293593454E+01  0.65758933060E+01  0.78760019858E+01  0.51100000000E-03 0. -1.
        -11    1    3    3    0    0  0.14766962801E+02 -0.79655060035E+01 -0.16394143005E+01  0.16858237030E+02  0.51100000000E-03 0.  1.
        -12    1    3    3    0    0  0.20549693753E+02  0.15175107195E+02  0.35761411203E+01  0.25794623025E+02  0.00000000000E+00 0.  1.
</event>
<event>
 7    1  0.3041451E-011  0.5052888E+02  0.7816164E-02  0.1300439E+00
        -11   -1    0    0    0    0  0.00000000000E+00  0.00000000000E+00  0.45593999997E+02  0.45594000000E+02  0.51100000000E-03 0. -1.
         11   -1    0    0    0    0 -0.00000000000E+00 -0.00000000000E+00 -0.45593999997E+02  0.45594000000E+02  0.51100000000E-03 0.  1.
    9900012    2    1    2    0    0 -0.29846553548E+02 -0.21994281221E+02 -0.16691269618E+02  0.50528884828E+02  0.30000075923E+02 0.  0.
         12    1    1    2    0    0  0.29846553548E+02  0.21994281221E+02  0.16691269618E+02  0.40659115172E+02  0.00000000000E+00 0. -1.
         11    1    3    3    0    0 -0.25034806718E+02 -0.16166887116E+02 -0.54931734758E+01  0.30303213386E+02  0.51100000000E-03 0. -1.
        -11    1    3    3    0    0 -0.54911403839E+01 -0.76089138286E+01 -0.13989639310E+02  0.16845123943E+02  0.51100000000E-03 0.  1.
         12    1    3    3    0    0  0.67939355391E+00  0.17815197241E+01  0.27915431682E+01  0.33805474983E+01  0.00000000000E+00 0. -1.
</event>
<event>
 7    1  0.3041451E-011  0.5052884E+02  0.7816164E-02  0.1300439E+00
        -11   -1    0    0    0    0  0.00000000000E+00  0.00000000000E+00  0.45593999997E+02  0.45594000000E+02  0.51100000000E-03 0. -1.
         11   -1    0    0    0    0 -0.00000000000E+00 -0.00000000000E+00 -0.45593999997E+02  0.45594000000E+02  0.51100000000E-03 0.  1.
    9900012    2    1    2    0    0 -0.19561788151E+02  0.67140300295E+00 -0.35637805766E+02  0.50528836980E+02  0.29999930484E+02 0.  0.
         12    1    1    2    0    0  0.19561788151E+02 -0.67140300295E+00  0.35637805766E+02  0.40659163020E+02  0.00000000000E+00 0. -1.
         11    1    3    3    0    0 -0.98720482467E+01 -0.14422632538E+01 -0.90621240804E+00  0.10017918001E+02  0.51100000000E-03 0. -1.
        -11    1    3    3    0    0 -0.15641532089E+00  0.89578831671E+01 -0.12603867493E+02  0.15463686903E+02  0.51100000000E-03 0.  1.
         12    1    3    3    0    0 -0.95333245834E+01 -0.68442169104E+01 -0.22127725865E+02  0.25047232076E+02  0.00000000000E+00 0. -1.
</event>
<event>
 7    1  0.3041451E-011  0.5052886E+02  0.7816164E-02  0.1300439E+00
        -11   -1    0    0    0    0  0.00000000000E+00  0.00000000000E+00  0.45593999997E+02  0.45594000000E+02  0.51100000000E-03 0.  1.
         11   -1    0    0    0    0 -0.00000000000E+00 -0.00000000000E+00 -0.45593999997E+02  0.45594000000E+02  0.51100000000E-03 0. -1.
    9900012    2    1    2    0    0 -0.26690321097E+02 -0.28041911408E+02  0.12427549219E+02  0.50528855699E+02  0.29999987382E+02 0.  0.
         12    1    1    2    0    0  0.26690321097E+02  0.28041911408E+02 -0.12427549219E+02  0.40659144301E+02  0.00000000000E+00 0. -1.
         11    1    3    3    0    0 -0.10643049978E+02  0.42970361342E+01 -0.19428575860E+01  0.11641036390E+02  0.51100000000E-03 0. -1.
        -11    1    3    3    0    0 -0.11522413498E+02 -0.22015610416E+02  0.93618571549E+01  0.26553671770E+02  0.51100000000E-03 0.  1.
         12    1    3    3    0    0 -0.45248576219E+01 -0.10323337127E+02  0.50085496503E+01  0.12334147539E+02  0.00000000000E+00 0. -1.
</event>
<event>
 7    1  0.3041451E-011  0.5052887E+02  0.7816164E-02  0.1300439E+00
        -11   -1    0    0    0    0  0.00000000000E+00  0.00000000000E+00  0.45593999997E+02  0.45594000000E+02  0.51100000000E-03 0. -1.
         11   -1    0    0    0    0 -0.00000000000E+00 -0.00000000000E+00 -0.45593999997E+02  0.45594000000E+02  0.51100000000E-03 0.  1.
    9900012    2    1    2    0    0  0.11040098914E+02 -0.28187274620E+02 -0.27143297170E+02  0.50528870450E+02  0.30000032219E+02 0.  0.
         12    1    1    2    0    0 -0.11040098914E+02  0.28187274620E+02  0.27143297170E+02  0.40659129550E+02  0.00000000000E+00 0. -1.
         11    1    3    3    0    0 -0.83782060651E+01 -0.15263954928E+02 -0.87128268589E+01  0.19470388004E+02  0.51100000000E-03 0. -1.
        -11    1    3    3    0    0  0.79571364912E+01 -0.42220871306E+01 -0.20183061100E+01  0.92312296415E+01  0.51100000000E-03 0.  1.
        -12    1    3    3    0    0  0.11461168488E+02 -0.87012325614E+01 -0.16412164201E+02  0.21827252804E+02  0.00000000000E+00 0.  1.
</event>
<event>
 7    1  0.3041451E-011  0.5052887E+02  0.7816164E-02  0.1300439E+00
        -11   -1    0    0    0    0  0.00000000000E+00  0.00000000000E+00  0.45593999997E+02  0.45594000000E+02  0.51100000000E-03 0.  1.
         11   -1    0    0    0    0 -0.00000000000E+00 -0.00000000000E+00 -0.45593999997E+02  0.45594000000E+02  0.51100000000E-03 0. -1.
    9900012    2    1    2    0    0 -0.59443395565E+01  0.21589928202E+02  0.33936773883E+02  0.50528870717E+02  0.30000033030E+02 0.  0.
         12    1    1    2    0    0  0.59443395565E+01 -0.21589928202E+02 -0.33936773883E+02  0.40659129283E+02  0.00000000000E+00 0. -1.
         11    1    3    3    0    0 -0.45921645477E+01  0.18115498242E+02  0.41499731870E+01  0.19143707309E+02  0.51100000000E-03 0. -1.
        -11    1    3    3    0    0 -0.31844887762E+01  0.44989467960E+01  0.94478512725E+01  0.10938161864E+02  0.51100000000E-03 0.  1.
         12    1    3    3    0    0  0.18323137675E+01 -0.10245168367E+01  0.20338949423E+02  0.20447001544E+02  0.00000000000E+00 0. -1.
</event>
<event>
 7    1  0.3041451E-011  0.5052888E+02  0.7816164E-02  0.1300439E+00
        -11   -1    0    0    0    0  0.00000000000E+00  0.00000000000E+00  0.45593999997E+02  0.45594000000E+02  0.51100000000E-03 0. -1.
         11   -1    0    0    0    0 -0.00000000000E+00 -0.00000000000E+00 -0.45593999997E+02  0.45594000000E+02  0.51100000000E-03 0.  1.
    9900012    2    1    2    0    0  0.39957306483E+02 -0.65622079582E+01 -0.36762968170E+01  0.50528879585E+02  0.30000059986E+02 0.  0.
         12    1    1    2    0    0 -0.39957306483E+02  0.65622079582E+01  0.36762968170E+01  0.40659120415E+02  0.00000000000E+00 0. -1.
         11    1    3    3    0    0  0.67366301494E+01  0.50593118354E+01 -0.56908454218E+01  0.10166835491E+02  0.51100000000E-03 0. -1.
        -11    1    3    3    0    0  0.32575989606E+02 -0.43600050254E+01  0.30113456748E+01  0.33004135281E+02  0.51100000000E-03 0.  1.
        -12    1    3    3    0    0  0.64468672749E+00 -0.72615147682E+01 -0.99679706994E+00  0.73579088132E+01  0.00000000000E+00 0.  1.
</event>
<event>
 7    1  0.3041451E-011  0.5052883E+02  0.7816164E-02  0.1300439E+00
        -11   -1    0    0    0    0  0.00000000000E+00  0.00000000000E+00  0.45593999997E+02  0.45594000000E+02  0.51100000000E-03 0.  1.
         11   -1    0    0    0    0 -0.00000000000E+00 -0.00000000000E+00 -0.45593999997E+02  0.45594000000E+02  0.51100000000E-03 0. -1.
    9900012    2    1    2    0    0 -0.29913482469E+02 -0.97981945154E+00  0.27520747504E+02  0.50528831012E+02  0.29999912344E+02 0.  0.
         12    1    1    2    0    0  0.29913482469E+02  0.97981945154E+00 -0.27520747504E+02  0.40659168988E+02  0.00000000000E+00 0. -1.
         11    1    3    3    0    0 -0.11192822734E+02 -0.13893436308E+02  0.13412594368E+02  0.22320495988E+02  0.51100000000E-03 0. -1.
        -11    1    3    3    0    0 -0.14553770351E+02  0.67509151342E+01  0.58078794140E+01  0.17062196522E+02  0.51100000000E-03 0.  1.
         12    1    3    3    0    0 -0.41668893834E+01  0.61627017226E+01  0.83002737218E+01  0.11146138502E+02  0.00000000000E+00 0. -1.
</event>
<event>
 7    1  0.3041451E-011  0.5052889E+02  0.7816164E-02  0.1300439E+00
        -11   -1    0    0    0    0  0.00000000000E+00  0.00000000000E+00  0.45593999997E+02  0.45594000000E+02  0.51100000000E-03 0. -1.
         11   -1    0    0    0    0 -0.00000000000E+00 -0.00000000000E+00 -0.45593999997E+02  0.45594000000E+02  0.51100000000E-03 0.  1.
    9900012    2    1    2    0    0  0.33625727092E+02 -0.41725023968E+01 -0.22473629604E+02  0.50528888767E+02  0.30000087897E+02 0.  0.
         12    1    1    2    0    0 -0.33625727092E+02  0.41725023968E+01  0.22473629604E+02  0.40659111233E+02  0.00000000000E+00 0. -1.
         11    1    3    3    0    0  0.13012203519E+02 -0.14752872807E+02 -0.17195963756E+02  0.26127875272E+02  0.51100000000E-03 0. -1.
        -11    1    3    3    0    0  0.58668023496E+01  0.59669822910E+01 -0.20642858857E+01  0.86189050319E+01  0.51100000000E-03 0.  1.
         12    1    3    3    0    0  0.14746721223E+02  0.46133881190E+01 -0.32133799618E+01  0.15782108463E+02  0.00000000000E+00 0. -1.
</event>
<event>
 7    1  0.3041451E-011  0.5052882E+02  0.7816164E-02  0.1300439E+00
        -11   -1    0    0    0    0  0.00000000000E+00  0.00000000000E+00  0.45593999997E+02  0.45594000000E+02  0.51100000000E-03 0. -1.
         11   -1    0    0    0    0 -0.00000000000E+00 -0.00000000000E+00 -0.45593999997E+02  0.45594000000E+02  0.51100000000E-03 0.  1.
    9900012    2    1    2    0    0 -0.15762768837E+02  0.23006542323E+02 -0.29587216493E+02  0.50528815910E+02  0.29999866440E+02 0.  0.
         12    1    1    2    0    0  0.15762768837E+02 -0.23006542323E+02  0.29587216493E+02  0.40659184090E+02  0.00000000000E+00 0. -1.
         11    1    3    3    0    0 -0.77938679196E+01 -0.54507932000E+01 -0.76219504949E+01  0.12188094735E+02  0.51100000000E-03 0. -1.
        -11    1    3    3    0    0 -0.45072377791E+01  0.25861988622E+02 -0.21605333585E+02  0.33999236572E+02  0.51100000000E-03 0.  1.
        -12    1    3    3    0    0 -0.34616631383E+01  0.25953469007E+01 -0.35993241286E+00  0.43414846032E+01  0.00000000000E+00 0.  1.
</event>
<event>
 7    1  0.3041451E-011  0.5052886E+02  0.7816164E-02  0.1300439E+00
        -11   -1    0    0    0    0  0.00000000000E+00  0.00000000000E+00  0.45593999997E+02  0.45594000000E+02  0.51100000000E-03 0.  1.
         11   -1    0    0    0    0 -0.00000000000E+00 -0.00000000000E+00 -0.45593999997E+02  0.45594000000E+02  0.51100000000E-03 0. -1.
    9900012    2    1    2    0    0  0.18192013724E+02 -0.37012639172E+01  0.36173428870E+02  0.50528859894E+02  0.30000000134E+02 0.  0.
         12    1    1    2    0    0 -0.18192013724E+02  0.37012639172E+01 -0.36173428870E+02  0.40659140106E+02  0.00000000000E+00 0. -1.
         11    1    3    3    0    0  0.24871163146E+02 -0.51629493976E+01  0.24350121304E+02  0.35187486562E+02  0.51100000000E-03 0. -1.
        -11    1    3    3    0    0 -0.41985064140E+01  0.37780516190E+01  0.10009568426E+02  0.11493154070E+02  0.51100000000E-03 0.  1.
         12    1    3    3    0    0 -0.24806430086E+01 -0.23163661386E+01  0.18137391408E+01  0.38482192628E+01  0.00000000000E+00 0. -1.
</event>
<event>
 7    1  0.3041451E-011  0.5052886E+02  0.7816164E-02  0.1300439E+00
        -11   -1    0    0    0    0  0.00000000000E+00  0.00000000000E+00  0.45593999997E+02  0.45594000000E+02  0.51100000000E-03 0.  1.
         11   -1    0    0    0    0 -0.00000000000E+00 -0.00000000000E+00 -0.45593999997E+02  0.45594000000E+02  0.51100000000E-03 0. -1.
    9900012    2    1    2    0    0 -0.15495704599E+01  0.13240130186E+02  0.38411762174E+02  0.50528859708E+02  0.29999999569E+02 0.  0.
         12    1    1    2    0    0  0.15495704599E+01 -0.13240130186E+02 -0.38411762174E+02  0.40659140292E+02  0.00000000000E+00 0. -1.
         11    1    3    3    0    0 -0.39040645130E+00  0.19407439872E+02  0.14171798762E+02  0.24034163601E+02  0.51100000000E-03 0. -1.
        -11    1    3    3    0    0 -0.21529135098E+01 -0.22136101080E+01  0.15756603366E+01  0.34666716095E+01  0.51100000000E-03 0.  1.
         12    1    3    3    0    0  0.99374950121E+00 -0.39536995773E+01  0.22664303075E+02  0.23028024498E+02  0.00000000000E+00 0. -1.
</event>
<event>
 7    1  0.3041451E-011  0.5052886E+02  0.7816164E-02  0.1300439E+00
        -11   -1    0    0    0    0  0.00000000000E+00  0.00000000000E+00  0.45593999997E+02  0.45594000000E+02  0.51100000000E-03 0.  1.
         11   -1    0    0    0    0 -0.00000000000E+00 -0.00000000000E+00 -0.45593999997E+02  0.45594000000E+02  0.51100000000E-03 0. -1.
    9900012    2    1    2    0    0 -0.16980507846E+02 -0.35927438729E+02  0.86050519888E+01  0.50528863018E+02  0.30000009631E+02 0.  0.
         12    1    1    2    0    0  0.16980507846E+02  0.35927438729E+02 -0.86050519888E+01  0.40659136982E+02  0.00000000000E+00 0. -1.
         11    1    3    3    0    0  0.36483338305E+01 -0.14255962311E+02  0.10729274987E+02  0.18211538737E+02  0.51100000000E-03 0.  1.
        -11    1    3    3    0    0 -0.25493511783E+01  0.11004644897E+01 -0.16645429349E+01  0.32374244341E+01  0.51100000000E-03 0. -1.
         12    1    3    3    0    0 -0.18079490498E+02 -0.22771940908E+02 -0.45968006312E+00  0.29079899848E+02  0.00000000000E+00 0. -1.
</event>
<event>
 7    1  0.3041451E-011  0.5052886E+02  0.7816164E-02  0.1300439E+00
        -11   -1    0    0    0    0  0.00000000000E+00  0.00000000000E+00  0.45593999997E+02  0.45594000000E+02  0.51100000000E-03 0.  1.
         11   -1    0    0    0    0 -0.00000000000E+00 -0.00000000000E+00 -0.45593999997E+02  0.45594000000E+02  0.51100000000E-03 0. -1.
    9900012    2    1    2    0    0 -0.33675728983E+02  0.10667206469E+02  0.20132594676E+02  0.50528863453E+02  0.30000010950E+02 0.  0.
         12    1    1    2    0    0  0.33675728983E+02 -0.10667206469E+02 -0.20132594676E+02  0.40659136547E+02  0.00000000000E+00 0. -1.
         11    1    3    3    0    0 -0.11436888052E+02  0.12881520674E+02  0.44299079060E+01  0.17786513641E+02  0.51100000000E-03 0. -1.
        -11    1    3    3    0    0 -0.84589335470E+01 -0.84320082607E+01  0.15681895425E+01  0.12046225084E+02  0.51100000000E-03 0.  1.
        -12    1    3    3    0    0 -0.13779907384E+02  0.62176940560E+01  0.14134497227E+02  0.20696124728E+02  0.00000000000E+00 0.  1.
</event>
